LIG
    73
  29.6780000   4.4140000 -21.5190000  29.1890000   4.9100000 -22.5170000
  29.5670000   6.1410000 -23.0150000  28.0900000   4.1890000 -23.2740000
  30.5660000   6.9810000 -22.3770000  27.4720000   3.1320000 -22.6660000
  27.7810000   4.6110000 -24.5640000  31.6790000   7.3580000 -23.3240000
  26.5070000   2.4760000 -23.3820000  26.8160000   3.9170000 -25.2880000
  31.4500000   7.5360000 -24.6920000  32.9730000   7.5690000 -22.8350000
  26.1700000   2.8230000 -24.7030000  25.8080000   1.3000000 -22.7020000
  32.5060000   7.8680000 -25.5480000  34.0240000   7.9060000 -23.6980000
  25.0930000   2.0880000 -25.4700000  24.5780000   0.8820000 -23.3750000
  33.8150000   8.0400000 -25.0740000  24.6790000   0.7640000 -24.8230000
  23.5320000   0.3140000 -22.6280000  34.8200000   8.3680000 -25.9820000
  22.3690000   0.3760000 -23.0270000  23.9290000  -0.5380000 -21.4810000
  36.2270000   8.2780000 -25.5570000  34.6210000   7.8500000 -27.3530000
  24.2470000  -1.8310000 -21.8850000  23.2870000  -0.7190000 -20.2480000
  37.1050000   9.0710000 -26.5550000  35.5190000   8.6500000 -28.3290000
  23.1930000  -2.5680000 -21.4540000  22.4880000  -1.8700000 -20.4830000
  23.4460000  -0.0490000 -18.9360000  36.9530000   8.5980000 -27.9520000
  22.8540000  -3.8290000 -21.9270000  21.3470000  -2.4530000 -19.9220000
  37.7520000   9.4150000 -28.8600000  21.6820000  -4.3640000 -21.4000000
  20.9360000  -3.6960000 -20.4230000  29.1400000   6.4650000 -23.8410000
  30.0797000   7.8998000 -22.0174000  30.0797000   7.8998000 -22.0174000
  28.2918000   5.4799000 -25.0045000  26.5632000   4.2266000 -26.3128000
  30.4346000   7.4144000 -25.0972000  33.1679000   7.4688000 -21.7571000
  26.5017000   0.4465000 -22.6834000  26.5017000   0.4465000 -22.6834000
  32.3042000   7.9976000 -26.6215000  35.0310000   8.0680000 -23.2859000
  25.4679000   1.8785000 -26.4827000  25.4679000   1.8785000 -26.4827000
  25.4295000  -0.0023000 -25.0670000  25.4295000  -0.0023000 -25.0670000
  36.3362000   8.7051000 -24.5492000  36.3362000   8.7051000 -24.5492000
  33.5662000   7.9671000 -27.6421000  33.5662000   7.9671000 -27.6421000
  36.8186000  10.1321000 -26.5096000  36.8186000  10.1321000 -26.5096000
  35.1919000   9.7003000 -28.3292000  35.1919000   9.7003000 -28.3292000
  23.2733000  -0.7767000 -18.1294000  23.2733000  -0.7767000 -18.1294000
  23.2733000  -0.7767000 -18.1294000  37.2850000   7.6360000 -28.0210000
  23.4676000  -4.3664000 -22.6651000  20.7911000  -1.9531000 -19.1151000
  38.4038000  10.0815000 -28.2761000  38.4038000  10.0815000 -28.2761000
  38.4038000  10.0815000 -28.2761000  21.3318000  -5.3416000 -21.7627000
  20.0114000  -4.1539000 -20.0416000
