LIG
    73
  23.4460000  -0.0490000 -18.9360000  23.2870000  -0.7190000 -20.2480000
  23.9290000  -0.5380000 -21.4810000  23.5320000   0.3140000 -22.6280000
  22.3690000   0.3760000 -23.0270000  24.5780000   0.8820000 -23.3750000
  24.6790000   0.7640000 -24.8230000  25.0930000   2.0880000 -25.4700000
  26.1700000   2.8230000 -24.7030000  26.8160000   3.9170000 -25.2880000
  27.7810000   4.6110000 -24.5640000  28.0900000   4.1890000 -23.2740000
  29.1890000   4.9100000 -22.5170000  29.6780000   4.4140000 -21.5190000
  29.5670000   6.1410000 -23.0150000  30.5660000   6.9810000 -22.3770000
  31.6790000   7.3580000 -23.3240000  31.4500000   7.5360000 -24.6920000
  32.5060000   7.8680000 -25.5480000  33.8150000   8.0400000 -25.0740000
  34.8200000   8.3680000 -25.9820000  36.2270000   8.2780000 -25.5570000
  37.1050000   9.0710000 -26.5550000  36.9530000   8.5980000 -27.9520000
  37.7520000   9.4150000 -28.8600000  35.5190000   8.6500000 -28.3290000
  34.6210000   7.8500000 -27.3530000  34.0240000   7.9060000 -23.6980000
  32.9730000   7.5690000 -22.8350000  27.4720000   3.1320000 -22.6660000
  26.5070000   2.4760000 -23.3820000  25.8080000   1.3000000 -22.7020000
  24.2470000  -1.8310000 -21.8850000  23.1930000  -2.5680000 -21.4540000
  22.8540000  -3.8290000 -21.9270000  21.6820000  -4.3640000 -21.4000000
  20.9360000  -3.6960000 -20.4230000  21.3470000  -2.4530000 -19.9220000
  22.4880000  -1.8700000 -20.4830000  23.2730000  -0.7770000 -18.1290000
  24.4650000   0.3560000 -18.8520000  22.7180000   0.7710000 -18.8520000
  25.4300000  -0.0020000 -25.0670000  23.6900000   0.4850000 -25.2150000
  25.4680000   1.8790000 -26.4830000  24.2040000   2.7350000 -25.4800000
  26.5630000   4.2270000 -26.3130000  28.2920000   5.4800000 -25.0050000
  29.1400000   6.4650000 -23.8410000  30.0800000   7.9000000 -22.0170000
  31.0070000   6.4110000 -21.5460000  30.4350000   7.4140000 -25.0970000
  32.3040000   7.9980000 -26.6220000  36.3360000   8.7050000 -24.5490000
  36.5440000   7.2250000 -25.5380000  36.8190000  10.1320000 -26.5100000
  38.1560000   8.9210000 -26.2660000  37.2850000   7.6360000 -28.0210000
  38.4040000  10.0820000 -28.2760000  38.3690000   8.7620000 -29.4940000
  37.0850000  10.0180000 -29.4940000  35.1920000   9.7000000 -28.3290000
  35.4180000   8.1950000 -29.3260000  33.5660000   7.9670000 -27.6420000
  34.8890000   6.7840000 -27.3900000  35.0310000   8.0680000 -23.2860000
  33.1680000   7.4690000 -21.7570000  26.5020000   0.4470000 -22.6830000
  25.5260000   1.6320000 -21.6920000  23.4680000  -4.3660000 -22.6650000
  21.3320000  -5.3420000 -21.7630000  20.0110000  -4.1540000 -20.0420000
  20.7910000  -1.9530000 -19.1150000
