Cpptraj Generated Restart                                                       
   30  4.0000001E-01
  83.9475632 154.4589081  14.1077423  84.8679504 153.3817444  14.2573977
  82.7428513 153.9212799  14.2419958  84.2964706 152.1514435  14.6873264
  82.0436707 153.0287170  14.5988235  82.8469315 152.1625214  14.8561115
  84.8403015 155.8280640  11.6416416  84.7219772 156.4167786  12.7291088
  84.2903137 155.8079834  13.9764299  85.1319733 157.8436432  12.8284750
  84.4169922 156.6619568  14.9915771  85.1450348 158.6614075  14.0249691
  84.6892776 157.7644958  15.1228456  85.4126205 159.8358917  14.0556202
  85.3755035 158.4148254  12.0278397  86.2369385 153.6098938  13.9471722
  86.7501221 152.7748260  13.0922079  84.9626389 150.8882294  14.9202042
  84.9856339 149.7343903  15.6821489  84.8338776 148.4583130  15.0566387
  86.2762756 150.0787354  15.4743538  85.8788910 147.7701111  14.4745007
  87.4063950 149.9620667  15.1186562  87.2819138 147.4405670  14.3531122
  87.3882828 148.8026276  14.7014370  87.5651855 147.2896271  13.3854551
  83.6091537 147.6518402  14.9928188  82.5836792 148.2451172  15.2678194
  83.5024796 146.4416809  14.4660378  84.4316406 146.1553955  14.4446278
