Cpptraj Generated Restart                                                       
   30  4.0000001E-01
  84.3690491 154.0393372  13.8847303  85.2993088 153.2106476  13.1898890
  83.4131088 153.3255463  14.5318632  85.0504608 151.9129333  13.4027491
  83.2375259 151.9006500  14.7539148  84.2699661 151.1940613  13.9255571
  84.7912140 155.8500977  11.5429335  84.6954803 156.3017731  12.6846914
  84.4222870 155.4298553  13.8720751  84.9536896 157.7247162  12.9030180
  84.5525970 156.2209015  14.9253368  85.0032806 158.4300537  14.1604643
  84.7145081 157.3356628  15.1982403  85.2505798 159.6246490  14.2551565
  85.0276260 158.3774414  12.1316080  86.3699875 153.6570892  12.4106188
  87.2047501 152.8106079  11.8685474  82.2311401 151.2887573  15.5928831
  81.4666824 150.2005310  15.6886969  80.0319290 150.2176666  16.1809731
  82.1880264 150.3337097  16.8400021  79.7240524 150.3349762  17.5165062
  82.4092102 150.2552032  18.0787563  79.8479233 149.9094238  18.8387394
  81.2613144 150.0553284  18.4792233  79.5775681 148.9329224  18.9514885
  78.9425125 150.1092682  15.2412710  79.2392273 150.0955658  14.0583172
  77.6729889 149.9645386  15.6529541  77.7244415 149.8781433  16.6202431
