Cpptraj Generated Restart                                                       
 6218  4.0000001E-01
  91.2947083 180.9379730  23.7694569  91.9272766 181.2453003  23.0445309
  91.6938629 180.0149536  23.8634624  91.3043594 181.4487457  24.6407280
  89.8993683 180.8391113  23.1129608  89.1952896 180.6809540  23.9298801
  89.4629517 182.2235870  22.5180855  90.1499786 182.4364471  21.6990662
  88.5050430 182.1762695  22.0001392  89.4516144 183.4922180  23.4088764
  88.6852493 183.4505310  24.1828537  90.4037476 183.6230927  23.9230957
  89.3342972 185.1121979  22.5969391  87.5409164 185.1573639  22.1214638
  86.9916611 184.6227112  22.8964386  87.2555161 186.2065887  22.1974449
  87.3063278 184.8228302  21.1109390  89.8287888 179.6084595  22.1929474
  90.8616180 179.0553589  21.8009281  88.6566238 179.2224731  21.7588577
  87.8133926 179.7087402  22.0283279  88.5389328 178.1519470  20.6938229
  89.0850143 177.2612762  21.0046349  87.0433197 177.7020721  20.6093311
  86.4635162 178.6195221  20.5081654  86.7874146 176.8794556  19.3786831
  87.3772278 175.9670258  19.4663563  85.7208557 176.6662903  19.3071251
  87.0422211 177.4368744  18.4773178  86.6619568 177.0389099  21.9193497
  85.6448746 176.6992645  21.7237034  87.3324585 176.1975250  22.0942612
  86.4432373 177.8067932  23.1693420  85.8759689 178.6986694  22.9031296
  85.8909378 177.1054535  23.7947884  87.4192886 177.9706268  23.6260548
  89.1230850 178.6212921  19.3431301  89.1242142 179.8260040  19.0282230
  89.5939331 177.7038879  18.5015602  89.5957794 176.7453613  18.8198929
  90.3370667 178.0946655  17.2527981  90.0753708 179.0948486  16.9074841
  91.8419647 178.2376099  17.5737305  92.3504486 178.7930908  16.7857075
  91.8899155 178.9558716  18.3922081  92.6329956 177.0220642  17.7978859
  92.2617111 175.8681488  17.6593571  93.7853775 177.1882935  18.4485817
  94.3309326 176.3998566  18.7661324  94.2610931 178.0790405  18.4675236
  90.0350723 177.1286163  16.0999146  90.3654175 177.4425659  14.9492931
  89.4053497 175.9832458  16.2901211  89.0580978 175.7332306  17.2050018
  89.0704117 175.0858459  15.2287388  89.9344864 174.8163147  14.6214342
  88.4537582 173.8040466  15.8356743  89.1937103 173.2734528  16.4348793
  87.6075668 173.9802399  16.4997597  87.9353790 172.7872009  14.9257584
  88.7921371 171.8757019  14.2792273  89.8700638 171.9153137  14.3332129
  88.2881165 170.8377991  13.4898233  88.9034653 170.0496979  13.0815916
  86.9283905 170.7700653  13.2555962  86.4824905 169.9486847  12.7143793
  86.0327682 171.7796936  13.8155508  84.9629593 171.6952667  13.6939592
  86.5693741 172.7787476  14.6292572  85.9829712 173.5243073  15.1456633
  88.0468140 175.8697052  14.2710552  87.1359329 176.5028687  14.7402420
  88.2253418 175.7261810  12.9337435  89.0271683 175.2198181  12.5862112
  87.1851501 176.2190552  11.9888601  86.9763794 177.2529297  12.2638741
  87.8735352 176.3026733  10.6239376  88.7931442 176.8682098  10.7741833
  88.2171707 175.3213806  10.2967148  86.9733810 176.8646851   9.5456753
  85.7775879 177.1158447   9.7994814  87.4389191 177.0781250   8.4186640
  85.8785629 175.3531647  12.0392437  85.8424072 174.2361755  11.4751740
  84.8083725 175.8906708  12.6531858  84.8911896 176.7675781  13.1474247
  83.4942017 175.1014862  12.8377695  83.7862854 174.2742310  13.4846344
  82.4996033 175.8526459  13.7365427  81.5485840 175.3200684  13.7402020
  83.0903702 175.9607086  15.1546440  84.0387497 176.4941559  15.0903206
  82.4040070 176.5213928  15.7891798  83.4000168 174.9967651  15.5584068
  82.3800964 177.1891632  13.2904234  81.8157501 177.6585846  13.9091015
  82.8577347 174.5812836  11.5280743  81.9429703 173.7650299  11.5435648
  83.2899170 175.0936279  10.3774643  84.0467224 175.7617798  10.4077473
  82.8715668 174.5950317   9.0807838  81.7851639 174.5115814   9.0512581
  83.1176453 175.6213837   7.9282427  82.4264145 175.4392242   7.1053710
  82.8983841 176.6345978   8.2650080  84.4058838 175.7052307   7.4303327
  84.9000015 176.2725525   8.0266523  83.3904572 173.2643280   8.6373758
  82.7109451 172.6040649   7.8640656  84.5529404 172.8224640   9.1597242
  85.0027313 173.4870148   9.7730398  85.2397385 171.5361633   8.8150234
  85.3901672 171.5843201   7.7365279  86.5978928 171.4151611   9.5202074
  86.5611801 171.5660095  10.5990925  87.0161667 170.4151459   9.4056540
  87.6778946 172.4733887   9.0941553  87.2627106 173.4715118   9.2336388
  88.9013596 172.4550018   9.9659815  89.2129974 171.4112854  10.0067225
  89.6772079 173.0546265   9.4899616  88.6404419 172.8211823  10.9589262
  88.0747147 172.3393402   7.6000633  87.1939087 172.4918976   6.9763627
  88.7263489 173.1495972   7.2730393  88.5155792 171.3560638   7.4359875
  84.3665314 170.2629700   8.9199781  84.3856201 169.4217072   8.0075350
  83.5494232 170.0591888   9.9909058  83.4917297 170.8067474  11.2277126
  82.6941147 171.5494232  11.2097626  84.4168472 171.3443604  11.4356546
  83.0774155 169.7893219  12.2941370  82.6488266 170.3486176  13.1257648
  83.9122620 169.1575165  12.5973797  82.0936050 168.8861542  11.5491829
  81.1095963 169.3541565  11.5775614  82.0719986 167.9129486  12.0395908
  82.6141281 168.8810883  10.1097050  83.2647171 168.0174866   9.9718523
  81.5251770 168.9291687   9.0619574  81.1539917 167.8562164   8.5887871
  80.9347992 170.0980835   8.7834892  81.3443985 170.9533691   9.1310749
  79.7089691 170.2410126   8.0792837  79.0372314 169.4757843   8.4682627
  78.8926468 171.5598755   8.2007227  77.9989166 171.3951263   7.5988798
  78.4943619 171.8209381   9.6205072  79.4516449 172.0605164  10.0834436
  77.7029190 172.5700226   9.6447906  78.2289276 170.8994598  10.1387053
  79.5960999 172.7237701   7.8166385  79.5115509 172.8198090   6.8652043
  79.8436813 170.0407410   6.5717845  78.9011154 169.6646271   5.9284577
  81.0581131 170.1532440   6.0092344  81.8048553 170.3397369   6.6632266
  81.4106522 169.7184448   4.6507969  80.5507202 169.9084930   4.0085316
  82.5434799 170.5175934   4.0273838  82.5259933 170.2686920   2.9663262
  82.2701645 171.5508270   4.2414031  83.8277740 170.2241669   4.5738039
  84.4784164 170.8890228   4.3366528  81.6855316 168.1822357   4.5069323
  81.6419678 167.6968079   3.3573122  81.7693710 167.4212036   5.5695729
  81.5891113 167.9042664   6.4380498  81.9708328 165.9386139   5.6862612
  82.1742020 165.7293701   6.7364812  80.7107620 165.2018585   5.2759824
  80.4890976 165.4419250   4.2361112  80.9633179 164.1515503   5.4214640
  79.5801468 165.5881805   6.1945777  79.4230270 165.1094818   7.4655409
  78.3285294 165.6113739   7.9830461  77.9928741 165.2761688   8.9532881
  77.8261032 166.5610809   7.1346035  76.9580841 167.0445557   7.3160095
  78.6021576 166.5511780   5.9771204  78.4604263 167.1281281   5.0752048
  83.2236481 165.3681030   5.0274601  83.1693039 164.4459076   4.1904793
  84.3524780 166.0125885   5.2837014  84.2450562 166.8042450   5.9016247
  85.6067200 165.7250519   4.6382122  85.5488739 166.0497742   3.5993133
  86.7355118 166.4849548   5.3399715  86.7428589 166.3015442   6.4144068
  87.6714096 166.1557770   4.8884897  86.5629578 167.9892273   5.0650420
  86.4997864 168.0937805   3.9819081  85.5554962 168.2859497   5.3567238
  87.8043518 169.1157379   5.8220892  89.3129349 168.4632416   5.0263200
  89.2160950 168.5090485   3.9415958  90.2043610 168.9834442   5.3768101
  89.3360825 167.3804779   5.1495891  86.0049820 164.2503967   4.5848722
  86.3456116 163.7103271   3.5550435  85.8564911 163.5880432   5.7343202
  85.4382782 164.0841675   6.5083194  86.2362137 162.1528320   5.8894143
  87.3043137 161.9370117   5.9154868  85.7494431 161.6457214   7.3190923
  86.0613098 160.6237640   7.5346227  86.1815567 162.2522430   8.1150274
  84.2351837 161.5408325   7.4765091  83.5233078 162.7916718   7.7438512
  84.0526123 163.7119751   7.9420514  82.1482010 162.7537994   7.7650337
  81.6234207 163.6787872   7.9532256  81.3622437 161.5681763   7.6955938
  80.0228348 161.5090485   7.7748032  79.6592865 162.3930206   7.6851296
  82.0391235 160.3484192   7.4704394  81.5462952 159.4079895   7.2726517
  83.5024719 160.3460236   7.3050108  84.0281219 159.4551086   6.9946003
  85.5826187 161.2187653   4.8888307  86.1837769 160.1855316   4.6158333
  84.3905869 161.5527649   4.2784448  83.9134903 162.3855286   4.5930581
  83.7298660 160.7483521   3.3521197  83.9220581 159.7223206   3.6658387
  82.2609482 161.0921173   3.4082739  81.8112488 160.9415741   4.3897042
  82.1865997 162.1484833   3.1500235  81.3081055 160.3791046   2.3884115
  81.6975708 160.3499756   1.3707832  80.9945831 158.9319611   2.7738833
  80.2402191 158.9237671   3.5606322  80.6254044 158.3419495   1.9350213
  81.9337158 158.4735413   3.0836964  80.0316162 161.1683807   2.2869968
  80.2123795 162.1498871   1.8487289  79.3660355 160.6247711   1.6164794
  79.6171188 161.1722107   3.2951069  84.3278961 160.8656006   1.9723709
  84.1642075 159.9132538   1.1933978  85.0263596 161.9529266   1.6820878
  85.1961441 162.6786346   2.3637316  85.5700073 162.1502533   0.3297766
  86.6269455 161.8860016   0.2958328  85.0014114 161.5439148  -0.3753154
  85.4218140 163.5792847  -0.1419184  84.2996140 164.0554657  -0.3466394
  86.5495911 164.2211609  -0.4793789  87.4185867 163.7184753  -0.3686750
  86.6628876 165.3654938  -1.3827990  85.8448944 166.0254364  -1.0938843
  88.0153275 165.9764557  -1.0598258  87.8352432 167.0458374  -0.9497489
  88.3409195 165.7196045  -0.0517984  89.0092697 165.7069397  -2.0441089
  89.8215637 166.0159912  -1.6363446  86.4563751 165.0266418  -2.8940015
  86.4774551 163.8596344  -3.3367579  86.2235718 166.0403900  -3.7374706
  86.3209305 166.9908752  -3.4100544  85.8895721 165.8367920  -5.1654935
  85.6881485 166.8333893  -5.5583596  87.1617050 165.3349304  -5.9603343
  88.0923615 165.7694702  -5.5954356  87.3272934 164.2682343  -5.8091779
  87.2168655 165.5775909  -7.5132689  86.3616638 166.3211670  -8.0636826
  88.1615219 165.0974121  -8.1877670  84.6064072 165.0039673  -5.4727855
  84.6628494 164.0640106  -6.3441939  83.5315704 165.1872559  -4.7657523
  83.5872650 165.9703064  -4.1302752  82.2161865 164.7268524  -5.2323079
  82.3454895 163.7689514  -5.7360973  81.2306519 164.5759277  -4.0846577
  80.9273300 165.5561676  -3.7169273  80.3678741 164.0428925  -4.4841518
  81.8719788 163.7622375  -2.9209185  82.4209976 162.9031677  -3.3065014
  82.6600113 164.4150085  -2.5454228  81.0104675 163.3689575  -1.4429703
  79.6740112 162.2996826  -2.0632575  80.1975555 161.4890747  -2.5701244
  79.1542130 161.8222198  -1.2326325  78.9623642 162.9480591  -2.5743937
  81.6280594 165.6573181  -6.3989429  81.9645767 166.8380585  -6.5679159
  80.7329407 165.0934296  -7.2576904  80.5052032 164.1212616  -7.1056581
  79.7941818 165.8026276  -8.1172438  80.2917557 166.5901947  -8.6831684
  79.1805725 164.8220673  -9.0956287  79.9453201 164.2527466  -9.6239710
  78.6845169 164.0218658  -8.5463428  78.2335739 165.3591614 -10.1160870
  77.4544296 165.8344574  -9.5201578  78.6088943 166.1893921 -10.7143688
  77.5972672 164.2378235 -11.0123920  77.5877991 162.9840698 -10.6849909
  77.1302872 164.6424255 -12.0774393  78.7138672 166.5109711  -7.2363119
  78.3705597 166.0945587  -6.1115861  78.0591888 167.5404968  -7.7901349
  78.4101028 167.8784332  -8.6748743  76.9499054 168.2960052  -7.1693044
  76.6135635 167.7930450  -6.2626572  77.4691467 169.6101227  -6.6129427
  77.7064285 170.2796173  -7.4397306  76.6579437 170.0453949  -6.0293374
  78.6827393 169.4132996  -5.6652489  78.5445480 168.5438995  -5.0224972
  79.5475998 169.2148895  -6.2982998  79.0541077 170.6199036  -4.7906570
  78.3622360 171.6553192  -4.8602743  80.0969086 170.5456390  -4.0896368
  75.6492004 168.5552063  -7.9823971  75.7280045 168.6661835  -9.2061148
  74.5070724 168.6276703  -7.3304243  74.5965271 168.4188538  -6.3463016
  73.2181320 168.9925995  -7.9628801  73.2973251 169.0615845  -9.0478086
  72.2644958 167.8375549  -7.6337237  72.3151321 167.7471619  -6.5486593
  71.2486343 168.1585083  -7.8641863  72.6061401 166.4606018  -8.2088213
  72.1070023 166.1010895  -9.4687452  71.5355225 166.8128967 -10.0459433
  72.4218445 164.8628387  -9.9748306  71.9171219 164.4937286 -10.8554153
  73.3079834 164.0016479  -9.3111906  73.5632553 163.0404510  -9.7323189
  73.7446213 164.3839111  -8.0486460  74.3361130 163.7169037  -7.4390154
  73.3750153 165.5957489  -7.4647942  73.7928467 165.8600464  -6.5046058
  72.6446915 170.3374329  -7.3816667  72.4835052 170.5391388  -6.1896453
  72.4577560 171.3042297  -8.2146835  72.4918442 171.1133270  -9.2058916
  71.9503403 172.6483002  -7.9416485  72.0680008 172.8663940  -6.8801904
  72.8105545 173.6074982  -8.8064051  72.6087189 174.6694031  -8.6659060
  73.8374023 173.4132080  -8.4966745  72.7330704 173.3518677 -10.3093624
  73.2289581 172.2310028 -10.9500351  72.7500000 172.2762299 -12.1996002
  72.9347763 171.4383392 -12.8554974  71.9790955 173.3630676 -12.3954153
  71.4907532 173.5150146 -13.2663593  71.9304428 174.0350342 -11.1671429
  71.2271271 174.8323059 -10.9771671  70.4331741 172.9083557  -8.2775345
  69.8467865 173.8622589  -7.7110262  69.7846451 172.0294037  -9.0545025
  70.2894974 171.3383636  -9.5908756  68.3213501 171.9863434  -9.2909193
  67.8629761 172.9567261  -9.4816370  68.1855087 171.5145569 -10.2640924
  67.5863037 171.2987823  -8.0963297  68.0041275 170.2137299  -7.6532025
  66.6182022 171.9956055  -7.4449039  66.2827301 172.8776093  -7.8049436
  65.9135208 171.5264587  -6.1975436  66.5968781 170.8791809  -5.6478672
  65.5222321 172.8080597  -5.4198895  64.8972855 173.4733276  -6.0156689
  64.9012680 172.5141754  -4.5736375  66.7313309 173.5937042  -4.8420024
  67.2909622 173.9476166  -5.7078304  66.3226852 174.4259644  -4.2688975
  67.5869370 172.7721252  -3.8826420  66.9401779 172.2987518  -3.1439102
  68.0015640 172.0262756  -4.5608044  68.6554108 173.5998383  -3.2349451
  69.5523453 173.7493896  -3.6745250  68.6349640 174.2655182  -2.0582917
  67.5311203 174.4329224  -1.4125463  66.7447815 173.9408875  -1.8121229
  67.5277481 174.8900299  -0.5119150  69.6768799 174.8581848  -1.5434718
  70.5233383 174.8705597  -2.0943396  69.6614227 175.5332489  -0.7923741
  64.7166138 170.6062469  -6.4543972  64.1413193 170.4670868  -7.5332193
  64.3037186 169.8518219  -5.4330778  64.7378693 169.9844971  -4.5308499
  63.1812668 168.8607025  -5.5604353  62.7770271 168.8546600  -6.5726895
  63.6452484 167.4217682  -5.3245401  63.9679260 167.2296295  -4.3012786
  62.6547585 166.3512878  -5.8155766  62.3533440 166.6064301  -6.8315258
  63.0448074 165.3427887  -5.6781850  61.7745056 166.3630981  -5.1728406
  64.8106003 167.1481323  -6.0853100  64.6888046 166.2489471  -6.3987007
  62.1038628 169.2817841  -4.5666881  62.3210335 169.3392029  -3.3847780
  60.9559021 169.5650024  -5.1037040  60.9084854 169.5555115  -6.1125460
  59.7483978 169.8350525  -4.2572412  59.9172707 169.2665253  -3.3427124
  59.6083488 171.3588409  -3.9447894  59.8788223 171.8691559  -4.8691955
  58.5939560 171.7113800  -3.7581887  60.3650093 171.7535095  -2.6922317
  61.4141006 171.4725494  -2.7848611  60.2526016 173.2730103  -2.4474583
  59.2031975 173.5662079  -2.4175766  60.7798653 173.6443176  -1.5686928
  60.6857185 173.8544312  -3.2613783  59.8022003 171.1620331  -1.3974816
  60.0933800 170.1121216  -1.3655168  60.3366623 171.7560577  -0.6561453
  58.7208252 171.2627869  -1.3048787  58.4624863 169.3252106  -4.9294734
  58.3620110 169.2398987  -6.1431499  57.5142708 168.8818970  -4.1223125
  57.6431808 169.0471954  -3.1343048  56.1091423 168.4072418  -4.4404850
  55.9782944 168.2696075  -5.5138159  55.9423637 167.0317841  -3.7228062
  55.6915321 167.1380768  -2.6673992  55.0340538 166.6177216  -4.1605654
  57.0708199 165.9679413  -3.9712925  57.8668251 165.2462921  -3.0566561
  58.5972137 164.4260254  -3.7822323  59.3924026 163.7839661  -3.4331686
  58.3081474 164.4948730  -5.0424647  58.6673050 163.8944397  -5.7708855
  57.2803116 165.4340515  -5.1775355  56.8882751 165.8622742  -6.0882192
  55.0487061 169.4371338  -3.9987867  55.2613297 170.2096863  -3.0359912
  53.8012161 169.4289093  -4.5389662  53.5928764 168.8474274  -5.3380775
  52.7391319 170.2386780  -3.9971769  53.1606026 171.2192078  -3.7757874
  51.6011314 170.4677582  -4.9847703  51.1398125 169.5324707  -5.3018117
  50.8496552 171.0784607  -4.4843321  52.0184860 171.3045197  -6.1580496
  51.8282471 172.5587006  -6.1157022  52.4212532 170.6987457  -7.1851525
  52.2907410 169.7330170  -2.6350496  52.3261566 168.5229645  -2.2996192
  51.8856392 170.6750641  -1.7341830  51.9258423 171.6255646  -2.0733688
  51.3781090 170.3600464  -0.4114704  52.1853600 169.8595886   0.1233110
  50.9769783 171.6215515   0.2625237  50.3326836 172.2255249  -0.3763737
  50.4186783 171.2928467   1.1390853  52.1896286 172.4617310   0.7595115
  53.2518806 171.8717499   1.1505680  52.2193108 173.6973572   0.8004485
  50.1761818 169.3670807  -0.4255964  49.3018951 169.3494415  -1.3102174
  50.1963425 168.5240631   0.5914257  50.8969193 168.6730499   1.3035375
  49.2330742 167.4343262   0.8798938  49.7409096 166.7257385   1.5341816
  47.9898033 168.0507202   1.5719261  47.7582741 168.9765930   1.0453688
  47.1481895 167.3807831   1.3959330  48.1487045 168.3838959   3.0406263
  48.7452736 167.5498505   3.7436917  47.5697975 169.4529724   3.4008002
  48.8433228 166.5839539  -0.3630936  47.7590332 165.9895630  -0.4127009
  49.6393547 166.5424652  -1.4135857  50.3707390 167.2364197  -1.4737163
  49.4917145 165.6392212  -2.5381594  48.4300461 165.4918518  -2.7362545
  50.1733704 166.2548218  -3.7534633  49.8546028 165.6990051  -4.6352549
  49.8502693 167.2910309  -3.8533266  51.5945435 166.1018677  -3.7661068
  51.9723091 166.7859039  -3.2084489  50.0070114 164.2165222  -2.1076207
  50.8527222 164.1659241  -1.2346656  49.4022560 163.1417999  -2.6209974
  48.7683411 163.2630157  -3.3978877  49.8505592 161.7782288  -2.3970928
  50.0607147 161.6459198  -1.3357589  48.7983513 160.7773743  -2.8182027
  47.8788414 161.1969910  -2.4101281  48.5494270 160.7872162  -3.8793559
  49.1578407 159.0931702  -2.2716248  48.9674416 159.4094543  -0.9876363
  51.1652641 161.6275330  -3.2125406  51.1588326 162.0893097  -4.3550191
  52.1510391 160.8442841  -2.7112331  51.9342422 160.4638977  -1.8010651
  53.3192024 160.4875946  -3.5157149  53.0555267 160.5564880  -4.5710955
  54.4313278 161.5545807  -3.3381495  54.8077888 161.4838104  -2.3176746
  55.3177490 161.1845551  -3.8533554  54.1352921 163.0047913  -3.6706026
  53.3076820 163.3456421  -3.0485296  55.0316391 163.5938568  -3.4765203
  53.7864227 163.2525177  -5.1404128  54.1718330 162.5200348  -6.0418420
  53.0195084 164.2361755  -5.5694742  52.7061081 164.1891022  -6.5284672
  52.6286774 164.9564056  -4.9790487  53.8322830 159.0261536  -3.2495654
  53.4359856 158.4880219  -2.2374368  54.6900787 158.4673462  -4.0803466
  54.8922653 158.8698883  -4.9843283  55.3300781 157.2095947  -3.8867142
  55.1298485 156.9265137  -2.8533332  54.7833786 156.1395569  -4.8137121
  53.7059021 156.0693817  -4.6646452  55.0682335 156.2114563  -6.3028460
  56.1377144 156.3254700  -6.4797854  54.7128410 155.3313141  -6.8387170
  54.5339203 157.1134033  -6.6013265  55.3790169 154.8037567  -4.3843460
  55.0207329 154.6088715  -3.3735237  54.9584007 154.0041351  -4.9940963
  56.4680214 154.7651672  -4.4104676  56.8192711 157.3898773  -4.0770488
  57.2594528 158.0559998  -5.0035515  57.6283607 156.8464966  -3.1091073
  57.1726303 156.3783722  -2.3388672  59.0974579 157.1190796  -2.8810611
  59.5214119 157.3676453  -3.8539872  59.2687416 158.3753510  -2.0233948
  58.9632874 158.0841217  -1.0184164  60.7187004 158.8967743  -1.9887106
  61.0266953 159.5046387  -2.8394380  60.8477745 159.5118103  -1.0981122
  61.4773331 158.1144562  -1.9654175  58.3386726 159.5637817  -2.3988936
  58.5802078 159.7524414  -3.4449186  57.3374977 159.1596985  -2.2490132
  58.4365463 160.8751068  -1.6304070  59.2334862 161.5375671  -1.9682349
  57.5282288 161.4689941  -1.7322344  58.5117722 160.6956940  -0.5579063
  59.8613548 155.9106598  -2.2674863  59.3210602 155.3042297  -1.3418863
  61.0508118 155.4819031  -2.7749159  61.6649742 155.9546661  -4.0260496
  61.9546852 157.0053253  -4.0094442  61.0313072 155.8140564  -4.9017158
  62.9843140 155.2242889  -4.1613889  63.8145866 155.8557434  -3.8451388
  63.1822662 154.8195496  -5.1539106  62.8859482 154.0194244  -3.2100456
  63.8435173 153.7019653  -2.7972751  62.4924240 153.2140808  -3.8302467
  61.8790321 154.4311829  -2.1327887  61.0745087 153.7062378  -2.0091062
  62.5105820 154.8665314  -0.7581646  62.9120903 155.9892883  -0.6140060
  62.5877914 153.8728027   0.1693649  62.1405716 152.9796906   0.0195305
  63.3519135 153.9586792   1.4079981  63.6103745 154.9937439   1.6314228
  62.5978546 153.4553223   2.6848991  62.1648636 152.4972229   2.3973510
  63.4099426 153.3088837   3.9967024  63.8883247 154.2243347   4.3448453
  62.8213425 152.9753876   4.8513551  64.1677704 152.5364990   3.8655400
  61.4269218 154.3767700   3.0061514  60.8344383 154.3511200   2.0915947
  60.7997513 153.9675293   3.7981586  61.7590141 155.3759460   3.2880442
  64.6289978 153.1998901   1.2143981  64.5347061 152.0318756   0.8403574
  65.7763519 153.7266235   1.7218374  65.9390335 154.7056580   1.9092141
  66.9958267 152.9021606   2.0173957  67.0651627 152.2830505   1.1229714
  68.2379761 153.7798309   2.0535069  68.0108719 154.5046692   2.8352540
  69.1678696 153.3022919   2.3623197  68.6870956 154.4757538   0.6893777
  67.8320770 154.9141541   0.1747471  69.5532532 155.6974335   1.0090219
  70.5167999 155.4215240   1.4374349  69.6897430 156.4042053   0.1905085
  68.9894409 156.3598480   1.6658626  69.4975662 153.4837036  -0.1985976
  68.9928970 152.5186005  -0.2429846  69.7913361 153.8865356  -1.1678874
  70.3994675 153.3002167   0.3853679  66.8751984 151.9642792   3.2845821
  66.6432877 152.5612640   4.3351378  67.0717468 150.6338806   3.2545216
  67.3457489 149.8348083   2.0853300  68.2945099 150.1570587   1.6562531
  66.5745621 149.9123688   1.3189396  67.4347916 148.4035339   2.5872965
  68.4719315 148.1169434   2.7614002  67.0468903 147.7217712   1.8304312
  66.5368271 148.4016418   3.8544147  66.7925797 147.6118317   4.5607462
  65.5098724 148.2796936   3.5100527  66.7512894 149.8107910   4.3957558
  65.7505112 150.1223907   4.6948385  67.6956253 149.9117279   5.5845027
  67.3050079 149.7616577   6.7431245  68.9950638 150.2161713   5.3326006
  69.2489243 150.3803864   4.3689184  69.9654541 150.4349365   6.4724412
  69.7205658 149.7719269   7.3022194  71.3174591 149.8476410   6.0434613
  71.5879974 150.4097443   5.1496224  72.0675278 150.1684875   6.7663422
  71.4413910 148.3595276   5.7802191  70.6899414 147.6578217   4.8590884
  71.0543442 146.3560028   4.9222636  70.5818710 145.5197144   4.4285126
  71.9429932 146.2559204   5.9425883  72.3159180 145.3325043   6.1109562
  72.2018814 147.4872894   6.4710808  72.9197693 147.7243652   7.2423315
  69.9823456 151.8060913   7.1878185  70.8067932 151.9267120   8.0955276
  69.1724396 152.7907410   6.6741500  68.6963654 152.5231628   5.8245301
  68.9821320 154.0748138   7.3810229  69.9208527 154.4476624   7.7907805
  68.4097061 155.1285095   6.4118013  67.4531555 154.7846985   6.0182285
  68.2902527 156.4981689   7.1444511  69.2849426 156.7625580   7.5033145
  67.9896317 157.3267059   6.5031624  67.5723038 156.3856964   7.9568615
  69.4044724 155.1979370   5.2565670  69.2288284 154.3387451   4.6092210
  69.1537399 156.0864868   4.6771669  70.4120865 155.2412567   5.6700158
  67.9189301 153.7881622   8.4717903  66.7714310 153.5544739   8.1908331
  68.3176727 153.9355316   9.7545185  69.2949829 153.8354645   9.9889402
  67.4478455 153.6803741  10.9782505  66.4178238 153.5020142  10.6694736
  67.8724518 152.3898621  11.7404251  68.8303986 152.6448059  12.1936722
  67.1442261 152.0747070  12.4877377  68.1957703 151.1612854  10.8707914
  67.3360367 151.1076202  10.2029076  69.0614853 151.3886414  10.2487259
  68.4738770 149.5866547  11.7096615  69.2586670 148.6224213  10.3892164
  70.1694260 149.0804749  10.0034447  69.5243607 147.6407013  10.7812996
  68.5272446 148.5788727   9.5822315  67.2877045 154.8521271  12.0061321
  66.3792496 154.8696594  12.8341503  68.1285324 155.8598633  11.8216715
  68.8580780 155.6977539  11.1422720  68.0654602 157.2077026  12.4498739
  67.6479950 157.0304718  13.4410439  69.4498520 157.8440552  12.7027197
  69.3362427 158.8156586  13.1835194  70.1469421 156.9208069  13.7680683
  70.4528503 155.9308167  13.4297934  71.0780487 157.3039093  14.1856537
  69.4587708 156.7689209  14.5996056  70.3053665 157.8880768  11.3947001
  69.6761398 158.1369781  10.5401716  71.0579987 158.6592102  11.5590210
  70.7327042 156.8868256  11.3401089  67.0521622 158.1327667  11.7176256
  66.7949448 158.0328979  10.5114584  66.4299164 158.9765778  12.5429811
  66.7640076 158.9347229  13.4952068  65.3847122 159.8646240  12.1013060
  64.8490677 159.2478638  11.3796473  64.5036469 160.1701660  13.2999773
  64.2606735 159.2206268  13.7768927  65.1415634 160.7849579  13.9349422
  63.2552681 160.9755859  12.9572382  63.5489006 161.8584900  12.3894644
  62.6835098 160.4393005  12.1998777  62.2960548 161.6091766  14.3298960
  62.4269600 160.2753906  15.5250492  63.4716606 160.2193604  15.8309393
  61.6681023 160.4248352  16.2931023  62.1845512 159.3010406  15.1008425
  65.9290848 161.1815186  11.4778309  66.5526810 162.0200653  12.1514788
  65.6510086 161.3491364  10.1762629  65.2982178 160.5325317   9.6979465
  65.9042816 162.5933380   9.4894295  66.8922806 162.9770203   9.7438726
  65.8299637 162.3350983   7.9673042  66.5341949 161.5304718   7.7557988
  64.8436203 161.9872284   7.6603632  66.1485138 163.5293884   7.0370622
  65.4051285 164.3075409   7.2101030  67.5845337 164.0220337   7.2412848
  68.3794022 163.2797699   7.1683583  67.8350754 164.7574310   6.4767518
  67.5844193 164.5198822   8.2109451  66.0861588 163.0778351   5.5403895
  65.0774918 162.7587585   5.2779746  66.4698181 163.8839264   4.9149866
  66.6738052 162.1643524   5.4492259  64.8843918 163.6702118   9.9975967
  63.6491814 163.4839325   9.9716187  65.3144989 164.9472198  10.2249422
  66.2992401 165.0715332  10.4118624  64.4646301 166.1514435  10.3961124
  63.4216995 165.8663177  10.2579031  64.7443314 166.8102264  11.7752275
  65.7675858 167.1857910  11.7714176  63.7647476 167.9898682  12.0107145
  62.7362213 167.6386414  12.0935993  64.1064148 168.4458618  12.9399261
  63.9175644 168.6898041  11.1892262  64.5923843 165.8441467  12.9708309
  65.3211823 165.0474701  12.8216534  64.9075089 166.4413452  13.8264799
  63.3077583 165.0736084  13.1999073  63.0553589 164.4325714  12.3552475
  63.3994713 164.4717560  14.1040382  62.4770241 165.7646637  13.3428640
  64.6930161 167.0794678   9.1792870  65.8849487 167.0976410   8.7791662
  63.7219849 167.7882080   8.5444336  62.2762299 167.8593597   8.7139683
  62.1084747 168.4322968   9.6259432  61.8904495 166.8460846   8.8259830
  61.7084885 168.4897919   7.4162059  60.8236008 169.0654907   7.6875877
  61.5605507 167.8285980   6.5623679  62.8790436 169.4004669   7.0903854
  62.8752632 170.3032684   7.7011499  62.8836937 169.7097015   6.0451818
  64.1970825 168.7228546   7.4288764  64.4590530 168.1383057   6.5469637
  65.2946625 169.6455688   7.9034925  65.4315796 170.0278931   9.0826845
  66.0480881 170.1315308   6.8687015  65.7885513 169.9509735   5.9094644
  67.1760712 171.0430298   7.1325297  67.3567657 171.5937042   6.2093711
  66.9113007 171.7408752   7.9268975  68.4830322 170.3185577   7.5986934
  69.5829620 170.9142761   7.5139041  68.3638763 169.0758057   8.1046915
  67.4374847 168.6748352   8.0713243  69.5663834 168.2301025   8.6319208
  70.1712036 168.8711700   9.2732744  69.0228882 167.1004639   9.5539188
  68.4047852 167.5721283  10.3178368  68.3251648 166.4763184   8.9955959
  70.0980530 166.3092957  10.2976408  70.7439804 165.8672791   9.5390224
  70.7320480 166.9495544  10.9110098  69.4901276 165.1801605  11.1565008
  68.2820892 165.0975647  11.4899092  70.2517242 164.1453705  11.5405493
  69.9184036 163.5267639  12.2660265  71.1985626 163.9857025  11.2273159
  70.2797852 167.7215729   7.4321680  69.7064514 167.0149536   6.5919905
  71.6047211 167.8096771   7.3759298  72.0753860 168.4062805   8.0412388
  72.4410477 167.1449738   6.3471065  71.9414597 167.1199951   5.3786583
  73.7382507 167.9236298   6.1311307  74.1516953 168.2410126   7.0884323
  74.7994766 167.1415558   5.3421688  74.2264786 166.7689819   4.4930720
  75.6423187 167.7932434   5.1119151  75.1565399 166.3057709   5.9438858
  73.4446869 169.0887451   5.3354936  74.2373657 169.2529144   4.8194332
  72.5914230 165.6688080   6.7877326  72.8250656 165.3303375   7.9819808
  72.5969696 164.7728882   5.8150921  72.3154678 165.1316223   4.9138875
  72.7630997 163.3046265   5.9354539  73.0378189 163.1564789   6.9798164
  71.3112488 162.7557373   5.7369485  70.6340561 163.2314911   6.4462891
  70.9719772 162.8704681   4.7074685  71.1160736 161.2538910   6.0565534
  71.7451782 160.6284332   5.4232030  71.4442520 160.8411713   7.4742365
  70.8512039 161.3129730   8.2576895  71.3311768 159.7620544   7.5782986
  72.5120621 161.0108948   7.6123867  69.6313705 160.8799133   5.8073101
  69.2768860 161.2795258   4.8571696  69.5968399 159.7995911   5.6665802
  68.9860611 161.2837677   6.5874290  73.8268280 162.7472076   4.9298043
  73.5036621 162.4508209   3.8110967  75.0536270 162.5635223   5.3654718
  75.5245132 163.0643311   6.7124152  74.8537216 162.7147522   7.4972291
  75.5876007 164.1511688   6.6583037  76.9031143 162.4072418   6.8695898
  76.8514862 161.4224091   7.3338509  77.5971985 163.0654449   7.3921847
  77.4091797 162.1546326   5.4594803  78.1047516 161.3234863   5.3433847
  77.7279968 163.1163025   5.0574245  76.1322861 161.8088837   4.7219286
  76.2025528 162.1011810   3.6742055  75.8028793 160.3314667   4.7623167
  75.3691177 159.8825989   5.8372860  76.0836868 159.5838165   3.6943083
  76.2061005 160.0135040   2.7885089  75.8550034 158.1208344   3.6675091
  75.8089447 157.7743378   4.6999440  74.4874878 157.8158722   2.9885492
  74.5213242 158.1933289   1.9665495  74.3687134 156.7368011   2.8905916
  73.2325897 158.2867584   3.7458823  73.2839813 159.3344727   4.0420871
  72.0192795 158.1755981   2.8027861  72.0685043 157.2345581   2.2549303
  71.1585464 158.3535614   3.4474361  72.0587692 158.9919586   2.0816181
  72.9194946 157.3688812   4.9243326  73.8463287 157.2353821   5.4822416
  72.1721649 157.8056183   5.5868020  72.6361465 156.3684540   4.5972972
  76.9552307 157.3535461   2.9083486  77.7004318 157.9346924   2.1301675
  77.0375900 156.0166473   3.0415385  76.4091797 155.6095886   3.7194080
  78.0089111 155.2205505   2.3482888  78.2383499 155.6314850   1.3651363
  79.3382263 155.1792297   3.1056800  79.6735611 156.2158051   3.0713346
  79.0587158 154.8872986   4.1179819  80.4918289 154.2461853   2.6724544
  80.3623428 153.2114716   2.9897921  80.5374298 154.2425842   1.5834140
  81.9035263 154.5921631   3.1436653  82.1373749 155.6273346   3.7803841
  82.8612900 153.7769165   2.7264922  83.8243484 153.9203796   2.9949095
  82.5270920 153.0380249   2.1244564  77.4073181 153.7888489   2.0974128
  77.0520477 153.0550995   3.0002196  77.0464249 153.5142822   0.7952783
  77.2803879 154.1727905   0.0660756  76.1617203 152.4325104   0.4602805
  75.8824844 151.9517975   1.3978521  74.8864517 152.9944458  -0.2569985
  75.1907959 153.1994171  -1.2833804  74.1612930 152.1842804  -0.3335848
  74.2035904 154.2016907   0.3398324  74.9062042 155.0334473   0.3908504
  73.0990524 154.7301636  -0.5663357  72.3858337 153.9147491  -0.6868730
  72.7080002 155.6495667  -0.1305912  73.5797577 154.8368988  -1.5387738
  73.7264023 153.8572083   1.7637448  74.5461578 153.5029449   2.3887248
  73.1794815 154.6792145   2.2255704  73.0584335 152.9960938   1.7437959
  76.9423828 151.4754181  -0.3845428  77.4923935 151.8401489  -1.4468263
  76.8882294 150.1568146  -0.0444974  76.2534027 149.9639740   0.7170191
  77.8488159 149.1320648  -0.5305059  78.2858963 149.4690857  -1.4704399
  79.0475311 149.0200653   0.4333012  79.7840729 148.3042450   0.0683192
  79.5006332 150.0112762   0.4507551  78.8332520 148.6736145   1.8872947
  78.1611938 149.5589752   2.7910726  77.9939346 150.6064301   2.5878930
  77.9314346 149.1055603   4.0988383  77.4582596 149.8027191   4.7744775
  78.2140198 147.7904968   4.4963398  78.0028839 147.4124298   5.4857268
  78.7988815 146.8859863   3.5376954  78.8693237 145.8247528   3.7254152
  79.0234985 147.3286591   2.2694333  79.2768402 146.6097717   1.5043020
  77.1937256 147.7005005  -0.7145848  77.7674255 146.9919891  -1.5595210
  76.0724716 147.3897400  -0.0247235  75.8227692 148.0013275   0.7392851
  75.2083511 146.2921295  -0.5236310  75.8954468 145.4474335  -0.5735902
  74.1436157 145.8229065   0.4121468  73.4777374 146.6571655   0.6328780
  73.4936295 145.0955505  -0.0742360  74.7481689 145.1909180   1.6318884
  74.7434845 143.8074951   1.9320872  75.4162445 143.6421661   3.0808563
  75.6865845 142.6991119   3.5324714  75.8726578 144.8350067   3.4402134
  76.5350647 144.9072723   4.1992221  75.4379044 145.8485565   2.6049771
  75.4089813 146.8970184   2.8624320  74.7348022 146.6323853  -1.9419258
  74.3752670 147.7929535  -2.1634500  74.5502014 145.5920105  -2.8530831
  74.8783646 144.1719666  -2.6717813  74.3615189 143.8548279  -1.7660233
  75.9442749 143.9454346  -2.6469150  74.3015976 143.4801178  -3.8940387
  73.2491608 143.2214661  -3.7774923  74.8408127 142.5864410  -4.2081838
  74.4657745 144.5153809  -5.0175428  73.6908875 144.4510498  -5.7814188
  75.4114532 144.5141754  -5.5595717  74.4205322 145.9201508  -4.3250155
  75.2297897 146.5373383  -4.7152581  73.0437317 146.5683594  -4.6186337
  72.9856949 147.5040588  -5.4660921  72.0001144 146.1065674  -3.9874127
  72.1912308 145.3297272  -3.3708861  70.6552124 146.7644348  -4.0884271
  70.4319916 146.7998199  -5.1547413  69.5257797 145.8905945  -3.4747508
  68.5974350 146.3229675  -3.8480163  69.6887741 144.9113464  -3.9248908
  69.3816376 145.7578430  -1.9371766  69.2637024 146.7433929  -1.4867532
  68.4048767 145.3602295  -1.6616392  70.4046936 144.9248810  -1.1280333
  71.4765701 144.5665436  -1.5144584  69.9908752 144.5199127   0.0397529
  70.7166138 144.0445862   0.5569347  69.1164169 144.7676697   0.4802526
  70.6838226 148.1947784  -3.6346135  69.8751831 148.9964600  -4.1715283
  71.4365768 148.6506653  -2.6673832  71.9864502 147.9919281  -2.1346517
  71.4159317 150.1151733  -2.2631993  70.3976898 150.4947662  -2.3480284
  71.9405441 150.2951965  -0.8586103  72.9983749 150.0325317  -0.8487697
  71.7597733 151.3249207  -0.5502342  71.2030792 149.4738159   0.1920252
  70.1325302 149.6534119   0.0931181  71.4648895 148.4431305  -0.0472537
  71.7830582 149.8512421   1.5609179  73.0024719 149.7069092   1.8484952
  70.9515839 150.3195953   2.4265118  72.2398987 151.0089264  -3.1889131
  71.7984848 152.1053467  -3.4140761  73.3782959 150.4984131  -3.6733582
  73.6272812 149.5786743  -3.3384125  74.0126419 151.0136871  -4.8985820
  74.4006577 152.0026398  -4.6546159  75.1652069 150.0780182  -5.2594395
  74.8670197 149.0422363  -5.4216881  75.8977203 150.5806732  -6.5020094
  76.2558212 151.5940399  -6.3204446  76.6656723 149.8255005  -6.6694894
  75.2279129 150.4683838  -7.3545632  76.2565079 149.9334412  -4.1697388
  75.9512863 149.5167542  -3.2098849  77.0460129 149.2718964  -4.5263138
  76.6318512 150.9436798  -4.0065274  73.0087509 151.1056213  -6.0330610
  72.8221054 152.2178650  -6.5439320  72.2863617 150.0427551  -6.4567666
  72.5842667 149.1348114  -6.1296768  71.3774033 150.0801544  -7.6394677
  71.9660263 150.3855896  -8.5045338  70.8577194 148.6750793  -7.9079890
  71.6934357 147.9971466  -8.0814295  70.2911224 148.2727051  -7.0682502
  70.1775055 148.7658386  -9.1184282  69.4039383 148.2013397  -9.0511112
  70.2696609 151.1625366  -7.5587316  70.0700607 151.9823608  -8.4214563
  69.5507126 151.0781250  -6.4237161  69.8099289 150.4095764  -5.7124066
  68.4701157 152.0119324  -6.1642094  67.6586380 151.8811493  -6.8800979
  67.7731934 151.6870270  -4.8323030  67.4809723 150.6381531  -4.7816243
  68.5400620 151.9372559  -4.0992279  66.4806213 152.4245148  -4.5250721
  65.7729874 152.1581726  -5.3102012  66.1341705 151.9466705  -3.6087017
  66.4539795 154.2082520  -4.2336335  66.9970016 154.3357391  -2.5767987
  68.0359650 154.0061188  -2.5764141  67.0097885 155.3701477  -2.2334104
  66.3759613 153.6509857  -1.9992750  68.8857269 153.5169525  -6.2594371
  68.1404648 154.3315735  -6.9351864  69.9684677 153.9974823  -5.6333294
  70.4818115 153.3462677  -5.0566888  70.3525314 155.3784180  -5.8030534
  69.5115128 156.0549011  -5.6508975  71.3222885 155.8287048  -4.6825008
  71.6156158 156.8716736  -4.8020744  70.6896286 155.6448364  -3.2736084
  70.6795578 154.5798187  -3.0417719  71.3946609 156.1894379  -2.6455665
  69.6705246 156.0309906  -3.2938423  72.7205811 155.1692352  -4.7994108
  73.1072311 155.1366882  -5.8180070  73.4219055 155.6743774  -4.1352816
  72.7373199 154.1033478  -4.5719581  70.9418411 155.6781006  -7.1222324
  70.7941284 156.7942810  -7.5988078  71.6257172 154.7332611  -7.8075800
  71.7318344 153.8156128  -7.3992314  72.1357574 154.8445740  -9.1585007
  72.8264160 155.6837311  -9.2416706  72.8862610 153.5789185  -9.6415911
  73.6930923 153.3859711  -8.9345627  72.1370239 152.7920532  -9.5543795
  73.3915863 153.6531677 -11.0296259  72.6065903 153.7787628 -11.7753534
  73.8982849 154.6095276 -11.1589832  74.2079391 152.4538879 -11.4739532
  73.4796371 151.6436157 -11.4400835  74.5707550 152.5031738 -12.5006132
  75.4853516 152.2476501 -10.6644316  76.0289688 153.0418091 -10.3580122
  76.0669250 151.0631104 -10.3543968  75.5259018 149.9002228 -10.5299253
  74.6552582 149.8283691 -11.0367918  76.0606995 149.1069336 -10.2062321
  77.1367722 150.9871216  -9.6439857  77.5864792 151.8726807  -9.4605331
  77.5518188 150.0724030  -9.7494717  70.9893646 155.2539825 -10.1019726
  71.0453796 156.3361816 -10.6601963  69.9072113 154.5052490 -10.1417427
  69.8430634 153.7739716  -9.4480381  68.7617645 154.6421967 -11.0731850
  69.0744629 154.8382263 -12.0988016  67.9120331 153.3083191 -11.0861673
  67.6024704 152.9205170 -10.1156645  67.0048599 153.4996796 -11.6593237
  68.6404648 152.2185822 -11.8493719  68.4349518 152.1074371 -13.0479813
  69.4863892 151.4174805 -11.1976080  70.0417252 150.7708588 -11.7394400
  69.6217651 151.5952759 -10.2126398  67.8892517 155.8814545 -10.7546883
  67.2203217 156.3677673 -11.6334019  67.8912506 156.3441925  -9.5368853
  68.4463120 155.7653656  -8.9229040  67.2984772 157.6151123  -9.0433149
  66.2689743 157.7626495  -9.3695774  67.1258011 157.4524841  -7.4473114
  66.4598923 156.6080017  -7.2697673  68.0612488 157.3077698  -6.9068522
  66.5348511 158.7430573  -6.7778382  67.1828613 159.6121826  -6.8910241
  65.0923386 159.0794220  -7.1384401  64.4826965 158.1793518  -7.0589256
  64.6600723 159.8425140  -6.4911780  64.9809494 159.5684814  -8.1061783
  66.5343857 158.5061340  -5.2495623  67.4620972 158.1136169  -4.8331666
  66.3007202 159.3989105  -4.6695242  65.8883820 157.6435852  -5.0858641
  68.1407471 158.9021606  -9.4080448  67.5927429 160.0199890  -9.5520420
  69.4820862 158.8000488  -9.5380564  69.8665314 157.8728638  -9.4257288
  70.3315887 159.9826965  -9.7624836  69.9447327 160.7548523  -9.0974827
  71.8090363 159.6943512  -9.3294773  71.7927399 158.7153015  -8.8506298
  72.7483292 159.4736938 -10.4896278  72.8663559 160.4266205 -11.0054808
  73.7370377 159.2353058 -10.0975304  72.4191437 158.6606598 -11.1367054
  72.3442383 160.7192230  -8.3559542  73.4324646 160.6604919  -8.3355141
  72.1324539 161.7318268  -8.6993170  71.7487488 160.6508942  -6.9345455
  72.1718292 159.7821960  -6.4301205  71.9979553 161.5743256  -6.4117880
  70.6626053 160.5677643  -6.9729834  70.1857605 160.5375824 -11.1814232
  70.5487595 161.7035370 -11.4768515  69.5459518 159.7536011 -12.0253782
  69.2661057 158.8331146 -11.7179766  69.0699387 160.1521149 -13.3810024
  69.7800903 160.8287506 -13.8563423  69.0564575 158.9810333 -14.3533545
  68.8153076 158.0934601 -13.7684174  68.2720413 159.1155396 -15.0981331
  70.3789597 158.7222137 -15.1496248  70.2699585 157.7826233 -15.6912727
  70.4227905 159.5084686 -15.9032803  71.6044769 158.6839600 -14.3235588
  72.4438705 159.5392761 -14.2535334  71.8383865 157.6005707 -13.6039820
  72.6676254 157.6384430 -13.0286274  71.2661285 156.7691040 -13.6394711
  67.6809540 160.9202576 -13.3303833  67.1992264 161.5185699 -14.2956581
  66.9313202 160.9055481 -12.1555080  67.4011612 160.5542908 -11.3333359
  65.5923080 161.5145569 -11.9971523  65.5322418 162.2907410 -12.7600641
  64.5319290 160.4247589 -12.3294735  63.5384674 160.8257599 -12.1286478
  64.5671463 160.2474823 -13.4043846  64.7377548 159.0194397 -11.6914520
  65.6710968 158.5798492 -12.0432148  64.9164886 159.2804260 -10.6483612
  63.4817848 158.0999908 -11.8720598  63.3744392 157.3593292 -11.0795965
  62.6277199 158.7735443 -11.8012609  63.4498940 157.3824463 -13.1806879
  63.0267143 157.9039764 -14.0391960  64.4359360 157.0229797 -13.4749622
  62.5938301 156.1304169 -13.0888233  61.6837997 156.4188690 -12.7590694
  62.5141640 155.6775055 -13.9880590  62.8646164 155.4904327 -12.3558817
  65.3544312 162.3677216 -10.6982203  65.9887695 163.3968964 -10.5320320
  64.4183197 162.0090179  -9.8690062  63.9667473 161.1090088  -9.9475155
  64.0260773 162.9183960  -8.6982937  63.9191246 163.9350739  -9.0764742
  62.6824951 162.3894196  -8.0752678  62.2759247 161.5823517  -8.6847286
  62.9004974 162.1065826  -7.0454226  61.4780312 163.3939362  -8.1520157
  61.6277161 164.4458923  -8.8499556  60.4721603 163.2040405  -7.4383254
  64.9291077 163.1122589  -7.4852777  64.7718201 164.0937653  -6.7634430
  65.9224396 162.2618408  -7.2696099  66.0794907 161.5480499  -7.9667077
  66.9661789 162.3448029  -6.2068591  67.5364761 161.4159393  -6.1979294
  67.9394684 163.4904022  -6.4475961  67.4039841 164.4273987  -6.6006012
  68.6219406 163.6759644  -5.6182041  68.7206497 163.2234039  -7.7217889
  69.2879333 162.3076477  -7.5553555  68.0822906 163.0040741  -8.5776491
  69.6405487 164.3051147  -8.1821556  70.3401337 164.5004883  -7.3694339
  70.3388519 163.9244537  -8.9275255  68.8995667 165.5099792  -8.6458197
  68.4865036 165.4349365  -9.5644321  68.6688766 166.5724792  -7.9143496
  69.0025940 166.7639313  -6.6727047  69.6201782 166.1268768  -6.1901464
  68.7216034 167.6080475  -6.1945791  68.0210953 167.5674896  -8.4282951
  67.7263412 167.5535278  -9.3942299  67.8615494 168.4541016  -7.9716239
  66.4046097 162.4534760  -4.7261415  67.1871490 162.4125977  -3.7251949
  65.1452789 162.2726593  -4.5052485  64.5436478 162.3764954  -5.3098335
  64.4870377 162.0415039  -3.1548100  65.1688995 162.4069519  -2.3869517
  63.2079163 162.8111420  -2.8041494  62.8417854 162.4349823  -1.8488773
  63.4908676 164.3288116  -2.6678371  64.3115845 164.6724854  -3.2974539
  62.5687447 164.7660370  -3.0507586  63.7099190 164.6222382  -1.6411793
  62.1669846 162.5991364  -3.7723670  61.7439766 161.7377167  -3.7973092
  64.4488525 160.5491638  -2.8483763  63.7679367 159.7662659  -3.5304987
  65.1283951 160.1428528  -1.7727859  65.7605057 160.7524719  -1.2738714
  64.6986694 158.9493408  -1.1015495  63.9538727 158.4473572  -1.7191217
  65.9456329 158.0189972  -1.0243894  65.5476227 157.0896759  -0.6169050
  66.2760773 157.8042297  -2.0406480  67.0732117 158.5373230  -0.1372538
  68.2048035 159.1232147  -0.7605346  68.0951004 159.3322144  -1.8144243
  69.2558441 159.5631714   0.0607021  70.0950546 160.0981445  -0.3587470
  69.1955872 159.5041809   1.4943449  69.7910767 160.1433411   2.1293821
  68.1091385 158.8200836   2.1185954  68.1135254 158.5655975   3.1681798
  67.0519257 158.3665161   1.2839727  66.1974106 157.8711700   1.7208060
  64.0001297 159.3110809   0.1748106  64.3450699 160.3527985   0.7710952
  62.9811325 158.5327759   0.5810019  62.9344559 157.6177521   0.1559837
  62.3615646 158.6643372   1.8850920  62.2749443 159.7273712   2.1099329
  60.9705505 157.9630585   1.8162700  61.0435638 156.9529572   1.4132178
  60.4178314 157.9308319   2.7551856  60.3462372 158.4902649   1.0948918
  63.2624283 158.0799408   3.0438037  63.7830925 156.9895782   2.9171379
  63.2942429 158.7385864   4.2087607  62.8233604 159.6240997   4.3280630
  63.8753586 158.2810974   5.4628186  64.3402557 157.2982941   5.3849306
  64.9657898 159.2121735   6.0042529  64.6279221 160.2303162   6.1974311
  65.5129166 158.5985260   7.3723664  65.8533936 157.5631256   7.3832841
  66.3072433 159.2342834   7.7634730  64.7736816 158.7565613   8.1576452
  66.0162811 159.2556152   4.8908677  65.6517105 160.0333099   4.2197680
  66.9092560 159.7025452   5.3278484  66.1833954 158.2382355   4.5371547
  62.7033882 158.1969604   6.4715872  61.8494453 159.0944214   6.4363532
  62.6028824 157.1398926   7.2430315  63.3628883 156.4817200   7.3395672
  61.4056473 156.9234924   8.1078176  60.5941277 157.5874329   7.8099742
  60.8938675 155.5016327   7.8708572  61.8010788 154.9147797   7.7271008
  60.4486923 155.1529083   8.8026867  59.9737282 155.2221680   6.6422129
  60.4616623 155.5557404   5.7263761  59.7468910 153.7473297   6.4905214
  59.1446419 153.2694397   7.2631874  59.2704201 153.5539856   5.5294294
  60.7413368 153.3034973   6.4437294  58.6149292 155.9268036   6.6444201
  58.8211098 156.9969482   6.6635098  57.9669495 155.8332367   5.7729430
  58.0359535 155.6121216   7.5126734  61.7659836 157.1636963   9.6573677
  62.8559456 156.8122559  10.0937843  60.8777275 157.8291016  10.3384438
  60.0840454 158.2335510   9.8624287  60.7411499 157.7330475  11.7563219
  61.7962799 157.7873230  12.0243893  60.0697670 159.0163116  12.3534460
  59.0157928 158.7845917  12.5069189  60.4012566 159.1875610  13.3775978
  60.3314705 159.8550568  11.7083740  60.2599449 156.3566742  12.2698345
  59.0814819 156.1253967  12.5570641  61.1481400 155.3835602  12.3196411
  62.0934219 155.6138306  12.0484962  60.7634315 154.0814209  12.9469061
  59.8902512 153.6828461  12.4303875  61.9361191 153.0473022  12.8283663
  62.8677559 153.3920898  13.2769995  61.6285172 152.0745850  13.2121820
  62.2925186 152.7898865  11.3642464  61.4297142 151.9467163  10.6069803
  60.5657768 151.5043030  11.0805607  61.6161423 151.7359314   9.2589197
  60.9275322 151.1227722   8.6965694  62.7403030 152.3018646   8.6504726
  62.9581490 152.0609894   7.3518815  62.2751389 151.4579468   7.0495114
  63.5303192 153.2476654   9.3546667  64.3883133 153.6846924   8.8655348
  63.3767014 153.4645538  10.7356443  63.9653320 154.1779327  11.2933121
  60.3049240 154.0580139  14.4142895  61.1240005 154.1881714  15.3327475
  58.9602089 153.9726257  14.6558523  58.3421669 153.7141571  13.8999939
  58.2991714 153.8538055  15.9563217  58.7690315 154.6434326  16.5427017
  56.8275681 154.2930756  15.7180233  56.3482094 154.4901123  16.6769257
  56.7745514 155.1929016  15.1051617  56.0998573 153.2644196  15.0390005
  55.1897202 153.5641785  14.9807262  58.4352303 152.5571442  16.7283764
  58.3497849 152.6655579  17.9624138  58.8034248 151.4032288  16.1038685
  58.7373886 151.5023041  15.1009111  59.5657272 150.2823486  16.6113701
  60.1089172 150.6407318  17.4857883  58.5495338 149.2562408  17.1565895
  57.9582710 149.7702484  17.9144211  57.8657761 148.8421783  16.4155502
  59.1696701 148.0354309  17.7722740  59.9718208 147.2961273  17.2272091
  58.8141022 147.7397461  19.0137444  59.1053467 146.8432617  19.3764820
  58.0766258 148.2985382  19.4187012  60.5297737 149.7681427  15.5480213
  60.0159607 149.1996918  14.5500431  61.7890587 149.7937927  15.7369022
  62.1472359 150.2598572  16.5582333  62.7241592 149.4428711  14.6353865
  62.4521751 149.7931519  13.6396847  64.0151596 150.2500916  14.8646822
  63.7964020 151.3169556  14.8193598  64.5609589 149.9482422  16.1935539
  64.8404312 148.8967438  16.2594185  65.4548111 150.5507660  16.3550873
  63.8835526 150.2433014  16.9949055  65.1833801 149.9522552  13.8782940
  64.8635406 150.2468872  12.8787985  66.0770874 150.5237885  14.1287451
  65.3391953 148.8735657  13.8948526  62.8473854 147.9415283  14.6066685
  63.2577553 147.4668579  13.5846233  62.5273972 147.1881561  15.6766872
  62.0342102 147.5764771  16.4679356  62.6787605 145.7063141  15.5817451
  63.6210594 145.4939423  15.0766983  62.6232185 145.1363831  17.0025444
  63.2590904 145.6011810  17.7560177  61.5932732 145.3075562  17.3156281
  63.0262566 143.6733093  17.0619659  62.6706123 143.1886749  16.1527081
  64.0939789 143.6166687  17.2737732  62.3937111 143.0295715  18.2923107
  62.7247353 143.5324860  19.2009430  61.3246002 142.9646759  18.0900803
  62.9712372 141.6318970  18.4129200  63.8209953 141.5076294  18.9444923
  62.4846191 140.5045013  17.9630947  61.4065590 140.3383942  17.1969814
  60.9718094 141.2004852  16.9005108  61.0249290 139.4454041  16.9194775
  63.0255280 139.3478394  18.3453026  63.8003197 139.2629242  18.9876289
  62.7509995 138.4524689  17.9671154  61.5990639 145.1324310  14.6805611
  61.8449745 144.2287140  13.8585339  60.3995934 145.6804199  14.7980633
  60.2234879 146.2212067  15.6327124  59.2540817 145.2557526  14.0105247
  59.3438759 144.2194519  13.6848021  58.0062218 145.4712219  14.8831892
  58.2576065 146.4577789  15.2725801  57.0905151 145.5278778  14.2946520
  57.7973709 144.4888763  16.0679073  58.4340706 144.7667999  16.9078331
  56.7694206 144.5790253  16.4190426  58.1471634 143.0441742  15.7012739
  57.3906021 142.4045105  14.9993753  59.1739769 142.5340576  16.2450981
  59.0801163 146.0257416  12.6985264  58.2268486 145.6785889  11.8831329
  59.8820381 147.0776978  12.5234118  60.6090736 147.1612396  13.2194977
  59.8522911 148.0316010  11.3737755  60.4038582 148.9369507  11.6272097
  60.4976997 147.3637238  10.1168137  59.9549942 146.4654388   9.8224392
  60.4576683 148.0318298   9.2565155  61.8593559 146.7877502  10.2914677
  62.4385300 147.3854980  10.9952765  61.7753105 145.7735596  10.6819191
  62.7118416 146.7528229   9.0295420  63.5051575 146.0182190   9.1677513
  62.0895691 146.3262939   8.2428093  63.2681046 148.1457672   8.7479315
  62.7814789 148.9220123   9.1730862  64.4674301 148.3140259   8.2221146
  65.1573181 147.3936615   7.6544919  64.6256790 146.5503540   7.4923306
  65.8968201 147.6336823   7.0098071  65.0977325 149.4769135   8.3121338
  64.6526642 150.3054352   8.6803083  65.9344711 149.6513519   7.7740459
  58.4311142 148.5924377  11.2281313  57.8342667 148.6149902  10.1388788
  57.8632088 149.0496063  12.3317003  58.4518967 148.9267273  13.1431494
  56.7764091 150.0573425  12.4403820  56.0287514 149.8581085  11.6726427
  56.1049767 149.7910614  13.8352699  56.7888069 149.9380341  14.6712561
  55.2888756 150.5056458  13.9423246  55.5546341 148.3674164  13.9909925
  55.1557121 148.0821686  13.0175447  56.4053574 147.7277069  14.2258387
  54.5207176 148.1349792  15.0870895  54.5658760 148.7869263  16.1531925
  53.6664124 147.2083282  15.0015430  57.2874603 151.5047760  12.3391171
  58.2950592 151.8701019  12.9944534  56.5852089 152.2895508  11.5054512
  55.9024048 151.8383484  10.9135990  56.7807655 153.7857666  11.2950449
  56.9929466 154.2205658  12.2717838  57.9105492 153.9827271  10.2221031
  57.5994263 153.6433563   9.2341156  58.0604820 155.0557251  10.1024733
  58.8116112 153.5428009  10.6494818  55.4907532 154.3919983  10.6989069
  55.0051231 153.9345093   9.6421843  55.0202484 155.5118408  11.2652283
  55.5321274 155.8257141  12.0773668  53.9459915 156.1663513  10.6698999
  53.4012794 155.5919495   9.9205961  52.9449043 156.5364990  11.8070326
  53.5502090 157.1722565  12.4531994  52.0647774 157.0171509  11.3799019
  52.4675865 155.2989044  12.5359116  51.7621155 154.2843933  11.9890013
  51.4818077 153.3923950  12.9552536  50.9837914 152.4408569  12.8414450
  51.9167099 153.9239960  14.1288414  52.0229568 153.4379120  15.0077820
  52.5537910 155.1191406  13.8845968  52.9879951 155.8233490  14.5788364
  54.4152412 157.4770813   9.9535465  53.5883980 158.0914001   9.2797585
  55.6703949 157.9690094  10.0805664  56.3324471 157.5073700  10.6877575
  56.1462708 159.2657776   9.4932194  55.5500641 159.4173889   8.5934105
  55.9188271 160.3445282  10.5175524  56.5449753 160.1002655  11.3756742
  56.1986656 161.3175201  10.1137362  54.4787025 160.5198059  11.0181112
  53.6606865 161.4488831  10.3723192  54.0017509 161.9364777   9.4710245
  52.3858910 161.7463226  10.8426056  51.8315239 162.5082092  10.3147812
  51.8880005 161.1614838  11.9984837  50.8524933 161.2675629  12.2863636
  52.7107544 160.2678680  12.6741228  52.3729401 159.7972412  13.5856018
  53.9877930 159.9744568  12.1893101  54.6043510 159.2974396  12.7619438
  57.6146393 159.3182526   8.9975367  58.3895340 158.4105988   9.1502199
  57.9845238 160.5138702   8.4797440  57.2657700 161.2200012   8.4099760
  59.3334694 160.6942444   7.9971952  60.0421638 160.6086273   8.8209181
  59.4913330 159.9421234   7.2242227  59.6361504 162.0343781   7.3787422
  58.8812599 162.9273071   7.3806186  60.8139648 162.0314636   6.6982574
  61.3699570 161.1883087   6.7051220  61.3477478 163.1774902   5.8687887
  60.5302887 163.8695374   5.6664448  62.2725372 164.0643768   6.7320175
  62.9335251 163.3889008   7.2750902  63.0919571 165.0762787   5.9437609
  62.4284592 165.6988068   5.3434834  63.5475235 165.6876068   6.7227683
  63.8090858 164.5740814   5.2944379  61.5153770 164.8080444   7.7441664
  60.9850121 164.1581421   8.2110052  61.9662895 162.8076782   4.5332484
  62.5689545 161.7721710   4.3995094  61.7417259 163.6186981   3.4636269
  61.2032928 164.4722443   3.5043786  62.2767944 163.2920685   2.0737967
  62.2957649 162.2077637   1.9642780  61.3914948 163.8331757   0.9727914
  61.9248657 163.6755829   0.0353597  60.0303841 163.2808685   0.8562338
  59.3067207 163.8047333   1.4807156  59.7477341 163.2295685  -0.1952307
  60.0405998 162.2611694   1.2412235  61.1847687 165.2413025   1.2261114
  61.9867439 165.6625366   0.9083110  63.6967354 163.8452606   1.9614090
  63.9654236 165.0544128   1.7408586  64.6939011 162.9660034   1.8503623
  64.4139938 162.0116882   1.6741709  66.1067429 163.3287201   1.6008590
  66.4296570 164.1916809   2.1832082  67.0010452 162.2080383   2.1570711
  66.7719955 161.2675171   1.6560073  68.0427170 162.4817505   1.9894295
  66.7908859 162.0808258   3.2190280  66.3469238 163.5643311   0.0616473
  66.6712799 162.6210327  -0.6253746  66.4645309 164.8247833  -0.3813569
  66.3989716 165.6608276   0.1815109  67.0901184 165.0221710  -1.7148985
  66.7359390 164.2595062  -2.4084375  66.6842804 166.4227295  -2.2350793
  65.6031494 166.4430695  -2.3723598  66.9213715 167.1343842  -1.4442364
  67.3063354 166.8091431  -3.6221683  68.3556671 166.5191956  -3.6761615
  66.7870941 166.2151794  -4.3742981  67.2273788 168.3166962  -4.0454545
  66.5077591 169.1083221  -3.3439066  67.9876251 168.6789246  -4.9911017
  68.6281662 164.8389130  -1.6412913  69.3900681 165.4342957  -0.9181763
  69.1878357 164.0848999  -2.5547521  68.5642166 163.4684143  -3.0558996
  70.6568909 164.0044403  -2.7990639  71.1692505 163.9803314  -1.8372906
  71.0417557 162.7189484  -3.5529337  70.6068344 162.8069763  -4.5485263
  72.5880890 162.6949615  -3.7799654  73.0640030 162.8182068  -2.8071291
  72.9759216 161.8071442  -4.2794333  72.8780136 163.5764618  -4.3518147
  70.5711212 161.4088440  -2.8640490  71.2524338 161.1809845  -2.0442986
  69.5862656 161.6150208  -2.4449286  70.4960327 160.1321869  -3.7457881
  71.4516830 160.0053101  -4.2544570  70.3354645 159.2649231  -3.1053288
  69.5879135 160.2993927  -4.3249726  71.1397095 165.2225342  -3.5230839
  70.9231873 165.3730621  -4.7292633  71.9193954 166.0530396  -2.8118229
  72.0330048 165.9589386  -1.8126537  72.6070938 167.2222595  -3.4061279
  72.0591431 167.4828186  -4.3116417  72.5869904 168.4985046  -2.5362458
  72.7452621 169.3831940  -3.1529822  71.5639725 168.7841034  -2.2913647
  73.4459763 168.4110718  -1.3275756  74.7270737 168.9466095  -1.3250564
  75.1752548 169.1962585  -2.2754257  75.5891647 168.9686279  -0.1491487
  76.6121445 169.3149109  -0.1492854  75.0837631 168.5267792   1.0869079
  75.7796707 168.5228882   2.2646017  76.6147995 168.9898376   2.1864643
  73.7896805 167.9470825   1.0793096  73.3766556 167.5624542   2.0001082
  72.9844131 167.9401703  -0.0874521  71.9845428 167.5400543  -0.0064815
  74.0893555 166.9677277  -3.8635092  74.5420914 167.7079773  -4.7373967
  74.7988358 165.9352112  -3.3132181  74.3118210 165.3753357  -2.6280415
  76.1067352 165.5839081  -3.7221162  76.2421646 165.9778900  -4.7293634
  77.1038895 166.5207977  -3.0490196  76.9661865 166.4840698  -1.9683766
  78.1002884 166.1927185  -3.3450711  77.0767136 167.5765533  -3.3187296
  76.4026413 164.0802155  -3.7025359  75.8788452 163.3223267  -2.9037004
  77.2240906 163.6313324  -4.7058253  77.5610275 164.3421783  -5.3392782
  77.2679825 162.2117157  -5.0619392  77.1136551 161.6071930  -4.1681657
  76.1212540 161.9477539  -6.0599222  75.2241135 162.0544128  -5.4501138
  76.2112961 162.6666718  -6.8742647  76.0523300 160.5584106  -6.6737447
  75.1150665 159.6498413  -6.1020656  74.5468903 159.9113617  -5.2216196
  74.9068069 158.4614410  -6.8562126  74.1165619 157.8141632  -6.5055518
  75.6252289 158.1552429  -8.0472355  75.3423233 157.0615997  -8.7606268
  74.9044647 156.4002991  -8.2197380  76.6383743 159.0035858  -8.5071898
  77.2001648 158.7438660  -9.3922548  76.8524323 160.2058868  -7.8453326
  77.5270615 160.9344635  -8.2701273  78.6195984 161.7446594  -5.6479254
  79.3067932 162.5101624  -6.3043079  79.1025772 160.4799805  -5.3954191
  78.5137024 159.8718719  -4.8444738  80.3120651 159.8076477  -5.9413834
  80.4243927 160.1797028  -6.9597507  81.5259705 160.2006531  -5.0573864
  81.3897476 161.2551880  -4.8176360  81.5118408 159.6137238  -4.1390100
  82.8564911 159.9019165  -5.7516136  83.0517578 158.8444214  -5.9295168
  82.8827591 160.5517120  -6.6263561  84.0483398 160.2031708  -4.7901950
  83.8250275 161.1065521  -4.2226186  84.0264511 159.4454041  -4.0069904
  85.3627319 160.3679657  -5.3916087  85.4089813 160.8858490  -6.2574892
  86.5326233 160.0995483  -4.8536625  86.7006454 159.1714325  -3.9344566
  85.9035187 158.5785370  -3.7523127  87.6397934 158.9138947  -3.6665473
  87.6182327 160.5906525  -5.3158488  87.5990906 161.1860809  -6.1314454
  88.5061340 160.5364380  -4.8375225  80.2004929 158.2720490  -6.0293255
  79.7521820 157.6244659  -5.1034813  80.6325150 157.7144470  -7.1666226
  81.0518875 158.3581238  -7.8223000  80.7072983 156.2278290  -7.3973012
  80.1988754 155.6530762  -6.6231771  80.1743011 155.7882080  -8.7893667
  80.7142029 156.3555908  -9.5474463  80.4503860 154.7392426  -8.8967657
  78.6373520 155.8589935  -8.9637537  78.1508636 155.8225861  -7.9890213
  78.4523239 156.8687744  -9.3301306  78.0988312 154.7855530  -9.9850655
  77.5282288 153.8028412  -9.4987593  78.4123535 154.7694855 -11.2179184
  82.1609421 155.7624512  -7.3431163  83.0100555 156.4413452  -7.9372630
  82.4118729 154.6013184  -6.7610011  81.6939621 154.0529327  -6.3093576
  83.7483063 153.9600525  -6.7907476  84.2786713 154.3806152  -7.6451139
  84.5671844 154.3915710  -5.5618587  84.1119461 154.0328979  -4.6387062
  85.5169678 153.8571167  -5.5431108  84.8206024 155.9434357  -5.4344873
  85.3489838 156.3400726  -6.3014331  83.8932419 156.4946594  -5.2787580
  85.7468109 156.1991119  -4.2737160  86.9036102 155.7554932  -4.3807354
  85.3125839 156.9091492  -3.3345597  83.6627884 152.3835602  -6.9161358
  82.6551895 151.7447968  -6.6258821  84.8297501 151.8421783  -7.3702154
  85.5893936 152.4457550  -7.6508017  85.0216675 150.3981018  -7.4579167
  84.2089081 149.8787994  -6.9501166  84.7291260 150.0906372  -8.9488983
  83.7695084 150.5299530  -9.2213469  85.4382095 150.6303558  -9.5765944
  84.6687393 148.5639038  -9.1350288  85.4541092 148.0476379  -8.5829659
  83.6975403 148.2233734  -8.7759647  84.7947311 148.1440735 -10.6389828
  85.4155426 147.0851898 -10.9317007  84.2835007 148.9870758 -11.5489912
  84.2821426 148.7899170 -12.5395613  83.7543716 149.7697144 -11.1917963
  86.4208145 149.9610291  -6.8617468  87.5080185 150.1875763  -7.5002279
  86.3496475 149.1925354  -5.7685361  85.4498138 148.8145294  -5.5086961
  87.4856873 148.6656952  -5.0300264  88.2809143 148.3331757  -5.6972156
  88.1263123 149.7182617  -4.0703044  87.3372040 150.1875153  -3.4827688
  88.7794724 149.2646484  -3.3248379  89.0872955 150.7156830  -4.6906300
  89.8212967 150.1238251  -5.2374759  88.5881958 151.3952179  -5.3814626
  89.8277206 151.6199036  -3.6924384  89.2871780 152.4149628  -2.8350070
  91.0947647 151.6345978  -3.8387315  87.1375885 147.4166260  -4.2156453
  85.9869614 147.1716003  -3.9032865  88.1154480 146.5429688  -3.9292090
  89.0738068 146.7486877  -4.1728191  87.8906555 145.2163849  -3.2453735
  88.8551025 144.7099762  -3.2839897  87.5403366 145.3313446  -1.7312095
  86.5574417 145.7955170  -1.6502521  87.4564438 144.3043365  -1.3757751
  88.5023575 146.1479645  -0.8863135  89.6227570 145.5536957  -0.2873311
  89.7850113 144.5149078  -0.5342835  90.4699707 146.3244171   0.5171590
  91.2684326 145.8506470   1.0688852  90.1750641 147.7204437   0.7450045
  90.9861755 148.4649200   1.5625973  91.6415405 148.0018311   2.0895200
  89.0111313 148.2737732   0.1302830  88.7196884 149.2868042   0.3652731
  88.2277985 147.5075226  -0.7858272  87.3482971 147.9208832  -1.2570035
  86.9217987 144.3836670  -4.0274777  86.2580185 143.4725800  -3.5283811
  86.8562012 144.6448059  -5.3449750  87.5403290 145.3192444  -5.6567478
  86.1618195 143.7329865  -6.2340560  86.4827423 143.8851318  -7.2645726
  86.3576736 142.7124329  -5.9051371  84.6456146 143.9148865  -6.2786593
  83.9642563 142.8939514  -6.4069958  84.1310425 145.0876923  -5.8668404
  84.7849884 145.8211212  -5.6333117  82.6896744 145.4067535  -5.6850982
  82.1426544 144.6456146  -6.2414699  82.1343002 145.3320770  -4.2116237
  81.0630188 145.5233765  -4.2737894  82.2399750 143.9362640  -3.6012669
  83.1627274 143.4524231  -3.9214425  82.1771011 143.7983246  -2.5218594
  81.4256668 143.3465118  -4.0222273  82.8282852 146.3114777  -3.2539971
  83.7793274 145.8877411  -2.9313984  82.9517059 147.2555389  -3.7846773
  81.9594193 146.7126160  -2.0633419  81.7946854 145.9208679  -1.3325257
  82.4293823 147.5526733  -1.5519493  80.9924545 147.0877075  -2.3985889
  82.3625259 146.8427277  -6.2110000  83.2345428 147.6951294  -6.0713387
  81.1247177 147.0600433  -6.6319141  80.4559784 146.3045502  -6.6778202
  80.5762024 148.3862915  -6.8170443  81.3648529 148.9299011  -7.3372531
  79.4153671 148.3337402  -7.8129492  78.6479645 147.7300262  -7.3284731
  79.0184402 149.3448486  -7.9035592  79.8037415 147.6784210  -9.1634951
  80.6946487 148.1935425  -9.5227175  80.1359406 146.6553650  -8.9872007
  78.6730194 147.7066040 -10.1271496  77.6659012 148.3722229  -9.9172945
  78.8891449 147.2161102 -11.2285519  80.1788177 149.0941620  -5.5212593
  79.6404648 148.4260101  -4.6007161  80.3524704 150.4306793  -5.4181657
  80.8743896 150.9066620  -6.1400652  80.0685959 151.2152710  -4.1515822
  79.1175232 150.7550201  -3.8837619  81.2103119 150.9530640  -3.0979540
  81.2289429 149.8721466  -2.9587164  82.5813217 151.5269623  -3.4523211
  82.6606598 152.5111237  -3.9140887  83.2285767 151.4532166  -2.5784054
  83.0261688 150.8519592  -4.1834574  80.8714905 151.6363831  -2.0132670
  81.5420609 151.5962982  -1.3274555  79.7040634 152.6569824  -4.4388871
  80.1541672 153.2573090  -5.3828263  78.9260178 153.2992859  -3.5081210
  78.7188797 152.8356628  -2.6350522  78.5415421 154.7255402  -3.7070909
  79.3934021 155.1633453  -4.2274451  77.2980194 154.8032227  -4.6346841
  77.3397980 154.1931152  -5.5369787  76.0836105 154.2431946  -3.9533441
  75.7823868 154.8090515  -3.0717745  75.2875595 154.3187408  -4.6940861
  76.2039108 153.1724243  -3.7888353  76.9298401 156.2032013  -5.1623549
  77.7250595 156.3665619  -5.8896995  75.9388885 156.2350311  -5.6152453
  76.8804245 156.9188995  -4.3417230  78.3739853 155.5230255  -2.4365098
  77.6858597 155.1446991  -1.4651688  79.0109787 156.6991425  -2.4226408
  79.4705200 156.9966431  -3.2714179  79.0302658 157.7736511  -1.3616579
  78.6374283 157.3220825  -0.4506873  80.4458160 158.1676941  -1.1657012
  80.8883743 158.6539459  -2.0350678  80.5517731 158.8621521  -0.3322821
  81.2633667 156.9543915  -0.7952655  80.8297043 156.5476379   0.1182944
  81.2577896 156.1941223  -1.5763286  82.7284927 157.3199310  -0.4553314
  83.1766586 157.9340363  -1.2364384  82.7349472 157.9924469   0.4024504
  83.6961899 156.1647339  -0.1220594  83.6823807 155.7927399   0.9024043
  83.4056396 155.2962952  -0.7132349  85.1144257 156.4804230  -0.5217457
  85.4993210 157.2846375  -0.0472006  85.6117706 155.6430511  -0.2542388
  85.2032547 156.5435333  -1.5258505  78.1064453 158.9190063  -1.7056602
  78.2327499 159.4677734  -2.8286664  77.2097321 159.2430267  -0.7835938
  77.1346130 158.8182831   0.1296645  76.1919479 160.3093567  -1.0854294
  76.6070480 160.9009247  -1.9014155  74.8444672 159.7566071  -1.5824406
  74.4121246 160.6143646  -2.0976548  75.0272751 158.6280212  -2.5727518
  75.4671402 157.7284698  -2.1421371  74.1325531 158.3335571  -3.1212595
  75.7109222 159.0455170  -3.3119636  73.7887192 159.2664337  -0.5409660
  73.7273178 159.9726105   0.2870673  72.8346329 159.1850891  -1.0617371
  74.2288055 158.3603210  -0.1245715  75.9418640 161.2574615   0.0661561
  75.8702011 160.8629608   1.2358644  75.7617569 162.5609283  -0.2154329
  75.7416916 162.8264160  -1.1897123  75.3504333 163.5590820   0.7528678
  75.3839111 163.1228027   1.7511824  76.4063644 164.6585388   0.8351038
  76.3903961 164.9980927  -0.2005379  75.9900665 165.4751740   1.4249347
  77.7450638 164.2091827   1.4715623  77.6117249 164.1251831   2.5501113
  77.8964844 163.2155151   1.0498945  78.8962097 165.1408539   1.1132882
  79.7373505 164.7971191   1.7153090  79.1398773 165.0357666   0.0560837
  78.6886292 166.6244202   1.3134910  77.8079224 167.0119629   0.8013640
  78.5782623 166.8060455   2.3825729  79.9327164 167.4077454   0.9644989
  80.1688538 167.0895386   0.0354792  79.8832626 168.4095764   0.8462219
  80.7233887 167.3070679   1.5848207  73.9701462 164.1263123   0.3896082
  73.7942657 164.6920929  -0.6881850  72.9208221 163.8874054   1.1711725
  73.1804123 163.4935608   2.0642567  71.5767365 164.3884277   0.9861446
  71.4826431 164.9538116   0.0590039  70.6588593 163.1181335   0.9463966
  70.7625732 162.5344543   1.8610846  69.6455994 163.4783020   0.7684193
  70.9674759 162.4865570   0.1133536  71.1806641 165.3213959   2.1033115
  71.7590332 165.3664398   3.1956499  70.0759659 166.0403290   1.9333981
  69.5290604 165.9372253   1.0905669  69.5349045 166.9958191   2.9520395
  70.0029984 166.8606720   3.9270909  70.1153564 168.3457642   2.5432289
  71.1728592 168.2676239   2.2908618  69.2844086 168.8377838   1.4052993
  68.2470856 169.0177917   1.6875260  69.6865845 169.7758179   1.0226154
  69.2715912 168.1880798   0.5301870  70.0119247 169.3707428   3.7053657
  68.9326935 169.5227966   3.7210503  70.2627106 168.9084930   4.6601057
  70.9131775 170.6558838   3.5323036  70.5429001 171.3619690   2.7890449
  70.9087296 171.1433258   4.5072274  71.9519501 170.4068451   3.3154230
  68.0095367 166.8217773   2.9638662  67.4339676 166.3175659   2.0192800
  67.3462372 167.1451569   4.1142321  67.8940887 167.4746552   4.8961477
  65.8246231 166.9096222   4.1583881  65.6512985 166.0152740   3.5598848
  65.6542969 166.7609100   5.2246785  64.9219284 168.0693512   3.6917858
  65.0059967 169.1676025   4.2500067  64.1236267 167.8970795   2.5987732
  64.2753372 167.0153809   2.1300666  63.2291946 168.9303589   2.0542798
  63.6559334 169.9199371   2.2178185  63.0123138 168.6589050   0.5445248
  62.7768364 167.5979309   0.4609913  62.2230682 169.2483673   0.0779180
  64.2416153 168.8611908  -0.3328581  65.1159363 168.4419861   0.1650803
  64.1301727 168.3150940  -1.2695940  64.5847397 170.3453064  -0.6835577
  65.0344086 170.4238586  -1.6733712  63.6363449 170.8733215  -0.7827335
  65.5112076 170.9985352   0.3269623  65.0702362 171.4010773   1.1415820
  66.8027344 171.3137054   0.2267397  67.5215302 170.7346649  -0.7188240
  67.0430908 169.9893341  -1.2042890  68.4981461 170.9134064  -0.9042326
  67.3398056 172.1605682   1.0801526  66.8555984 172.6103668   1.8439085
  68.2152328 172.6144409   0.8616924  61.8710556 169.1092682   2.7409399
  61.4167137 170.1943207   3.1155930  61.1990356 167.9681244   2.9141562
  61.6034164 167.1282654   2.5252798  59.7209702 167.8911591   3.3392007
  59.4365311 168.8417206   3.7904665  58.8411331 167.6254730   2.0775189
  59.0011177 166.5811615   1.8093262  57.8482780 167.8695068   2.4553883
  59.0008812 168.5209656   0.8934759  58.4327202 169.4284973   1.0976770
  60.0488701 168.8149719   0.8352882  58.6995773 167.8099670  -0.4395989
  58.1495743 168.4677582  -1.3343905  59.0218353 166.5802612  -0.6429579
  58.7533188 166.1262207  -1.5042657  59.6461639 166.1340332   0.0137001
  59.5417480 166.8294525   4.4598432  60.1306953 165.7297668   4.3866668
  58.6411896 167.0902100   5.4639444  58.0911942 167.9365540   5.4999499
  58.1220436 165.9822540   6.2781420  58.9570694 165.3887024   6.6503325
  57.4709778 166.6011505   7.5114727  56.6854973 167.3337250   7.3258100
  56.9942436 165.7797089   8.0463190  58.3998718 167.2737427   8.5202570
  59.1225929 166.5054779   8.7951155  58.8796272 168.1152496   8.0204353
  57.6362534 167.6095123   9.7920628  57.1337700 166.7918549  10.3088360
  58.3842926 167.9240875  10.5197868  56.7621155 168.8569641   9.6285295
  57.1457939 169.5544281   9.0069036  55.5803757 169.0239716  10.2161655
  55.0703392 168.1043549  10.9644718  55.5408859 167.2209625  11.0997906
  54.1577797 168.2353668  11.3769941  54.9768562 170.1784058  10.0211039
  55.4855423 170.9354706   9.5872984  54.0163727 170.3002930  10.3086987
  57.0858574 165.0958557   5.4200282  56.4367790 165.6592865   4.5007734
  56.7939339 163.8434296   5.7976661  57.3656693 163.4108429   6.5090685
  55.5919647 163.1225739   5.3295255  54.8698044 163.8357086   4.9320192
  55.9872894 162.2621155   4.0854268  55.0714226 161.8231354   3.6897068
  56.3505249 162.9340820   3.3078570  57.0578079 161.1975250   4.3115883
  56.7252464 160.0057831   4.8819776  55.7106056 159.8188629   5.2012987
  57.6613541 158.9590454   4.9920306  57.3466454 158.0204468   5.4237647
  58.9734573 159.1891937   4.6747937  59.6635704 158.3707123   4.8170533
  59.3286858 160.3797302   4.0236511  60.3476486 160.5070801   3.6891382
  58.4040489 161.3989105   3.8706772  58.6723137 162.3214569   3.3773811
  54.8773422 162.2240753   6.4392719  55.5240173 161.7845306   7.3909473
  53.5199776 161.9499054   6.2542586  53.0800247 162.5366821   5.5598321
  52.7183876 160.8236542   6.7637715  53.0379601 160.5364075   7.7655020
  51.2099037 161.2930603   6.9251781  51.1677475 162.2017822   7.5256214
  50.8037682 161.5202637   5.9395156  50.2911568 160.3191681   7.6799793
  50.3188629 159.3689423   7.1466875  50.6941605 160.1432343   8.6773424
  48.8662605 160.8248596   7.8253412  48.5799141 161.2826996   6.8785119
  48.2572556 159.9367065   7.9939022  48.6890984 161.7373657   8.9614515
  49.0931282 161.2164154   9.8294802  49.3343735 162.6110229   8.8696823
  47.2797012 162.1833191   9.1682768  46.6689758 161.3806763   9.2218180
  47.1468773 162.8487091   9.9164152  46.9164848 162.6760101   8.3648863
  52.8587952 159.5845795   5.8841658  52.8983116 159.7060089   4.6664438
  52.8433037 158.3557434   6.4976063  52.7987061 158.4149170   7.5048847
  52.8086281 157.0063171   5.8929272  53.3168259 157.0991821   4.9331279
  53.5493050 155.9041138   6.6910224  53.1313667 155.8851624   7.6975360
  53.4682808 154.5323334   6.0570278  53.6421089 154.5733643   4.9817553
  54.1186943 153.8479462   6.6017056  52.4590874 154.1493378   6.2084632
  55.0511169 156.2315521   6.7150936  55.1884003 157.3015594   6.8711481
  55.5215416 155.6426239   7.5024800  55.4884071 155.9976501   5.7444391
  51.4227982 156.5754852   5.6390777  50.5792198 156.6183777   6.5347161
  51.1874886 156.0142822   4.4272242  51.8936043 156.1102905   3.7114828
  49.9430389 155.3505554   3.9513841  49.2339935 155.4830933   4.7685690
  49.4759369 156.0650024   2.6951466  50.1129303 155.7848969   1.8561728
  48.4859505 155.6316833   2.5528162  49.2285347 157.6067505   2.6958117
  50.1577110 158.1075592   2.9677107  48.7610016 158.2380524   1.4287215
  47.7397995 157.9367981   1.1952803  48.8287277 159.3247681   1.4792596
  49.4741707 158.0166168   0.6347014  48.1661530 158.0001373   3.7104332
  48.4455795 157.6545410   4.7057190  48.0375290 159.0818939   3.6735680
  47.2570381 157.5620270   3.2985210  50.0328445 153.8310852   3.7908704
  49.1077614 153.0846405   4.1864533  51.1355934 153.4143677   3.1662974
  51.7950439 154.0624542   2.7598269  51.4680367 151.9977722   3.0089965
  51.1671906 151.4833832   3.9216771  50.6488037 151.5054321   1.7850091
  49.5925369 151.6500854   2.0118954  50.9117279 152.1881104   0.9769802
  50.7838631 150.0360260   1.2580034  51.7980080 149.9900360   0.8611405
  50.7194443 149.3247528   2.0814295  49.7436295 149.6692505   0.1400202
  49.4014740 150.4999695  -0.7201360  49.4449844 148.4736328  -0.0298343
  52.9536209 151.7688446   2.7748272  53.5507355 152.6042786   2.1276033
  53.4628792 150.5700531   3.2191007  52.8689003 149.8977203   3.6830692
  54.8147163 150.1912079   2.8136778  55.3069000 150.9819946   2.2475426
  55.8167686 150.0330963   4.0095916  55.5518990 149.2610016   4.7319694
  57.2080879 149.7147827   3.4819305  57.6130943 150.5733948   2.9463310
  57.8961525 149.5809631   4.3166528  57.2107201 148.8886566   2.7708714
  55.9689789 151.3468018   4.7681508  56.4189987 152.0690002   4.0869613
  54.9427605 151.6169739   5.0171194  56.8121948 151.2909851   6.0835762
  57.8711166 151.2594299   5.8270807  56.6107445 152.1853485   6.6731753
  56.5897369 150.5315552   6.8331628  54.7252426 148.9489441   1.9426022
  54.1593666 147.9453735   2.4069326  55.3507271 148.8690948   0.7507625
  55.7246246 149.7137604   0.3422818  55.5183105 147.6578369  -0.0370145
  54.9178810 146.8126068   0.2993910  54.9539261 147.9074097  -1.4856160
  53.8696709 147.9774170  -1.3984838  55.3348007 148.8686066  -1.8307694
  55.2175407 146.8217621  -2.5469208  56.2644424 146.7353668  -2.8378360
  54.9484978 145.8580933  -2.1144233  54.3762131 147.0785828  -3.8077149
  53.3253899 147.1716003  -3.5334463  54.8468246 147.9716034  -4.2189960
  54.5491943 145.8883667  -4.7676778  54.8941460 145.0415955  -4.3386002
  54.4744568 145.8977509  -6.0568309  54.2259445 147.0024567  -6.6261921
  53.9709206 147.8187714  -6.0888996  54.0334892 146.9469910  -7.6161342
  54.8234177 144.7959442  -6.7098193  55.2208748 144.0194550  -6.2007174
  54.7768402 144.8853607  -7.7147751  57.0116768 147.2256775   0.0631857
  57.8580894 148.1308136   0.1897723  57.3682709 145.9593811  -0.0865513
  56.6494484 145.2909088  -0.3243206  58.7692947 145.4576721  -0.2757206
  59.4473877 146.3109283  -0.2608787  59.1468048 144.4535675   0.8019027
  58.4349747 143.6298981   0.8563346  60.5831604 143.8278198   0.4903047
  61.3111496 144.6363525   0.4239930  60.7821274 143.1959991   1.3559459
  60.4478455 143.2651978  -0.4334159  59.1949883 145.1542511   2.0776801
  58.2994232 145.3756866   2.3432424  58.8379097 144.8068695  -1.6733164
  58.0104256 143.9843140  -2.1183574  59.8451843 145.1992493  -2.4624937
  60.4972992 145.8520050  -2.0516973  60.2356491 144.5396729  -3.7087190
  59.4572029 144.0437927  -4.2885704  60.8240509 145.6009064  -4.6923113
  61.5231209 146.2507782  -4.1659422  61.3984871 145.0316162  -5.4230919
  59.6814117 146.3491669  -5.5048780  59.1053429 145.6186066  -6.0727968
  59.0605278 146.8957672  -4.7950740  60.1133728 147.4212952  -6.4432745
  60.6346016 148.4628296  -6.0654583  59.7116280 147.4576874  -7.6861739
  59.9765968 148.3199310  -8.1404943  59.1455727 146.7571106  -8.1432114
  61.2160034 143.3440094  -3.4635925  62.0477982 143.4347229  -2.5543327
  61.1700249 142.3354340  -4.3362741  60.5444298 142.4719696  -5.1173592
  61.8616257 141.0400696  -4.3000402  61.6375084 140.6287079  -3.3158357
  61.3096809 140.1945038  -5.3673587  61.4948006 140.5557251  -6.3789716
  61.8133926 139.2329559  -5.2684708  59.9806366 139.8610687  -5.0302300
  59.6017570 139.3799438  -5.7695408  63.3595085 141.2623444  -4.4743385
  64.1451492 140.4789124  -3.9947464  63.8845253 142.3155975  -5.0107527
  63.3143883 143.0117035  -5.4695172  65.3385086 142.6760101  -4.8466187
  65.9133453 141.7700043  -5.0384717  65.7662125 143.6355743  -5.9135084
  66.8555679 143.6176300  -5.9464331  65.4308701 143.2681885  -6.8833985
  65.3567352 145.0871429  -5.7822742  64.5190125 145.4224701  -4.8908582
  65.9073944 145.9766388  -6.5272760  65.7202911 143.2377014  -3.4125569
  66.9004211 143.4945374  -3.1024880  64.7804031 143.2832031  -2.4678073
  63.8391113 143.0666046  -2.7630305  64.9905777 143.5537720  -1.0392252
  64.1173401 143.1294556  -0.5437267  65.9429703 143.1791229  -0.6641477
  64.8911743 145.0645905  -0.6081463  64.8336411 145.2182770   0.5881098
  64.7859268 146.0767059  -1.5265634  64.7516937 145.7726288  -2.4890945
  64.4695740 147.4864349  -1.1681950  64.9946747 147.5706635  -0.2167344
  65.0630112 148.5446930  -2.1602404  65.0094604 149.5033875  -1.6443698
  66.5248489 148.3062897  -2.4327860  66.6103745 147.5343018  -3.1975124
  67.1179810 149.1495056  -2.7867498  66.9926224 147.8586426  -1.5559120
  64.2691956 148.7066803  -3.5744071  64.9285126 148.7325287  -4.4420085
  63.6997681 147.7779846  -3.6115060  63.3106880 149.8683014  -3.6052246
  63.8196259 150.8128662  -3.4132206  62.8043251 149.8702850  -4.5704670
  62.6102753 149.6872864  -2.7898998  62.9000053 147.7669067  -0.9549479
  62.0370750 147.1193695  -1.5921595  62.5289307 148.7065125  -0.0736730
  63.3014641 149.1870422   0.3649512  61.1940536 149.0547943   0.2734502
  60.5184021 148.2619476  -0.0474779  61.1056404 149.3043060   1.8242161
  61.7875290 150.1138153   2.0846484  60.1001816 149.6505585   2.0635161
  61.4919243 147.9625854   2.5320072  61.1162415 147.1129608   1.9618282
  62.5763397 147.8523865   2.5293915  61.0035057 147.9124146   4.0128112
  61.2953300 148.7840881   4.8543968  60.1673164 146.8883362   4.2595100
  59.7961578 146.6929779   5.1783042  59.8801689 146.2571716   3.5251572
  60.7220306 150.2715912  -0.4989535  61.5471115 151.1119080  -0.8725502
  59.4144821 150.3838806  -0.6859841  58.8656006 149.5682678  -0.4544301
  58.7842445 151.4965210  -1.3742679  59.4501762 152.3481750  -1.5133225
  58.3590851 151.0430145  -2.8010669  57.6842995 150.1872101  -2.7823482
  57.7025986 151.8438873  -3.1412828  59.5523186 150.7444000  -3.7540538
  60.4585648 150.5458679  -3.1818604  59.4327660 149.8273926  -4.3310366
  59.8618202 151.8595734  -4.7750611  59.5125122 153.0030060  -4.6612692
  60.4719810 151.4761353  -5.8651814  60.7194977 152.1921082  -6.5331688
  60.7516479 150.5057220  -5.8787084  57.5690842 151.9188385  -0.4777677
  56.9096336 151.0782318   0.1474715  57.1855202 153.2335968  -0.4985413
  57.6826515 153.9330444  -1.0312115  56.1464272 153.7073212   0.4802143
  55.5307961 152.8995056   0.8758693  56.8734245 154.3670502   1.6860484
  57.2805328 155.2975006   1.2903211  56.2406616 154.6076202   2.5403485
  57.6489868 153.7055054   2.0720119  55.1883430 154.7414093  -0.2523924
  55.6440926 155.8391876  -0.5989996  53.8554878 154.5330963  -0.1412590
  53.5085182 153.7330017   0.3682269  52.9036903 155.6173553  -0.5123779
  53.2775307 156.0906067  -1.4203289  51.5310364 155.1193848  -0.9191074
  51.2912140 154.2920074  -0.2512563  50.8147697 155.9119568  -0.7025822
  51.5146332 154.7461090  -2.4072907  51.8651085 155.6028748  -2.9828105
  52.1303368 153.8680267  -2.6021705  50.0763664 154.4841309  -2.9179273
  49.5803604 153.7554169  -2.2767920  49.4986687 155.4051514  -2.8398304
  50.0839462 154.1490784  -4.4195008  49.2187920 154.5909119  -4.9138575
  50.9576645 154.6559601  -4.8291039  49.9858894 152.6859283  -4.8003092
  49.0190010 152.4586639  -4.6170592  50.0316696 152.5392151  -5.7985516
  50.6069489 152.0703278  -4.2948999  52.7728195 156.6074219   0.6731706
  52.6838531 156.1712036   1.8539199  52.8668556 157.9009399   0.3849371
  52.9467888 158.1995850  -0.5765830  52.9744453 158.8772736   1.4780622
  52.5601654 158.3861694   2.3585608  54.4218750 159.3042450   1.6834882
  54.3950386 160.0447235   2.4829228  55.3049965 158.1789398   2.2416782
  55.3153610 157.3617859   1.5203909  56.3249626 158.5450897   2.3587089
  54.9314041 157.8015442   3.1935809  55.0483437 159.9389496   0.4257410
  54.4771309 160.8048248   0.0909452  56.0557899 160.2897797   0.6495131
  55.2880287 159.2447052  -0.3796612  52.0774002 160.0773163   1.0327016
  51.4527016 160.1887970  -0.0374908  52.0738144 161.0652466   1.8963740
  52.4811096 160.7985840   2.7813063  51.5594711 162.4409485   1.6826071
  51.4489365 162.6292725   0.6147034  50.0792618 162.4314575   2.2001443
  49.5424652 161.6185455   1.7111273  50.0863838 162.2704468   3.2781630
  49.3923759 163.8137360   1.9451787  49.9288673 164.5837402   2.4995952
  49.4197998 164.0245819   0.8761128  48.0038872 163.8679657   2.4568253
  47.1800537 162.9473419   2.2721839  47.5510788 164.8907928   3.1570854
  46.5746193 164.8290100   3.4077177  48.1426735 165.6846466   3.3568594
  52.4486923 163.4560852   2.4511421  52.6636581 163.3172913   3.6393411
  52.9623680 164.4498138   1.7231476  52.6562119 164.5056610   0.7622890
  53.8093796 165.5093842   2.2175322  54.6777153 165.1238708   2.7518225
  54.4269142 166.3690033   1.1058933  53.6089172 166.4872742   0.3952674
  54.7589722 167.8704987   1.4362515  55.6506157 167.9188995   2.0613346
  54.8760567 168.4822693   0.5417598  53.9440460 168.4055023   1.9238540
  55.6625862 165.7019043   0.4478524  56.0808029 166.3071594  -0.3564326
  56.3712387 165.6375275   1.2735441  55.5132942 164.3044586  -0.0780555
  54.8231697 164.1939545  -0.9144859  56.4605103 163.9105225  -0.4464394
  55.2764931 163.6153412   0.7325881  53.0526543 166.3849030   3.1610544
  52.0045815 166.9739838   2.7885194  53.5689049 166.5013580   4.4034929
  54.4552155 166.0598450   4.6025519  53.1420937 167.4574890   5.3935299
  52.0603027 167.5826874   5.4399896  53.5949440 166.9708252   6.7883182
  54.6705780 166.8563080   6.6541653  53.5582962 167.8415985   7.4429207
  52.9631462 165.7186127   7.3417845  53.0959511 164.8930359   6.6425838
  53.5420799 165.2136078   8.6993618  53.1819153 165.8285217   9.5241394
  53.2763367 164.1660461   8.8411331  54.6307259 165.2529602   8.6618290
  51.4048157 165.8054657   7.6457877  50.8878555 165.8726044   6.6885262
  51.0420570 164.9457245   8.2091255  51.2380104 166.7250366   8.2067318
  53.7191048 168.8631744   5.1397214  54.8537483 169.0162964   4.7619495
  52.9327507 169.9213104   5.1966724  51.5031090 169.8254242   5.5069056
  51.3314857 169.3903503   6.4914641  50.9869728 169.3521881   4.6715827
  51.1163673 171.2987518   5.6422553  51.2694473 171.7384033   6.6278358
  50.1010284 171.5031433   5.3025355  52.0947571 172.0125122   4.7823529
  52.0441132 173.0675354   5.0515857  51.8927383 171.8903809   3.7182209
  53.4248390 171.2814636   5.0279560  54.1281891 171.3534851   4.1983695
  53.9070740 171.8119507   6.3778319  53.7074318 171.1877899   7.4042034
  54.3606911 173.0734711   6.3706179  54.7219925 173.4946747   5.5267224
  54.3286057 173.9649811   7.5008354  54.3869133 173.2837677   8.3497410
  55.5603333 174.9068451   7.3781028  55.6767235 175.3748016   6.4005671
  55.5015068 175.6855011   8.1385841  56.8645363 174.0775452   7.5546093
  56.8226624 173.1938324   6.9179134  57.7006989 174.7178955   7.2737379
  57.0155830 173.6681519   9.0292978  57.6252098 174.4563293   9.7828016
  56.5368309 172.5401611   9.4311533  53.0110283 174.7716522   7.6230345
  52.4953041 175.3302917   6.6551824  52.4634209 174.8248444   8.8204870
  52.7885933 174.3006287   9.6202135  51.3664932 175.7811432   9.1401014
  50.7134857 175.8450012   8.2696915  50.3738785 175.1727142  10.1370134
  50.8674049 175.0779419  11.1042480  49.5955467 175.9227448  10.2775955
  49.7475471 173.8928986   9.6344118  49.3441658 174.0782776   8.6389122
  50.5429688 173.1497192   9.5787668  48.7309761 173.2906647  10.6346893
  48.5696144 172.2514954  10.3480453  49.0217705 173.3465881  11.6836939
  47.4718323 174.0368958  10.5160875  47.3214226 174.4542847   9.6087523
  46.4086266 173.9905853  11.3585930  46.3400764 173.4135132  12.5066462
  47.1838913 172.9887543  12.8639269  45.4854584 173.4169006  13.0449095
  45.3010101 174.6221466  11.0412016  45.3764839 175.1016846  10.1555061
  44.4494781 174.4893799  11.5678616  51.7870789 177.1838989   9.4801979
  51.9248581 177.5599976  10.6510000  51.8956566 177.9982605   8.4527807
  51.8518677 177.6186676   7.5178475  52.3722610 179.3633423   8.5864153
  53.2575722 179.3386688   9.2218046  52.8973808 179.9491577   7.2444968
  52.0792007 180.0704498   6.5345917  53.5628204 181.3321228   7.4610548
  54.3597336 181.2238464   8.1967916  53.9794731 181.6745453   6.5138230
  52.8820076 182.0229645   7.9583840  53.9718819 179.0146027   6.5820651
  53.5215492 178.0569305   6.3209543  54.2630539 179.5468445   5.6765132
  54.8543091 178.8665771   7.2045732  51.2576942 180.1705933   9.2449055
  50.2038231 180.3876495   8.6575527  51.4187927 180.5859528  10.5349274
  52.2588921 180.3182831  11.0275640  50.4876289 181.4661407  11.1995974
  49.5541039 181.3919373  10.6418104  50.2121620 181.0102081  12.6005602
  51.0225410 181.2382050  13.2929544  49.3806419 181.5868073  13.0057869
  49.8914223 179.5516510  12.8115244  50.7525101 178.9159546  12.6053314
  49.4815331 179.3229828  14.2619333  48.4780197 179.6710815  14.5066414
  49.5867691 178.2549591  14.4525919  50.1451683 179.8533325  14.9448776
  48.6859245 179.0945892  11.9891386  48.9863510 179.0204468  10.9439859
  48.4462738 178.1086273  12.3872976  47.9339066 179.8644867  12.1618366
  51.0126038 182.9357300  11.0230751  52.1002388 183.2387238  11.4907656
  50.1496353 183.8264008  10.4497662  49.0011101 183.4558716   9.6690283
  48.3408585 182.8302460  10.2696571  49.2927208 183.0585175   8.6968298
  48.2703362 184.7622375   9.4926453  47.4874840 184.8808289  10.2417660
  47.8322906 184.8490448   8.4983215  49.3835068 185.8103333   9.5514889
  48.9786682 186.7738647   9.8610497  49.8506508 185.9795990   8.5813189
  50.4261589 185.2070160  10.4974222  51.4331017 185.4435272  10.1535788
  50.2299538 185.7823792  11.9167833  49.6570587 185.0713196  12.7966633
  50.6973457 187.0325470  12.1476116  50.9044037 187.6422577  11.3694859
  50.7493439 187.7343292  13.4424686  51.5928688 187.3630829  14.0244818
  51.0315666 189.2480164  13.1460304  52.0701180 189.4684753  12.8992195
  50.5068436 189.6683960  12.2880993  50.6639328 190.0695038  14.2478828
  51.0384941 190.9490204  14.1598167  49.4658203 187.4870758  14.3212891
  48.3391533 187.6822968  13.9114580  49.6488914 187.2330475  15.6429996
  50.5669937 187.3619385  16.0437126  48.4883919 187.1698303  16.5165424
  47.9113655 186.2702942  16.3021069  48.8469696 187.0405884  17.9915524
  47.9444771 186.8394318  18.5687408  49.7693558 185.8437042  18.3632584
  50.8132133 186.0063324  18.0948925  49.7772980 185.6208038  19.4301968
  49.4609756 184.9702148  17.7887897  49.6345558 188.1758728  18.4117279
  49.5603867 188.3095551  19.3594761  47.5400848 188.4071655  16.5394592
  46.3675690 188.2126923  16.7337837  48.0942574 189.5539398  16.2474747
  49.0675735 189.5424805  15.9779921  47.4058609 190.8130035  16.3018570
  46.5367546 190.7813110  16.9589348  48.3491898 191.9879761  16.8541298
  49.1838226 192.0668335  16.1575127  47.7603683 192.8987579  16.7451591
  48.9477730 191.7852936  18.2225952  49.2494774 190.7410431  18.3039932
  49.7841034 192.4764557  18.3272152  47.8368378 192.1208496  19.6531372
  47.1027985 190.5706635  20.0069160  47.8230515 189.8301544  20.3547096
  46.3616714 190.7734833  20.7800236  46.5225410 190.2162323  19.1549950
  46.8797913 191.1825714  14.9307070  45.8463860 191.8242493  14.8966322
  47.3210297 190.6055908  13.7671890  48.0931778 189.9593811  13.8465080
  46.8323097 190.9872589  12.3820572  47.1789780 192.0125122  12.2526236
  47.5931168 190.2190399  11.2791367  47.3595695 190.7610931  10.3627596
  48.6598930 190.3457336  11.4636440  47.1893272 188.8305054  11.0876045
  46.4813843 188.7989197  10.4399767  45.2824364 191.0252228  12.2721682
  44.7508698 191.8592529  11.5450735  44.5669136 190.1532745  12.9659481
  45.0648727 189.4763794  13.5262690  43.1028786 189.9938812  12.8996210
  42.8254433 190.3287506  11.9001226  42.6776924 188.5718994  13.1286545
  43.0668831 188.3321381  14.1181707  41.6093483 188.3605347  13.0831957
  43.1155167 187.9498596  12.3479567  42.3596306 190.9527893  13.8293085
  41.2260933 191.3314362  13.6159239  42.9428978 191.3610687  14.9862738
  43.8014336 190.9115448  15.2707968  42.4403763 192.4150238  15.9158106
  41.3608437 192.3033142  15.8146782  42.8454666 192.0552063  17.3628311
  42.8646736 190.9655914  17.3849525  44.2077141 192.5783844  17.8681622
  44.1484375 193.6663818  17.8970394  44.4504356 192.2252960  18.8704166
  45.0001450 192.3111115  17.1690826  41.6568680 192.5217133  18.2163887
  40.6910706 192.1266785  17.9012947  41.7053375 192.1097870  19.2243919
  41.7880287 193.6037292  18.2048893  42.6692314 193.8541107  15.4495888
  41.7997017 194.7446442  15.6720991  43.8358994 194.1857147  14.8025932
  44.4616508 193.4026947  14.6784458  44.3249168 195.5464172  14.7844992
  43.8308640 196.1251373  15.5649481  45.8450050 195.5746307  15.1377716
  46.0935555 196.6098328  15.3715620  46.0204086 194.9381409  16.0050831
  46.8167305 195.1375580  13.9715405  46.6732635 194.0744781  13.7782278
  46.5179977 195.5444641  13.0054693  48.3130035 195.5111237  14.2308588
  48.6520920 195.8843384  15.3217688  49.1645317 195.4046631  13.2388134
  50.1117859 195.7548828  13.2509947  48.8567162 195.0319214  12.3520136
  43.9493523 196.4367371  13.6122189  44.7091637 197.3108063  13.1125193
  42.6693459 196.1965942  13.1660385  42.0528297 195.5088959  13.5747824
  42.0836601 196.9662323  12.0486069  42.9080276 197.1508636  11.3598204
  41.0078316 196.0944672  11.3444090  40.3210602 195.6176147  12.0437422
  40.3757439 196.7733307  10.7719450  41.7160721 195.1497040  10.3544979
  42.4001961 195.6752625   9.6882706  42.4294815 193.9968414  10.9850998
  41.8700180 193.5742188  11.8196573  42.4606781 193.1425934  10.3088007
  43.4569511 194.1986084  11.2879124  40.6136856 194.4261932   9.5719461
  39.8392220 195.0973358   9.2006178  41.0431786 193.9597321   8.6853523
  40.1893539 193.6358185  10.1910934  41.7167206 198.3446045  12.4896517
  40.5076065 198.6220245  12.6264048  42.7018700 199.1930695  12.7403345
  43.5996933 198.8025360  12.4923668  42.6792259 200.6333313  13.0267067
  41.8639603 201.1202698  12.4916096  42.3649788 200.8552551  14.5384560
  42.1784058 201.9107056  14.7367096  41.4330139 200.3072052  14.6769361
  43.4928055 200.1668701  15.4148531  44.0142174 199.3989563  14.8434086
  44.2891006 200.8590698  15.6884966  43.0269814 199.4952545  16.7261066
  42.8010483 198.3037872  16.7929173  42.8634758 200.2658997  17.7690716
  42.3794937 199.9322510  18.5903778  43.0871582 201.2502289  17.7352371
  44.0320244 201.2370605  12.5203123  45.0020866 200.5077972  12.3939114
  44.0672379 202.5781250  12.3642445  43.2142601 203.0975037  12.5151138
  45.2284317 203.3256836  11.7949286  45.4818649 202.9614563  10.7993317
  44.7777748 204.7544708  11.5391808  45.6629829 205.2860107  11.1899347
  43.9661255 204.7694244  10.8117876  44.2256012 205.2774048  12.8096781
  43.8895416 206.1495209  12.5903854  46.5074310 203.2727661  12.7068968
  47.6361771 203.6377563  12.2828941  46.4430351 202.7749023  13.9565220
  45.5416603 202.5581818  14.3573427  47.6549454 202.4244537  14.8174095
  48.3081322 203.2969818  14.8291798  47.2297554 202.1795654  16.3054237
  46.2650833 201.6739502  16.3486328  47.9187927 201.4666443  16.7582684
  47.2535248 203.4710999  17.1373158  48.1819305 204.0246735  16.9968929
  46.0468407 204.4627686  16.9370651  45.1558380 203.8547516  17.0936813
  46.0606117 205.2810516  17.6570072  46.1121826 204.8464661  15.9189272
  47.3133812 203.0792236  18.5666485  48.0805969 202.3404694  18.7984390
  47.4136543 203.9276733  19.2435417  46.4269066 202.5357208  18.8935585
  48.4981117 201.1886292  14.2653408  49.6275139 201.0066528  14.6829700
  48.0103760 200.3573608  13.3974838  47.1600151 200.5593872  12.8913507
  48.7819214 199.1604156  12.9363337  49.1267357 198.7094727  13.8668461
  47.8453827 198.2511597  12.1728745  48.3751183 197.3798523  11.7877655
  47.1095238 197.9092255  12.9006786  47.2265739 198.9217529  11.0757170
  46.3216858 199.1822205  11.2626438  50.0968018 199.5339661  12.1184034
  50.9926643 198.7075958  11.9203415  50.3428383 200.8162842  11.6463394
  49.6733971 201.5619812  11.7723761  51.6396866 201.1946564  10.9935007
  51.9737625 200.4584808  10.2623930  51.4111786 202.4680328  10.1335068
  52.3032684 202.7203674   9.5602665  50.6371231 202.1827393   9.4210835
  50.9286690 203.6453705  10.9016762  49.9894447 203.4730530  11.4272842
  51.7687302 204.0036774  11.4966717  50.6028633 204.7884216   9.9695072
  51.4452438 205.0482025   9.3284101  49.8285103 204.3170471   9.3642855
  49.9839401 205.8931122  10.7170792  49.1823959 205.6520538  11.2823486
  50.1620903 207.1726227  10.5339298  51.1314850 207.6585388   9.7824020
  51.5058517 207.1190948   9.0149708  51.2394638 208.6610413   9.7236776
  49.3854790 208.0324249  11.1634064  48.6095009 207.6222076  11.6630764
  49.5072060 209.0240021  11.0148039  52.9372063 201.4740906  11.9136696
  53.9778709 201.8484650  11.3869982  52.8452835 201.3609772  13.2447996
  52.0093193 200.9214478  13.6026831  53.9536972 201.5150452  14.1917639
  54.3762436 202.4972839  13.9802122  53.3499832 201.6233673  15.5613365
  52.9406090 200.6526642  15.8410711  54.1851425 201.7726593  16.2456741
  52.2759781 202.7297821  15.7218132  52.6588402 203.7264099  15.5021362
  51.4459724 202.6413879  15.0208292  51.7109222 202.8586121  17.1975136
  50.7724876 203.4127808  17.1793499  51.3961449 201.8707733  17.5339718
  52.6455078 203.4838409  18.1962814  53.2036858 204.2225647  17.7927608
  52.5269127 203.3596954  19.4994431  51.7018242 202.5203247  20.1097088
  51.0737076 201.9459991  19.5659008  51.5739937 202.5092010  21.1115246
  53.2414551 204.0891876  20.3257370  53.8455658 204.7880554  19.9174080
  53.1052055 203.9864197  21.3212147  55.0894127 200.4316101  14.1445332
  55.2090836 199.5970001  15.0260773  55.8000946 200.5524445  13.0381155
  55.6584473 201.3632202  12.4527111  56.7096519 199.5242157  12.4546165
  56.3166809 198.5420227  12.7172585  56.5626526 199.6313324  10.9352932
  55.5230675 199.8713074  10.7121868  57.1477890 200.4763947  10.5725412
  56.9067345 198.4605255  10.0392437  58.0461807 198.4177704   9.1952524
  57.9063988 197.2799225   8.4756613  58.5838928 196.8750916   7.7384195
  56.8082428 196.6181488   8.7792377  56.5707932 195.7329102   8.3549004
  56.1744423 197.3090363   9.7986231  55.1881294 197.0288391  10.1378498
  58.1464386 199.5229645  12.9720154  58.5350304 200.2492676  13.9043207
  59.0141869 198.6598358  12.3737068  58.8766594 198.4042206  11.4063158
  60.0740395 197.8912659  13.1154776  59.8689003 197.9510651  14.1843290
  60.0492706 196.4073334  12.6945391  60.6102028 195.7666931  13.3750057
  58.5810890 195.9203644  12.7602224  57.9365845 196.4792328  12.0817051
  58.5382843 194.8956909  12.3910341  58.2405930 195.9824524  13.7938118
  60.5740051 196.1691284  11.3068104  59.7338791 196.4123993  10.6563416
  61.5074768 196.6847687  11.0813265  60.8193436 194.6848297  11.0330420
  60.2016525 193.9629974  11.5673628  60.7826157 194.5682373   9.9499187
  61.7929382 194.3520813  11.3928909  61.4867134 198.4983063  13.0776396
  61.7565994 199.1437378  12.0741720  62.3960800 198.3202057  14.0302839
  63.2430267 198.8293610  13.8216276  62.8525543 197.1011963  14.8217392
  63.8211555 197.3898163  15.2299080  61.9747505 196.8700867  16.0570526
  61.0614357 196.3391724  15.7885647  62.5919418 196.1451874  16.5877838
  61.6473045 198.0690460  16.9567127  62.6174622 199.0712738  17.2690620
  63.6531715 198.9913940  16.9735451  62.2785645 200.1678619  18.1062965
  63.0251160 200.8631744  18.4607143  61.0004120 200.3097229  18.6848679
  60.8595734 200.9981689  19.5049915  60.0172462 199.3578949  18.3296947
  59.0817909 199.4095459  18.8669586  60.3422928 198.2414398  17.5167236
  59.6243706 197.4762268  17.2608814  63.3457680 195.8076935  13.9682894
  63.6533127 196.0866699  12.8027105  63.5159721 194.5885773  14.5361862
  62.4294395 193.8803101  15.0876179  61.4538918 194.2686615  14.7950745
  62.4762688 193.9286957  16.1755352  62.6592064 192.4280243  14.6784067
  62.2054367 192.2251282  13.7083435  62.0860977 191.7573242  15.3185711
  64.2160110 192.2872772  14.6628847  64.4756470 191.5233002  13.9300642
  64.6836395 191.9428711  15.5852776  64.6661835 193.7080383  14.3280716
  65.4297562 193.9846649  15.0550737  65.3075867 193.7331696  12.8908911
  64.5773544 193.4933167  11.9192991  66.6044083 193.8480835  12.6957045
  66.8556976 193.7602081  11.7214193  67.6520081 194.2194824  13.7198725
  68.5350418 194.5217743  13.1568642  67.9843903 192.9628754  14.5565634
  68.9037704 193.1034851  15.1249647  67.1810303 192.7813263  15.2705278
  68.0682220 191.8029938  13.7620249  68.8622131 191.8097687  13.2224607
  67.3653717 195.4554138  14.5849085  66.3412399 196.1168671  14.3734570
  68.3426743 195.8573608  15.4503288  69.0508575 195.1707458  15.6674452
  68.2118073 196.8249054  16.5360775  67.2102585 197.2528534  16.4929047
  68.1023560 196.0104828  17.8203602  68.1026611 194.9281006  17.6918030
  69.0090408 196.2334290  18.3827705  66.9297333 196.2645264  18.6081734
  66.7493210 195.5506287  19.2241287  69.0721741 198.0703888  16.7021275
  68.6288147 198.9613037  17.4541454  70.1608047 198.4356842  15.9758244
  70.6044159 199.2990570  16.2549267  70.8456497 197.7899628  14.8436174
  71.7510300 198.3887024  14.7441235  70.1320648 198.0739441  13.4941130
  69.1816711 197.5420837  13.4496117  69.7654495 199.0935364  13.3752794
  70.9258575 197.6320343  12.2050018  71.1460037 196.5645599  12.1930752
  70.2527847 197.9483948  11.4081364  72.2981873 198.3126221  12.0029688
  72.9972305 198.2012787  12.8318481  72.6093750 197.8618927  11.0605755
  72.1446609 199.7695160  11.6510935  71.2009048 199.9114838  11.1245375
  72.1134949 200.3818359  12.5523205  73.2967911 200.2349243  10.7771006
  73.1095276 200.0488434   9.8022137  73.5395584 201.2091370  10.8869362
  74.1732025 199.8181458  11.0569668  71.3603821 196.3665009  15.1488628
  70.8821793 195.3484650  14.6258326  72.3510666 196.2474365  16.0526409
  71.8562927 196.0143738  17.4118538  70.8440399 195.6113129  17.3804302
  71.9612961 196.9430847  17.9727230  72.7641983 194.9264984  17.9717464
  72.2651138 194.3039093  18.7143154  73.6404877 195.4055328  18.4084778
  73.2768478 194.1572418  16.7150574  74.1904449 193.6071625  16.9405441
  72.4832840 193.4903412  16.3779926  73.4268723 195.3331909  15.7502499
  73.4956284 195.0916901  14.6895657  74.8055801 195.9748535  15.9189138
  75.8359299 195.2791138  16.1234436  74.9765701 197.3355103  15.9958000
  74.2273102 197.9260559  15.6641941  76.2663651 198.0180969  16.3275585
  76.8671341 197.8119965  15.4417257  75.9888916 199.5621033  16.2804413
  75.2451019 199.7458954  15.5051394  75.6397476 199.9412994  17.2408619
  77.3115158 200.2922211  15.9435186  78.0982513 199.8653412  16.5655479
  77.4544601 200.1136780  14.8777857  77.2511597 201.8337097  16.1272640
  76.9615402 202.1090546  17.1413708  78.2665024 202.1959076  15.9660645
  76.3246307 202.5665588  15.0979881  76.3777771 202.0282745  14.1516666
  75.2861176 202.4649963  15.4130745  76.6218491 204.0424957  14.9625425
  77.5947037 204.1488800  14.7128649  75.9461823 204.4545135  14.3349838
  76.6279526 204.5166931  15.8542881  76.9493866 197.5553436  17.6018982
  78.1375504 197.4022369  17.6121998  76.1462250 197.1923065  18.6034546
  75.1714096 197.1074524  18.3531780  76.7107468 196.9026489  20.0066166
  77.5732498 197.5681915  19.9712410  75.8277969 197.4402313  21.1669369
  76.5106049 197.5570831  22.0084915  75.4053955 198.8182373  20.7851925
  74.6524200 198.8580627  19.9980812  75.1029892 199.3093109  21.7101231
  76.3028183 199.3395233  20.4520416  74.7330856 196.5178375  21.7066212
  75.2164993 195.6348267  22.1246014  74.2446671 197.0795746  22.5028610
  74.0388641 196.1751862  20.9393158  77.2608032 195.5201416  20.2222481
  77.7375870 195.1836853  21.3381004  77.3748093 194.6597748  19.1847115
  77.1918716 195.0432587  18.2684326  77.8836975 193.3195648  19.2075272
  77.8335342 192.9609528  18.1794300  79.4098511 193.3728943  19.4083309
  79.6250076 193.5084991  20.4682484  79.9653015 192.4551392  19.2152157
  80.2100983 194.3634033  18.6605091  81.0593643 195.2946777  19.2321301
  81.1762314 195.3028259  20.3057575  81.8335876 195.9451752  18.2142162
  82.5181961 196.6422882  18.4700413  81.6306915 195.3063812  16.9993515
  82.2338104 195.5256805  15.7576771  83.0152588 196.2644348  15.6577044
  81.7811432 194.8605957  14.6199474  82.3075485 195.0146179  13.6895876
  80.6103897 194.0763550  14.7693329  80.2296600 193.4806671  13.9528761
  80.0024643 193.8766327  16.0218105  79.1087875 193.2752228  16.0995598
  80.5149918 194.4100952  17.2251759  77.1970596 192.1633453  20.0243835
  77.7024002 191.0279083  19.9917469  76.1425247 192.3497162  20.8012981
  75.7332153 193.2708282  20.8655987  76.0540466 191.4947662  22.0261650
  77.0243301 191.0206757  22.1741505  75.0874481 190.3245544  21.8192043
  74.5372849 190.2055054  22.7526131  74.4802094 190.5677948  20.9473133
  75.7765579 188.9630737  21.5429401  74.9299545 188.2978516  21.3731537
  76.3693695 189.0643463  20.6338634  76.5979385 188.4089203  22.7448120
  77.4650192 188.9887238  23.3339062  76.3944016 187.1838989  23.1825237
  76.7838287 186.9326172  24.0799103  75.6648483 186.5930328  22.8100567
  75.6445694 192.2302704  23.3376503  74.5835419 192.8193665  23.3462887
  76.5801849 192.1816711  24.2331676  77.5432281 192.0263519  23.9714108
  76.3682632 192.1641998  25.6744747  75.8023605 191.2606812  25.9013920
  77.6617737 192.0061646  26.5148487  77.6262817 192.4362946  27.5157604
  77.8471909 190.9351807  26.5968380  78.9242554 192.6697388  25.9128723
  79.0385818 193.9522705  25.9082642  79.8040619 191.9787140  25.3432827
  75.5375671 193.3104858  26.1774635  75.6009598 194.3619995  25.6073017
  74.6785202 193.0376892  27.1645088  74.6972961 192.0627289  27.4275589
  73.7391510 193.9887390  27.8349991  72.9641571 193.3856659  28.3080730
  74.4977264 194.6554413  29.0483131  73.8132935 195.3204498  29.5750179
  74.7891159 193.8084717  29.6694603  75.8984451 195.3075256  28.9002571
  76.3966751 195.2651672  29.8687973  76.5254593 194.7465515  28.2072487
  75.9324951 196.8189240  28.4387493  74.9826431 197.2596436  28.7414722
  76.7537460 197.2843475  28.9837494  76.3099213 197.0476227  27.0562458
  75.5814896 197.2676239  26.3920918  77.5185318 197.1899872  26.5282154
  78.6207809 197.0093994  27.1930504  78.6325607 196.6045532  28.1182861
  79.4885712 196.9984283  26.6764126  77.5967636 197.5470123  25.2480545
  78.5293350 197.7016296  24.8923759  76.7918854 197.7855072  24.6864548
  72.9753342 195.0276642  26.9875507  72.4788132 194.7400208  25.8801594
  72.7211227 196.1985168  27.5376587  72.8554459 196.3025513  28.5332680
  71.8781891 197.2475281  27.0328922  71.8265991 198.0093079  27.8107948
  72.5208206 197.9466705  25.8579121  72.6524353 197.3038483  24.9875355
  71.9159622 198.7868042  25.5167160  73.4621964 198.4111328  26.1514988
  70.3437500 197.0356445  26.7510147  69.4958038 197.7175903  27.3013115
  69.8771667 196.1786957  25.8370399  70.5173340 195.6227264  25.2882366
  68.5199432 196.3251648  25.1744518  68.2299271 197.3745575  25.1220112
  68.5957413 195.9345398  23.7392941  67.5700378 195.7765961  23.4060154
  68.8840561 196.7957306  23.1365185  69.3296204 194.6659393  23.2995853
  68.8647156 193.4260712  23.8992805  68.0396423 193.4170532  24.5961056
  69.6319733 192.2598877  23.6554394  69.3927841 191.3664551  24.2130814
  70.7593155 192.2582703  22.8576756  71.3077545 191.3434601  22.6881123
  71.2090988 193.5067902  22.3269558  72.1572571 193.5339661  21.8105564
  70.4784164 194.7088928  22.4903374  70.8583145 195.6153107  22.0425758
  67.3805084 195.6434479  25.9494114  66.3174973 195.3381042  25.3881493
  67.5873566 195.4170380  27.2801895  68.5007782 195.6694489  27.6295586
  66.5989151 194.8845062  28.3037548  66.2405014 193.9223785  27.9377518
  67.2828751 194.6770172  29.7036381  67.5096893 195.6742096  30.0808353
  66.4942398 194.2547150  30.3263798  68.5937653 193.8040619  29.8541584
  68.3431931 193.0345001  30.5842800  68.8465881 193.3675385  28.8879147
  69.8311081 194.6205139  30.3159275  70.6963120 193.9582214  30.2860165
  69.8915558 195.5323944  29.7218609  69.7108612 195.0701599  31.7217598
  69.6821060 194.3553009  32.4346848  69.9625854 196.2047882  32.2427368
  70.0208817 197.2911682  31.5094681  69.7734146 197.2179565  30.5329933
  70.1584167 198.1723328  31.9835300  70.1572266 196.3185577  33.5326691
  70.1744156 195.6083069  34.2505569  70.2006378 197.2327728  33.9597664
  65.2940903 195.7468109  28.4207668  64.2133179 195.1313477  28.4939117
  65.3833237 197.0937347  28.3990803  66.3213196 197.4541779  28.2973499
  64.2312317 198.0303040  28.3648453  63.6345253 197.8569794  29.2603912
  64.8144531 199.4308624  28.4992523  65.4498901 199.6609192  27.6440392
  63.9393044 200.0799103  28.5301189  65.6273041 199.6370697  29.8018532
  65.0707092 199.1183624  30.5824051  66.5890808 199.1259003  29.7595348
  65.8403854 201.1506042  30.1372299  66.2459488 201.9945068  29.2986603
  65.6968155 201.5277252  31.4092808  66.0797195 202.4135132  31.7073650
  65.5794678 200.7854919  32.0841370  63.5256157 197.9062347  26.9967518
  62.2820473 197.8738861  26.9684963  64.2555084 197.7641144  25.8492622
  65.2380447 197.9932404  25.8964481  63.7380333 197.4912720  24.5279198
  62.9854431 198.2346344  24.2649899  64.7754593 197.6137695  23.5051079
  65.0785828 198.6543427  23.6210594  65.6274872 196.9910889  23.7778797
  64.2295074 197.3200073  22.1468697  63.4327240 198.0855865  21.3583393
  63.1396255 199.0810699  21.6575203  62.9788399 197.3326874  20.3324089
  62.4691086 197.7650299  19.5752068  63.6535149 196.1084595  20.2478313
  63.6088676 195.0727997  19.3020496  63.0051041 195.1189117  18.4077625
  64.4552536 193.9975891  19.4570160  64.4902267 193.2722168  18.6576443
  65.2204132 193.9381256  20.6349258  65.7794876 193.0213165  20.7502975
  65.1846085 194.8677063  21.6648350  65.8119125 194.6660614  22.5205364
  64.3774033 196.0464783  21.4661579  62.9426765 196.1753998  24.4023438
  61.8296852 196.1423950  23.8756390  63.4300232 195.0532990  24.9890232
  64.3829651 194.9983521  25.3191376  62.6160202 193.7869873  24.9890842
  62.2792549 193.6726227  23.9587383  63.5343056 192.5814362  25.3959980
  64.3220139 192.9721222  26.0401859  62.9065895 191.8536835  25.9102478
  64.1074295 191.9099731  24.2254829  65.4071350 191.8057098  23.9443913
  66.2218246 192.1053619  24.5869560  65.6513901 191.0568848  22.7856998
  66.5548935 190.8708954  22.3743858  64.4315033 190.7261505  22.2263813
  64.0632248 189.9246979  21.1376171  64.7548141 189.5596008  20.3927650
  62.6682510 189.6535797  20.9571915  62.3231010 189.0383148  20.1394405
  61.7599297 190.0708160  21.9247398  60.7073288 189.8451843  21.8379574
  62.1084328 190.8971710  22.9919224  61.3967628 191.1617279  23.7600002
  63.4309502 191.2296295  23.1689873  61.3523598 193.8486328  25.8291969
  60.4687843 193.0511932  25.5461502  61.1296043 194.8121643  26.7313080
  61.8407288 195.5112762  26.8914108  59.7638168 195.2055206  27.2086678
  59.2268829 194.2758636  27.3971806  59.8713837 196.0169067  28.5304890
  60.4557915 196.9044647  28.2879925  58.8690567 196.3193359  28.8337517
  60.5275040 195.1966248  29.6543427  60.0247536 194.2314606  29.7159939
  61.5294876 194.9258118  29.3214931  60.5989799 195.9358978  31.0056286
  60.8738174 197.1329346  31.0712376  60.3116684 195.2867279  32.1474915
  60.5768242 195.7486267  33.0056534  60.1912994 194.2840576  32.1631165
  59.0581207 196.1265564  26.2439175  57.9459496 195.8643494  25.8646946
  59.7119598 197.1163330  25.6920109  60.6068382 197.2676849  26.1351604
  59.2461700 198.1699066  24.7442989  58.4918747 198.7723541  25.2504444
  60.3631935 199.0618134  24.3739433  61.0746078 199.1266022  25.1972237
  60.9402618 198.6810608  23.5312557  59.8384209 200.4756165  24.1025658
  59.1138878 200.3144379  23.3043346  59.3191566 200.8623199  24.9794521
  60.9621162 201.4060974  23.5589523  61.8307457 201.5092773  24.2092915
  61.3888588 200.9402924  22.6706829  60.3196449 202.8258209  23.2402763
  60.8943214 203.3643494  22.4867287  59.3653984 202.7289886  22.7224522
  60.2168274 203.7100983  24.4214573  61.1423073 203.8878174  24.7847786
  59.9451103 204.6498260  24.1701298  59.7645416 203.2531586  25.2003994
  58.6688347 197.5396881  23.4576435  57.4996910 197.7964172  23.1984138
  59.3824654 196.6650085  22.7406006  60.3181267 196.5043793  23.0853252
  58.8533630 195.9831848  21.5482578  58.5615807 196.8124542  20.9038467
  60.0669823 195.1998749  20.9917660  60.7274399 195.9279785  20.5208359
  60.5562172 194.7060089  21.8313217  59.7542305 194.1323853  19.9926281
  59.5184784 194.5563049  18.6582985  59.6449699 195.6120148  18.4689236
  59.0846748 193.6708221  17.6427307  59.0676270 193.9723816  16.6058235
  58.9049759 192.2938843  17.9402695  58.4571762 191.4229126  16.9817505
  58.0075874 191.8064728  16.2252121  59.0691490 191.8705902  19.2981758
  58.7558746 190.8665771  19.5436115  59.4816246 192.7878571  20.2895470
  59.4599876 192.5185089  21.3351974  57.5745239 195.1627808  21.8913040
  56.6028671 195.2287140  21.0964451  57.6022263 194.4482880  23.0171299
  58.3346252 194.5980682  23.6962910  56.3888931 193.7532043  23.4617538
  56.0822906 193.0896454  22.6531849  56.7447472 192.8235474  24.6886215
  57.1900940 191.9071198  24.3014355  57.4787025 193.3393402  25.3078022
  55.5604286 192.4554901  25.6283092  55.0055771 193.3390808  25.9437485
  54.9362793 191.7162628  25.1262341  56.0943146 191.9665527  26.9465561
  57.1430779 191.3623657  27.0635452  55.2935295 192.0661163  27.9925442
  55.6175270 191.6700592  28.8633289  54.3658104 192.4633179  27.9517460
  55.2848167 194.7873840  23.7140007  54.1698914 194.6512604  23.1624966
  55.4687195 195.8732452  24.4999352  56.3300095 195.8700409  25.0274487
  54.4268799 196.9029388  24.7548447  53.6467400 196.3260040  25.2514496
  55.0748444 197.9431152  25.6665154  55.2609711 197.3805084  26.5813541
  56.0304260 198.2997742  25.2821274  54.1262245 199.1430206  25.9916382
  54.0697174 199.7148132  25.0653839  53.1088600 198.8469696  26.2474308
  54.6594505 200.0629272  27.1039982  54.7192307 199.4311218  27.9901943
  55.6026115 200.5706177  26.9020214  53.5061226 201.0979004  27.3588848
  53.4835396 201.7758026  26.5056324  52.5031891 200.6966400  27.5045757
  53.8077507 201.8473053  28.5853710  54.6639252 202.3617096  28.4355621
  53.0134621 202.4167328  28.8402252  54.0245781 201.2423248  29.3645325
  53.8788223 197.4994812  23.4825172  52.6264229 197.6405334  23.3980408
  54.7420731 197.8036957  22.4855137  55.7387390 197.8319550  22.6466446
  54.3412361 198.3865967  21.2063580  53.6062355 199.1520691  21.4552269
  55.5596924 199.1439209  20.5669556  55.8529320 199.8320312  21.3598061
  56.3189201 198.3945312  20.3431416  55.1829109 199.9308624  19.3409519
  54.7948151 199.2731171  18.5632324  54.3276367 200.5544281  19.6012917
  56.2256508 200.8131714  18.7203922  57.1435585 200.2267761  18.6793041
  55.8837624 201.1401367  17.7384014  56.3258514 202.0818787  19.5015278
  55.6560287 202.3338776  20.2142200  57.3835831 202.9202118  19.3652306
  58.3254890 202.7641449  18.4749813  58.1397324 202.1889801  17.6657925
  58.8072395 203.6127167  18.2143116  57.5815620 203.9485016  20.1362686
  56.8546791 204.1769104  20.7992668  58.4532967 204.4584503  20.1243706
  53.6632233 197.4119873  20.2652664  52.5383759 197.7012329  19.7653255
  54.1814232 196.1645508  20.0674267  55.0598450 195.9456635  20.5152702
  53.5502510 195.1490479  19.2212048  53.3541985 195.5555115  18.2290096
  54.5763550 193.9941254  19.0117950  55.5104141 194.4750977  18.7214336
  54.7712173 193.4155426  19.9147758  54.1576157 193.1125946  17.8290462
  53.2897987 192.5399780  18.1563148  53.9635735 193.7350616  16.9555645
  55.2880287 192.0914307  17.5045490  56.1442642 192.6526184  17.1303539
  55.6097832 191.5100861  18.3686142  54.8006020 191.1087799  16.4366779
  55.4307175 190.2302246  16.2980938  53.8074188 190.6999817  16.6226044
  54.7637253 191.8309021  15.0924807  55.6773796 192.1862335  14.8494263
  54.3607941 191.2573395  14.3653135  54.0999680 192.5901642  15.0372801
  52.2549438 194.5891418  19.7884941  51.2903938 194.4838715  19.0646763
  52.1243210 194.3070221  21.0999851  52.9065704 194.5088043  21.7061825
  50.8909874 193.7249298  21.6978817  50.3553543 193.3379822  20.8310070
  51.2251854 192.4783630  22.5529766  51.7920723 192.6323395  23.4711437
  50.2861595 191.9682312  22.7676792  52.0251122 191.4697876  21.7520294
  51.4533844 190.7584534  20.6552982  50.4277649 190.9359589  20.3672085
  52.2838287 189.9611664  19.8462257  52.0437050 189.3553772  18.9849739
  53.6347847 189.8675079  20.1264210  54.2099266 189.2205353  19.4806347
  54.2688675 190.5856018  21.1806412  55.3235245 190.4766998  21.3861828
  53.4357147 191.3667603  22.0156250  53.7854042 191.9785919  22.8340282
  50.0126266 194.7372894  22.3729248  49.1200905 194.3686523  23.1176987
  50.2045937 196.0311279  22.1848736  50.9727402 196.3733978  21.6254997
  49.1861115 196.9964752  22.6859093  49.2731056 197.0028534  23.7724133
  49.5992432 198.4012146  22.1300068  50.5023689 198.7675934  22.6180954
  49.8267326 198.3097534  21.0679417  48.5461349 199.4774475  22.2092171
  48.4203987 200.3507690  23.3471336  47.4274902 201.1440430  23.0493431
  47.0015182 201.9053802  23.6859837  46.9183426 200.8767242  21.8135567
  46.1261330 201.3846893  21.4468555  47.5954132 199.8102875  21.2803745
  47.5286903 199.3114166  20.3248234  47.7532158 196.6098022  22.2616425
  46.8670616 196.8912964  23.0701027  47.4920311 196.1021118  21.0709019
  48.2532997 195.9361115  20.4282360  46.1683731 195.7544708  20.6425514
  45.5837593 196.6465302  20.8674145  46.0451698 195.6875610  19.1153011
  46.6017113 194.8776703  18.6436634  44.9980812 195.5306091  18.8563251
  46.5608559 197.3384399  18.5403728  45.4612503 198.0756989  18.7198029
  45.4133148 194.6142426  21.4004459  44.2083588 194.4597778  21.3109932
  46.1058884 193.9392700  22.3180866  47.0324097 194.3008423  22.4939594
  45.6170731 192.7882538  23.0930786  45.3179092 192.0120087  22.3887749
  46.8269844 192.2940979  23.8286839  47.0277443 193.0189819  24.6175690
  46.5923309 191.3640747  24.3464775  47.6032372 191.9800415  23.1309013
  44.4473000 193.1394043  24.0948181  43.6284485 192.2756042  24.4462242
  44.3800507 194.4056244  24.4103298  45.0384712 195.0716095  24.0321121
  43.3217697 195.0698395  25.2292728  43.3021355 194.4980774  26.1570797
  43.7280540 196.5907440  25.3997135  43.1120224 197.0869446  26.1496410
  44.7523727 196.6360168  25.7695999  43.7173882 197.2236023  24.0837002
  44.2055969 198.0272064  24.2772694  41.8847084 194.9076691  24.6289425
  40.9779968 195.0156403  25.4774303  41.7114677 194.6524658  23.3404598
  42.5683136 194.5033417  22.8269596  40.4947205 194.4554901  22.6416645
  39.7132835 195.0890961  23.0611839  40.6889381 194.8459625  21.1839886
  41.5214157 194.2646027  20.7876110  39.8538742 194.6063080  20.5257072
  40.8797112 196.3447113  20.8714352  41.7332954 196.7178955  21.4373226
  41.0567169 196.5170898  19.3669052  40.1917839 196.1226044  18.8336372
  41.1481285 197.5923309  19.2132854  41.9532700 195.9553833  19.1046352
  39.5926819 197.0683441  21.3247013  39.5151482 196.9749451  22.4079208
  39.7210579 198.1318054  21.1229839  38.6990929 196.6869049  20.8306408
  39.9371414 192.9941559  22.8556194  38.8706741 192.6128235  22.3954182
  40.7444572 192.0990601  23.4715347  41.6093407 192.5142365  23.7872906
  40.3653603 190.7942352  23.9311771  39.2957115 190.6064148  23.8380394
  40.9756699 189.6896973  22.9925976  40.3298264 188.8215179  23.1240005
  41.1949730 189.9435730  21.4949856  42.0401115 190.6308136  21.4555416
  41.3486061 188.9888000  20.9921093  40.3177109 190.3972321  21.0337849
  42.1788712 189.1627350  23.4753666  42.4633865 188.4963989  22.8455658
  40.7128830 190.5725555  25.4784679  41.0572281 191.5073395  26.1872730
  40.3575783 189.4065399  26.0269833  39.9341125 188.7164001  25.4232597
  40.5138817 189.0868073  27.4791908  40.0362625 189.8397064  28.1061916
  39.7482834 187.8161469  27.7437019  39.8734322 187.6227417  28.8090801
  38.6878319 188.0263824  27.6046028  40.0129509 186.7379456  26.8292751
  39.2654114 186.1363220  26.8004265  41.9648094 188.8428345  27.9327545
  42.2261810 188.8073578  29.1329689  42.9281769 188.6963806  26.9952202
  42.6488228 188.8751068  26.0412178  44.3490257 188.2280731  27.2817039
  44.3581085 187.6642609  28.2145119  44.8416901 187.4217682  26.0777225
  44.7668381 188.0738983  25.2075405  45.8867073 187.1853333  26.2780628
  43.9998474 186.1714478  25.8685551  43.4244652 185.7773438  24.6893177
  43.6170731 186.2896118  23.7582493  42.8865929 184.5537415  24.8624935
  42.2865410 184.1503143  24.1573048  42.9867973 184.0965118  26.1536160
  42.5488129 182.9433899  26.8060627  41.9045067 182.2596436  26.2733707
  43.0273018 182.6422882  28.1162491  42.6095543 181.7418976  28.5419197
  43.8057709 183.6227722  28.7891502  44.1285133 183.4481812  29.8049030
  44.1639099 184.8147888  28.1880093  44.7237549 185.4845581  28.8239250
  43.8169289 185.0570068  26.8310719  45.2768517 189.5038147  27.5438251
  44.9987602 190.5629883  27.0122662  46.3693047 189.3514557  28.3423519
  46.5851593 188.2962646  29.4027672  46.8058739 187.3157196  28.9809818
  45.6799393 188.2828827  30.0098076  47.7842255 188.7501678  30.1949539
  48.6626434 188.2300415  29.8129292  47.6758194 188.5481110  31.2605629
  47.9560699 190.2280121  29.9304581  49.0132713 190.4933472  29.9355278
  47.3047180 190.7452240  30.6349735  47.3847160 190.4075928  28.5174141
  46.7967606 191.3254089  28.5131435  48.4131889 190.4016571  27.3849640
  48.6671791 189.3342590  26.8364220  49.1290779 191.5540314  27.1657562
  48.8519707 192.8519897  27.7500324  49.2024612 192.8739319  28.7819118
  47.7785149 193.0382843  27.7170391  49.6134033 193.8332977  26.8759384
  49.8726921 194.6931152  27.4936447  49.0355492 194.1228027  25.9982281
  50.8040581 193.0464325  26.3953705  51.5165520 193.0336304  27.2201672
  51.2259827 193.5492706  25.5251770  50.2154579 191.6468658  26.1728554
  49.8231087 191.5131531  25.1647472  51.3093834 190.5495300  26.2952919
  51.8265305 190.0458527  25.3080730  51.6113510 190.0734558  27.4939804
  51.2237930 190.6154480  28.2530174  52.6595840 189.0337982  27.7395439
  53.5279121 189.2823334  27.1293411  53.1189880 189.0195770  29.2215347
  54.0023804 188.3850098  29.2926083  53.5861778 189.9968872  29.3426895
  52.1850700 188.6156464  30.2933445  51.4854507 189.4737701  31.1370392
  51.4419632 190.5527496  31.1198997  50.7466545 188.7446136  31.9819088
  50.1371040 189.1566467  32.6738434  50.8435173 187.3501892  31.7130375
  50.2566147 186.2379761  32.2890472  49.5213699 186.3248138  33.0753517
  50.5119934 184.9662781  31.7819996  49.9385681 184.1166534  32.1221771
  51.5715866 184.7938690  30.8541965  51.9027214 183.8461914  30.4558792
  52.1584015 185.9554138  30.2861004  52.8823547 185.8035889  29.4991837
  51.7628403 187.2556305  30.6629429  52.3156929 187.5818787  27.3082561
  53.2018623 186.7754364  27.0994110  51.0169487 187.1977386  27.1324558
  50.2449951 187.8448029  27.2066383  50.6908112 185.8209381  26.6814556
  51.2636719 185.1714325  27.3433228  49.1233749 185.5892487  26.7771988
  48.7274323 185.7664795  27.7771568  48.6858368 186.2756805  26.0523186
  48.7353249 184.1021881  26.4643593  49.0888290 183.8907776  25.4551811
  49.3389091 183.0659790  27.4078560  49.0185585 183.0621033  28.4497108
  49.0801964 182.0378418  27.1546993  50.4262276 183.1352692  27.3756027
  47.2260933 183.8607483  26.4051514  46.6504288 184.6435547  25.9112625
  46.9585609 183.0205383  25.7643890  46.6785622 183.7273712  27.3381691
  51.1967316 185.6316223  25.2509174  51.6972389 184.6062622  24.8625431
  50.8960648 186.6373291  24.4107132  50.5174599 187.5209198  24.7206039
  51.2935371 186.5516815  23.0286846  50.8797455 185.6529541  22.5713272
  50.6781349 187.7227173  22.3260040  51.0431175 188.6628418  22.7395878
  51.0878716 187.6343079  21.3198223  49.1700592 187.6912079  22.3322086
  48.3771820 186.5095825  21.9209652  48.9729080 185.6614685  21.6173210
  46.9698067 186.4533997  21.9282417  46.4687080 185.5780792  21.5420952
  46.2759018 187.5895691  22.2949772  44.9405174 187.6645966  22.1959515
  44.5645523 186.8693237  21.8114948  46.9899483 188.7270813  22.7250404
  46.4846725 189.6185303  23.0662479  48.4041443 188.8018494  22.7970181
  48.8184242 189.7032623  23.2238827  52.7919121 186.4663849  22.8087578
  53.1956673 185.8446045  21.8550167  53.6727715 186.9208984  23.7807007
  53.2324829 187.6059723  24.3781338  55.1485367 186.7194519  23.8074036
  55.5291557 187.2630005  22.9426517  55.7660904 187.4356842  25.0276165
  55.5028038 186.8487396  25.9075546  56.8488922 187.3804932  24.9154091
  55.2700348 188.7969360  25.0814362  55.8165970 189.3258972  25.6671543
  55.4744873 185.2405243  23.7036819  56.3156357 184.9198456  22.9028740
  54.6319847 184.4240875  24.3814926  53.8261223 184.9257812  24.7264404
  54.6371765 182.9401245  24.5501919  55.7064896 182.7451935  24.6318855
  53.9055328 182.4353180  25.8642845  52.8275681 182.5359650  25.7379551
  54.0435448 181.3547211  25.9009075  54.3511467 183.1903839  27.1634636
  53.9787636 184.2114258  27.0803165  53.7251930 182.6532898  28.4160576
  54.1178055 181.6488037  28.5740509  53.9916840 183.3447876  29.2153740
  52.6514168 182.6575928  28.2287560  55.8360977 183.1589661  27.4337578
  56.3472290 183.7428284  26.6682777  56.0951424 183.6616669  28.3655815
  56.2116737 182.1415253  27.3249359  54.1840668 182.1826172  23.3375454
  54.3382797 181.0086975  23.3264751  53.6886826 182.8999329  22.2696609
  53.6115494 183.8856659  22.4757462  53.3933372 182.3976288  20.9261856
  53.7969551 181.3852386  20.9425716  51.8276253 182.2607117  20.8135605
  51.4162598 183.1411438  21.3072433  51.4363060 182.2655640  19.7962379
  51.1879234 181.0906525  21.4648457  50.6454773 181.2865601  22.7426872
  50.7409935 182.2603149  23.1999378  49.9278488 180.2841644  23.3923340
  49.4686432 180.5220184  24.3404694  49.7652321 179.0222626  22.7846928
  49.0351791 178.0355988  23.4190178  48.9496193 178.1795502  24.3642998
  50.3211212 178.8038940  21.4895191  50.0938683 177.9630585  20.8509598
  51.0497475 179.8436890  20.8605022  51.2949448 179.7610779  19.8119507
  54.0447121 183.2011719  19.7437553  54.0294647 182.6687469  18.6681061
  54.5286560 184.4430084  19.8990498  54.4711227 184.9091339  20.7932129
  55.1685944 185.1938782  18.8349743  54.5024185 185.2062836  17.9723244
  55.2960892 186.6068115  19.4325199  54.3083076 187.0507660  19.5561543
  55.8018608 186.4818573  20.3899555  56.1837349 187.4833221  18.5244122
  56.0905495 187.3805084  17.2808571  56.9173203 188.3640137  19.1042461
  56.5589409 184.5882568  18.3919258  57.4333611 184.2857208  19.1632500
  56.6390533 184.2837372  17.0820923  55.8927078 184.6712341  16.5227070
  57.8383141 183.6255341  16.4575405  57.9352837 182.6287537  16.8878365
  57.6474533 183.5247803  14.8907299  57.9410744 184.4469604  14.3892670
  58.4343071 182.8562927  14.5413151  56.6917343 183.0818481  14.6105261
  59.1225128 184.3924103  16.7332726  60.1827469 183.7589874  16.9119225
  59.1024704 185.7518768  16.8405933  58.1824379 186.1642456  16.9005089
  60.4126587 186.4958496  17.0099602  61.2104111 186.0895233  16.3882027
  60.2212334 187.9606323  16.5893383  59.4585838 188.3861694  17.2415562
  61.1421089 188.5105286  16.7835045  59.7313957 188.1601868  15.1336842
  58.7969894 187.6273346  14.9574795  59.6085396 189.2419128  15.0798407
  60.8587074 187.6920471  14.1496029  62.0819817 187.7126770  14.3169756
  60.4241219 187.2585297  13.0631094  60.8820000 186.4122925  18.4537811
  62.0666046 186.1458130  18.7721329  59.9390717 186.4531555  19.4412727
  58.9772224 186.6121674  19.1773376  60.3137398 186.3519897  20.8100986
  61.2647552 186.8551788  20.9846210  59.1869545 186.7864685  21.6365490
  58.2751999 186.2330170  21.4118252  59.4273338 186.6920471  23.1678352
  60.2671509 187.3603363  23.3581467  58.5991402 187.1885376  23.6735058
  59.4863739 185.6633911  23.5234375  58.8015251 188.1526642  21.4441910
  58.1474762 188.1830139  20.7421227  60.7228241 184.8657227  21.0706921
  61.7199478 184.5922089  21.6682796  59.9388580 183.9230804  20.5370426
  59.1637383 184.2002716  19.9518433  60.2893639 182.4844208  20.5888081
  60.4077568 182.1107330  21.6058788  59.1235008 181.5916138  20.0826778
  59.0384293 181.8748169  19.0335560  59.5127144 180.5734863  20.0898895
  57.7388649 181.6803741  20.7829132  57.3859329 182.6761017  21.0513134
  56.7010193 180.9839630  19.9563751  57.1613808 180.1879578  19.3711014
  55.9284706 180.6534119  20.6506386  56.1824875 181.6645050  19.2810173
  57.9358826 180.9366608  22.1304436  58.4851608 181.5491638  22.8454475
  56.9831314 180.6887360  22.5983028  58.4386597 179.9731293  22.0472984
  61.6355400 182.0863647  19.9152851  62.2328606 181.0746613  20.3234062
  62.1217232 182.8657074  18.9171314  61.6291428 183.6770477  18.5718784
  63.4664192 182.6493530  18.3746681  63.6809807 181.5807800  18.3600750
  63.6114464 183.1971130  16.9858932  63.2874794 184.2366180  16.9351234
  64.6768951 183.2566223  16.7637005  62.9923553 182.3086548  15.9023943
  63.5466309 181.3706360  15.8706865  61.9237289 182.1274261  16.0176792
  63.0055542 182.9605103  14.2411175  64.7443695 183.0340729  13.9195948
  65.2938843 182.1556091  14.2578859  64.9666138 183.1576691  12.8596735
  65.2170563 183.8665771  14.4407425  64.5875549 183.2927246  19.2002277
  65.5911942 182.6254883  19.4826813  64.3492661 184.4717255  19.7416344
  63.4955139 185.0041351  19.6536121  65.3461380 185.0653992  20.6680908
  66.2806854 185.2076874  20.1254368  64.8772888 186.4817810  21.1542683
  64.4473038 186.9417419  20.2645245  64.1471405 186.3139191  21.9459801
  66.0329285 187.3262482  21.7881718  65.5532532 188.1641693  22.2940388
  66.5392685 186.7741852  22.5799694  67.1359100 187.6982574  20.7234344
  67.0082092 187.3595428  19.5438175  68.2267609 188.2961578  21.0510960
  65.6545792 184.2939301  21.9491806  66.7953339 184.1416321  22.4120541
  64.5827255 183.7461853  22.6280441  63.6205750 183.8390503  22.3352242
  64.8724213 182.8678894  23.8053303  65.3939514 183.4010620  24.6002026
  63.5201111 182.3726654  24.3157063  62.8856621 181.9635468  23.5294495
  63.6296310 181.5612793  25.0352688  62.6063728 183.5186768  24.9010048
  63.1016655 183.9204254  25.7849674  62.5279999 184.2821808  24.1270351
  61.2421608 182.9752350  25.3710155  60.5108147 183.7544098  25.5857773
  60.8764381 182.3763123  24.5369720  61.4656792 182.1476898  26.5935459
  62.4090729 182.1126404  26.9525394  60.5358124 181.3735809  27.0929947
  59.2745934 181.3905029  26.6590080  58.9454536 182.2199402  26.1859188
  58.6734619 180.6172638  26.9056435  60.7128372 180.7186279  28.2077637
  61.4860535 181.0143585  28.7863693  59.9053421 180.4075470  28.7286129
  65.7962570 181.7260590  23.4233246  66.6906967 181.3698273  24.1753044
  65.5812454 181.1086121  22.2330608  64.7817078 181.4305420  21.7065544
  66.3776627 179.9661560  21.6979256  66.4642334 179.2833710  22.5431557
  65.7592773 179.2422333  20.4787273  65.4137268 179.9275665  19.7047672
  66.7151489 178.2143555  19.9312515  67.0121460 177.5879669  20.7724075
  66.0848999 177.7147217  19.1955509  67.5345154 178.7382202  19.4390182
  64.5394592 178.4087830  20.9233627  63.6567993 179.0328064  21.0633354
  64.2302399 177.7732086  20.0935860  64.7685623 177.7486877  21.7599659
  67.7860184 180.4821625  21.4329605  68.6955872 179.8745880  21.9807911
  68.0087814 181.6315765  20.7251968  67.2354202 182.0610504  20.2377720
  69.3640137 182.2047729  20.5356770  69.9662704 181.5135956  19.9460430
  69.3477402 183.5198517  19.7506275  68.5770340 184.1491852  20.1956577
  70.3078995 184.0148163  19.8963051  69.1425476 183.5227509  18.2578373
  69.9979019 182.9946136  17.8364849  68.2006302 183.0144501  18.0516319
  69.0238953 184.9504700  17.8474655  68.2880936 185.5256195  18.4095039
  70.0263977 185.3746796  17.9034405  68.5886917 185.0707703  16.3888664
  69.1362839 184.3249512  15.8126736  67.5204086 184.8652191  16.3209305
  69.0281219 186.4200439  15.9064579  70.0097961 186.5836945  16.0786037
  68.8642883 186.4844818  14.9119177  68.5899963 187.2257690  16.3295040
  70.1012955 182.4480438  21.8228645  71.3086090 182.1921844  21.9120903
  69.3758545 182.9064484  22.8753872  68.5006485 183.3840637  22.7141113
  69.9611053 183.1912537  24.2099361  70.8170471 183.8508301  24.0669956
  68.8560944 183.9586182  24.9902420  68.3734207 184.6191711  24.2699757
  68.1058807 183.2861328  25.4062271  69.5235367 184.8292236  26.0821075
  70.0792618 184.1892242  26.7674370  70.1792755 185.5532684  25.5985031
  68.4975662 185.7265930  26.8773880  69.0542450 186.2566986  27.6501789
  68.1248932 186.4523621  26.1545601  67.4025345 184.9293365  27.4714203
  67.6487885 183.9929504  27.7588787  66.2040405 185.3262787  27.8610554
  65.7687683 186.6113129  27.6946640  66.3871002 187.2258148  27.1846142
  64.8367233 186.8888245  27.9673729  65.3796005 184.4544525  28.4235268
  65.7669449 183.5429688  28.6216774  64.5977859 184.7984772  28.9625225
  70.4313431 181.9226074  24.9445572  71.3009872 182.0730896  25.7479324
  69.9140167 180.7200623  24.5652771  69.0830765 180.6391144  23.9968700
  70.5959778 179.4759674  24.9537029  71.0217514 179.5901031  25.9505997
  69.5230713 178.3732147  25.1086731  68.7889938 178.5850983  25.8860607
  68.9714127 178.2128448  24.1823635  70.0549545 177.0101318  25.6206951
  69.3291092 176.2091827  25.4802036  70.8916168 176.7187805  24.9856987
  70.4765091 177.0662384  27.0775108  69.6518250 176.9721222  27.9582653
  71.7729492 177.0012512  27.3161354  72.0019379 176.9934387  28.2998066
  72.4270706 176.9904175  26.5466461  71.7249603 179.0206604  24.0099869
  72.8160934 178.6564484  24.4440613  71.5059586 179.1898499  22.6616230
  70.6237183 179.5814819  22.3643475  72.5213852 178.6924896  21.6742535
  72.6718979 177.6536407  21.9679623  72.0086060 178.8945312  20.2217159
  71.9826889 179.9771729  20.0979862  72.7732849 178.3810730  19.6388512
  70.6664810 178.3970947  19.7903099  69.9083786 178.8246918  20.4464588
  70.3419876 178.8548126  18.4102402  71.1550827 178.4310913  17.8208046
  69.3448715 178.5491028  18.0933666  70.3327866 179.9302368  18.2327709
  70.6611938 176.8697357  19.8483562  71.0079651 176.4199524  20.7787056
  69.6648254 176.4660645  19.6683216  71.3589096 176.5982208  19.0561600
  73.8726654 179.5031738  21.8556938  74.9245071 178.9436951  21.5964584
  73.7823486 180.7662506  22.2290955  72.8795242 181.1858063  22.0588417
  74.9440689 181.6317291  22.4486752  75.5322800 181.5640869  21.5335026
  74.5334625 183.0916443  22.6045666  73.5989151 183.1867218  23.1574516
  75.2145081 183.5551758  23.3183060  74.5379639 183.9209442  21.3361702
  75.7372284 184.3410339  20.7194405  75.2930298 184.9440918  19.5499897
  75.8611526 185.5271912  18.8403168  73.9198380 184.9464417  19.4887295
  73.4171600 185.3136749  18.6933975  73.4336090 184.2440643  20.5944176
  72.4073257 184.1806488  20.9247646  75.9315186 181.1261292  23.5194855
  77.0972748 181.4405975  23.4647751  75.4249039 180.3323212  24.4872169
  74.4744339 179.9925690  24.4515667  76.2558823 179.5738678  25.4306812
  77.1505661 180.1735077  25.5982342  75.4478683 179.3830109  26.7449303
  74.4014587 179.1126404  26.6034336  75.8484879 178.5060883  27.2534752
  75.4694748 180.5415649  27.7014656  76.4915009 180.9093018  27.6102715
  74.7924805 181.3460541  27.4141331  75.2216568 179.9819336  29.1871223
  75.9493561 180.2212372  30.1621857  74.1964645 179.2997894  29.3685608
  76.7764664 178.2612305  24.8948498  77.7109909 177.6952820  25.4542236
  76.1899414 177.6768341  23.8194523  75.5678635 178.1967621  23.2171364
  76.7959671 176.5022278  23.1649303  77.2714996 175.9396362  23.9683361
  75.6703796 175.5932312  22.5768795  75.1833954 176.2503052  21.8563175
  76.1322784 174.6856232  22.1883163  74.6229248 175.0713043  23.4931889
  74.8621216 174.7145844  24.7613888  75.7752838 174.9338379  25.2947559
  73.7863922 174.0121918  25.2872086  73.7781601 173.6081696  26.2128448
  72.7604218 173.8695679  24.3635101  71.5283356 173.2212677  24.4263859
  71.1801605 172.7176971  25.3161011  70.7353973 173.2170105  23.2570419
  69.7989120 172.6802063  23.2922325  71.2936554 173.6737061  22.0394154
  70.7762527 173.5330353  21.1019135  72.5070114 174.3594360  22.0340672
  72.8243713 174.8128357  21.1066380  73.2747726 174.4870453  23.1991940
  77.8576508 176.8588409  22.0997467  78.7194672 176.0357208  21.8072224
  77.8768158 178.1186066  21.6308823  77.1230850 178.7500458  21.8617039
  78.8980255 178.6266479  20.7712040  79.7807236 177.9955444  20.8745155
  78.3932114 178.5131226  19.3711090  77.8283539 177.5902710  19.2391968
  77.6458282 179.2835846  19.1816368  79.4796982 178.7207336  18.3638287
  80.6322861 179.0712585  18.7048206  79.2247925 178.4515228  17.1493816
  79.2646866 180.1352234  21.0825272  78.7022858 181.0629272  20.5312119
  80.1567764 180.3121033  21.9870682  80.5180740 179.4225922  22.3006477
  80.5395889 181.6619110  22.4804325  79.5883179 182.0884399  22.7986603
  81.4407883 181.4894409  23.7599049  82.4184570 181.0701904  23.5222111
  81.5870361 182.4804993  24.1894398  80.8835449 180.6430664  24.9055538
  81.3081512 181.1107941  25.7938404  79.7937241 180.6269989  24.9170589
  81.4353790 179.1629181  25.0018005  81.3460999 178.4811859  23.9514389
  81.8983612 178.7291107  26.0766869  81.1859131 182.5719910  21.4163818
  81.4177475 183.7673798  21.6502914  81.6623383 182.0322418  20.3092747
  81.4837875 181.0443573  20.1982784  82.2237091 182.7321320  19.2118874
  82.6613922 183.6913757  19.4882774  83.3968735 181.9506836  18.5834179
  83.0207672 180.9880219  18.2371025  83.8017731 182.4720764  17.7160511
  84.5135880 181.7498932  19.5985279  84.5895309 180.7166290  20.2668209
  85.4650040 182.6864319  19.7027225  86.2700348 182.5195007  20.2893677
  85.4438324 183.5432434  19.1683769  81.2401505 183.0318451  18.0103550
  81.6529770 183.5503235  16.9816685  79.9813614 182.5785980  18.1011562
  79.7682571 182.0598145  18.9411240  79.0139618 182.5788727  16.9844379
  79.3934784 182.0644684  16.1015644  77.7659378 181.8546600  17.4328060
  77.9398727 180.8544922  17.8296852  77.3516769 182.4279175  18.2621899
  76.6415176 181.6960907  16.3694916  77.1411057 181.9761200  15.4420767
  76.0367737 180.3512268  16.4164295  75.7010498 180.2011261  17.4425144
  75.1534653 180.3854828  15.7787142  76.7986908 179.6088104  16.1789513
  75.4741364 182.6724396  16.7102070  75.7419434 183.7289734  16.7196922
  74.6959381 182.4606628  15.9769564  74.9704285 182.4824219  17.6579742
  78.6252213 184.0193024  16.6108952  78.2395248 184.8092041  17.4119434
  78.6246796 184.1970062  15.2727470  79.1106110 183.4617310  14.7794456
  77.9651642 185.3290405  14.4747696  77.7062759 186.1533508  15.1392918
  79.0048981 185.7939758  13.3354912  79.1858673 184.9668884  12.6490097
  78.5965500 186.6483917  12.7957373  80.2850952 186.2807159  13.9207783
  80.0966721 187.1690369  14.5236626  80.5864487 185.5280609  14.6493359
  81.4763870 186.6170807  12.9801598  82.3745499 186.8744202  13.5415792
  81.5767288 185.7094574  12.3849831  81.1267853 187.8651428  12.0833492
  81.4571304 187.7410431  11.0520515  80.0490265 188.0279846  12.0797701
  81.8604202 189.0923157  12.5546970  82.8196945 189.1619263  12.2463789
  81.3902206 189.9503479  12.3041239  81.9567719 189.1429138  13.5588169
  76.6571426 184.9635925  13.9712076  76.5351944 183.8846283  13.3557186
  75.6246262 185.7536926  14.2478142  75.7809525 186.6293793  14.7262001
  74.1946182 185.3845062  13.8970919  74.0318069 184.4229279  14.3838854
  73.1987686 186.4011993  14.3383503  73.4581299 187.4015961  13.9918747
  72.2663269 186.1519165  13.8318710  72.8813934 186.4375610  15.8968220
  73.7216034 185.8741608  16.6127167  71.7803879 186.9278412  16.2848396
  73.9968796 185.0991821  12.3354597  73.0244598 184.4760590  12.0005531
  74.9116974 185.5425568  11.4779196  75.6432266 186.1402588  11.8352957
  74.9476471 185.4137421  10.0190449  74.0646515 185.8955688   9.5992155
  76.1444016 186.1289673   9.4761362  76.9949341 185.4911957   9.7168522
  76.1023636 186.2075958   8.3897877  76.2996292 187.5756836   9.9721165
  76.5820770 187.6509857  11.0221891  77.1051483 188.0706024   9.4296274
  74.9649811 188.2919006   9.7389126  74.4513474 188.3115997   8.5798988
  74.3634720 188.8689728  10.6800060  75.0296555 183.9077148   9.5491657
  74.7509537 183.6853485   8.3924303  75.4821091 182.9479218  10.4067402
  75.8184433 183.2597351  11.3066025  75.5024643 181.4847717  10.0958099
  75.6551743 181.3050537   9.0316210  76.5962601 180.8252411  10.8944635
  76.7784424 179.8133392  10.5325584  77.5559616 181.2884521  10.6653070
  76.1894836 180.8541565  12.3055973  76.7175903 180.1937561  12.7601213
  74.1319962 180.8016357  10.3505945  73.9258728 179.6762695   9.9715605
  73.3053284 181.4617767  11.1003351  73.5643539 182.3992767  11.3725090
  71.9186554 180.9795074  11.4446373  71.8100052 179.9002838  11.3371334
  71.5731888 181.2442780  12.8986635  71.8671036 182.2853088  13.0327425
  70.5114059 181.0849915  13.0866728  72.4482040 180.4577789  14.0156622
  73.4712067 180.8339996  14.0097046  71.9878006 180.7389679  15.4713011
  70.9392014 180.4577789  15.5686359  72.6359329 180.2245789  16.1808300
  71.9737473 181.8062439  15.6922512  72.4296112 178.9153442  13.7136431
  72.8955917 178.7439575  12.7432890  73.0006790 178.3364716  14.4395161
  71.4148102 178.5205078  13.7624893  70.8158035 181.6254425  10.5567999
  70.9391098 182.7692719  10.0639610  69.7223892 180.8546448  10.2790222
  69.5550842 179.3933105  10.3746214  69.1977234 179.2353516  11.3921881
  70.5068512 178.9294281  10.1156721  68.4571838 179.0432587   9.3954182
  67.9720917 178.1442871   9.7757225  68.9742050 179.0171967   8.4361935
  67.5916672 180.3016968   9.2499781  66.8156281 180.2701263  10.0147409
  67.2192688 180.2745514   8.2259274  68.6013336 181.4130249   9.5135641
  68.9929276 181.8011627   8.5732975  67.8025589 182.5305634  10.2253819
  67.7178421 182.5271149  11.4676456  67.2054901 183.3999939   9.4232073
  67.3218155 183.2473907   8.4316025  66.2403107 184.4880066   9.8745747
  66.5959167 184.6640015  10.8897953  66.4089584 185.7657928   9.0755320
  65.7736893 186.5675201   9.4520454  67.8381805 186.2656708   9.2835846
  68.6297302 185.6072845   8.9257326  67.9519043 187.2026672   8.7384157
  67.8859940 186.4726715  10.3526802  66.2839584 185.5147705   7.6890683
  66.5608215 186.2430573   7.1282315  64.7842560 184.0366058   9.9266167
  63.9839706 184.4859619  10.7344627  64.4194641 183.0457611   9.0529633
  65.0765533 182.6581726   8.3910685  63.0779381 182.4527283   8.8815804
  62.3697624 183.2622833   9.0582600  62.9265633 181.8223114   7.4741311
  63.3288689 182.4580994   6.6854415  63.4971352 180.8935852   7.4760804
  61.4652710 181.6870117   7.1609383  60.6249466 182.5181580   7.3854303
  61.1091614 180.4857941   6.6632500  60.1816254 180.3668060   6.2816529
  61.8397408 179.7893677   6.6999164  62.8194199 181.4437103   9.9718752
  63.6495819 180.5490723  10.1153450  61.7281036 181.5262909  10.7676468
  60.7975464 182.6709290  10.8189659  60.6117134 183.1927185   9.8801899
  61.1642418 183.4871674  11.4413700  59.6108131 182.0716553  11.5577354
  58.9136887 181.5437012  10.9070616  59.1535721 182.8598175  12.1559324
  60.1606178 181.1838074  12.6286449  59.4275436 180.4011230  12.8238401
  60.4886436 181.7400513  13.5067625  61.4485092 180.6693573  11.9401875
  62.2776794 180.7040863  12.6468496  61.2899933 179.1950531  11.6201906
  61.7750816 178.3030548  12.3496761  60.7468491 178.8695374  10.4261484
  60.4134064 179.6355133   9.8585310  60.6062202 177.4802551   9.9860725
  60.0130463 176.9434662  10.7264175  59.9184380 177.4379272   8.6149549
  60.4096107 178.2090302   8.0214396  60.0675049 176.1459961   7.8776813
  59.7974396 175.2624664   8.4560843  59.5173035 176.0490265   6.9417472
  61.0964050 176.1780396   7.5192876  58.3906250 177.6478119   8.6727133
  57.8078880 177.2410126   7.8462577  58.0015602 177.1735077   9.5736895
  58.0042992 179.1016693   8.6766014  58.5369034 179.6716003   7.9152899
  56.9297409 179.1830444   8.5128756  58.2584457 179.5557251   9.6343794
  61.9899101 176.8327942  10.0027771  62.1955299 175.8455353  10.7077446
  62.8802719 177.3974915   9.2022963  62.4975777 178.1668549   8.6715088
  64.2651291 176.9807739   9.0128880  64.2944946 175.9971313   8.5441961
  65.0253296 177.8948822   8.0549402  65.1370773 178.8826141   8.5021763
  65.9630203 177.3818054   7.8414278  64.3063965 178.1671143   6.7096281
  63.0541344 178.3856049   6.6520348  65.0342789 178.2251434   5.6888638
  65.1047516 176.8109283  10.2556944  65.8099136 175.8357544  10.4284067
  64.9888992 177.8213959  11.1448517  64.3690414 178.5525055  10.8264961
  65.6344528 177.9604950  12.4033985  66.7100983 177.7858582  12.3789158
  65.3899155 179.3745880  12.9117184  65.7502365 180.0439301  12.1305342
  64.3290100 179.5859375  12.7778740  65.8856354 179.6450043  14.3146505
  65.0619278 179.2753143  15.3789225  64.0940475 178.8465118  15.1650543
  65.4334030 179.6346893  16.6692162  64.7932129 179.3955078  17.5054855
  66.6226959 180.3336334  16.8889523  66.9388275 180.6035919  17.8857422
  67.5140533 180.6119385  15.8000278  68.4937592 181.0036011  16.0306396
  67.1157379 180.2757874  14.5446959  67.7686844 180.3431396  13.6870661
  65.1428375 176.8577271  13.3355217  65.8406906 176.0816193  13.9067640
  63.8316765 176.6874695  13.4803467  63.1595383 177.3576508  13.1351061
  63.3251343 175.6262360  14.3041821  63.8610649 175.7176514  15.2489176
  61.9072495 175.8224182  14.6228437  61.5558319 175.2598572  15.4877911
  61.6957321 176.8521576  14.9109507  61.1571693 175.5200653  13.4450970
  60.9790344 176.3184357  12.9426517  63.7194328 174.2077637  13.8262825
  64.0771866 173.3098907  14.6298370  63.6713371 173.9787292  12.4949512
  63.1660728 174.6367798  11.9189501  64.1134644 172.7784576  11.8339119
  63.5104523 171.9773865  12.2614260  63.7826157 172.8986664  10.3069382
  63.9176865 173.9414520  10.0197954  64.5135117 172.2933655   9.7707376
  62.4457321 172.4376984   9.8088751  61.7122612 171.3964844  10.4146795
  62.0579262 171.0882568  11.3903370  60.5197067 170.9071808   9.8468761
  59.9146233 170.1767426  10.3633366  60.1016541 171.4408569   8.6242723
  58.8930740 171.0034180   8.1406107  58.6532059 171.7081909   7.5345111
  60.8310471 172.4256439   7.9331703  60.4220200 172.7193756   6.9777555
  61.9984322 172.8933716   8.5529394  62.6295433 173.5800934   8.0083971
  65.5673218 172.4731140  12.1591473  65.8590393 171.3795624  12.6580753
  66.5014496 173.4196320  12.0287819  66.2580490 174.3059845  11.6101637
  67.9291687 173.2901001  12.4304581  68.4283676 172.4982300  11.8720379
  68.6420364 174.6941376  12.2273788  68.5880966 174.9773407  11.1761951
  68.1572800 175.5263062  12.7378969  70.0968552 174.6930847  12.6335773
  70.4982376 175.6864166  12.4328508  70.2100601 174.4781189  13.6961575
  70.9892960 173.7739563  11.7149420  71.9468079 173.7738953  12.2357836
  70.6566544 172.7368622  11.6718025  71.0892105 174.3804932  10.3741426
  70.3388290 174.0848083   9.7662048  72.0091705 175.2877808   9.9436331
  72.9806747 175.8300934  10.7011738  72.9954605 175.5826416  11.6802816
  73.6622925 176.4585876  10.3005619  72.0706100 175.6319580   8.6957932
  71.4921722 175.1380157   8.0313148  72.8255997 176.2512360   8.4377365
  68.0359192 172.8289185  13.9627504  68.8131943 171.9084625  14.2726994
  67.2441406 173.3409424  14.8778753  66.6774292 174.0643311  14.4587831
  67.3422470 173.1238861  16.3245049  68.3936234 172.9523773  16.5553551
  66.9724197 174.3870850  17.1432457  66.0558090 174.8263550  16.7495899
  66.8639221 174.2009125  18.7201424  67.8512726 174.1472931  19.1787968
  66.3156586 175.0594025  19.1080971  66.3469467 173.3163147  19.0920563
  67.9814148 175.5126648  17.0234413  67.9868851 175.6367188  15.9405355
  67.5379105 176.4093933  17.4561901  68.9781036 175.3380890  17.4287205
  66.6716309 171.7652893  16.7100468  67.2469101 171.0191650  17.4935665
  65.4712296 171.4600220  16.1385880  65.1022949 172.1618195  15.5129166
  64.8540421 170.1147766  16.2156811  64.6934204 169.8204041  17.2528172
  63.4266052 170.1161957  15.6175308  63.5291214 170.5709991  14.6322670
  63.0070839 169.1133881  15.5369959  62.7220612 170.7102661  16.1995888
  65.7894516 168.9898376  15.5979033  65.8375778 167.9373932  16.2627010
  66.4870529 169.2540894  14.4892416  66.3246841 170.1289673  14.0113907
  67.4996414 168.3703613  13.9631624  67.0076523 167.4264679  13.7284250
  68.0586853 168.9750519  12.6673985  68.3020096 170.0293579  12.7990398
  69.0213165 168.4788666  12.5438967  67.4225998 168.8470154  11.7915506
  68.5224915 168.1763458  15.0662718  68.7978745 167.0566711  15.4861240
  69.1391525 169.2632141  15.5639992  68.9065399 170.2114716  15.3055553
  70.3317413 169.0746918  16.4363003  70.7092590 168.1080017  16.1030064
  71.4167938 170.0771332  16.1487617  72.3358231 169.8224640  16.6766243
  71.7663879 169.9262390  15.1274261  70.9204025 171.7113342  16.4313164
  70.0563049 171.8666534  15.4242926  70.1393585 168.9184418  17.9174099
  71.0951691 168.6748962  18.6589565  68.9129257 168.9451294  18.4757748
  68.1245041 169.2075958  17.9016609  68.6222992 168.7286377  19.8659668
  69.2859116 169.3644714  20.4519997  67.1527328 169.1174469  20.1152153
  66.5917358 168.9331818  19.1990128  66.7535553 168.4014587  20.8336449
  66.8808289 170.5667114  20.5400639  67.4761810 171.2326813  19.9154530
  65.4197922 170.9061737  20.6370792  64.9226456 170.3800964  21.4520569
  65.3677979 171.9702454  20.8676071  64.9979706 170.6815186  19.6574402
  67.4647598 170.7623901  21.9914589  68.5525436 170.7418060  21.9251251
  67.0781555 171.7187500  22.3436451  67.1382294 169.9654694  22.6595707
  68.8103867 167.2460480  20.3847008  68.4196854 166.2770386  19.7082310
  69.4199524 167.0081940  21.5102463  70.0657425 168.0794830  22.2858162
  69.3146515 168.7229156  22.7440186  70.7475815 168.6575775  21.6621113
  70.8727264 167.4027710  23.3662949  70.2275391 167.2803497  24.2362633
  71.7455673 168.0104675  23.6049290  71.1670990 166.0409088  22.8556271
  71.3697128 165.3437347  23.6686440  72.0201797 166.1316376  22.1832294
  69.9386520 165.7198792  22.0261135  70.2097397 165.0594025  21.2024803
  68.8444138 164.9540253  22.8256207  68.7238693 164.9774780  24.0793705
  67.9026260 164.2032928  22.1075573  67.9242249 164.1030426  21.1027756
  66.6860962 163.5355377  22.7136230  66.8960800 163.3268127  23.7626419
  65.4810257 164.4796295  22.6018333  64.5377579 163.9359894  22.5489941
  65.2695618 165.3230896  23.8466072  65.9580917 166.1673889  23.8811493
  64.2365875 165.6700897  23.8725739  65.3704987 164.7369385  24.7600307
  65.4892502 165.3218536  21.2814560  66.2497101 166.0963593  21.3812695
  65.7150269 164.6724701  20.4356251  64.1106567 165.8513947  20.9587021
  63.7294388 166.5375519  21.7149944  64.1919861 166.4388733  20.0441742
  63.4295387 165.0146332  20.8037643  66.4427567 162.2348938  22.0884762
  67.0393295 161.8983002  21.0410786  65.7110291 161.4120941  22.8458824
  65.2696075 161.7603760  23.6848946  65.3813934 160.0076599  22.4563751
  66.2954865 159.5175629  22.1211948  64.8409958 159.2976990  23.6729050
  64.5748138 158.2557831  23.4949970  65.6229858 159.3128052  24.4320889
  63.6841774 159.9243622  24.2545261  63.8430481 160.9638824  24.9233608
  62.5188560 159.4172821  24.1339417  64.3859024 159.9776154  21.2601376
  63.8390198 160.9867554  20.8459587  64.2214050 158.7677612  20.6681671
  64.7427826 157.9914856  21.0498219  63.4223862 158.6712799  19.3885059
  63.8084755 159.4323730  18.7104416  63.7294426 157.3751526  18.6209736
  63.3879280 156.5156555  19.1978035  63.3449707 157.2991486  17.6038685
  65.1909943 157.1973877  18.4077797  65.8081055 158.1381073  17.8046799
  65.7649689 156.1994324  18.8999176  61.8846512 158.9374542  19.4225159
  61.2215080 159.6142883  18.6495399  61.2748604 158.5362244  20.5993481
  61.7854424 158.1286316  21.3695889  59.8335686 158.7598572  20.7936230
  59.3239594 158.3162842  19.9382668  59.4411049 157.8879547  21.9985332
  59.9365311 158.2234955  22.9096127  58.3688393 157.8629303  22.1927586
  59.7563972 156.8575134  21.8344841  59.4638405 160.2753906  20.9725266
  58.5458755 160.7398071  20.2567635  60.3780060 161.0799866  21.5805817
  61.1924515 160.6781006  22.0224667  60.4178047 162.5442810  21.6036148
  59.3577080 162.7049561  21.7998257  61.2099686 162.8925476  22.8772602
  60.7292900 162.3562164  23.6954308  62.2502327 162.5815430  22.7811947
  61.1288109 164.3865356  23.2312298  61.7606697 165.0418701  22.6317425
  59.7033157 164.9183807  23.3553410  59.1287308 164.2489929  23.9955597
  59.6829071 165.8989868  23.8308411  59.3032990 165.1359253  22.3650055
  61.6676674 164.4341583  24.6807232  62.6221123 163.9319458  24.8385735
  61.8091507 165.4914398  24.9048653  60.9198456 164.1285858  25.4124947
  60.7944603 163.2481995  20.3339500  60.0814934 164.2077789  20.0167217
  61.7245979 162.7759399  19.5314808  62.1372719 161.9626617  19.9654961
  62.0061340 163.2020111  18.1508408  62.0331001 164.2884216  18.0666142
  63.3711052 162.6556244  17.6587334  63.3558426 161.5657501  17.6535892
  63.5202560 163.0066833  16.6376476  64.4859848 163.2548370  18.5141411
  64.5465012 164.3373260  18.4015102  64.3070145 163.0206757  19.5635376
  65.8576508 162.7657318  18.1364574  66.5952148 163.1280212  18.8525906
  65.8033600 161.6833344  18.2529087  66.3706360 162.9723511  16.7157459
  66.3390121 162.1427765  16.1405125  67.1495743 164.0053558  16.3479881
  67.3282547 165.0591583  17.0629406  66.6866913 165.3081055  17.8022137
  67.8108673 165.8533020  16.6673183  67.8507233 163.9629211  15.2525988
  67.9692764 163.0895386  14.7593975  68.3634415 164.7694855  14.9259748
  60.8720245 162.8786926  17.1107311  60.6998444 163.7260590  16.2293186
  60.0198288 161.8461456  17.3230686  60.3106956 161.0983582  17.9365025
  58.7195778 161.6890717  16.7473183  58.8278503 161.8393097  15.6731596
  58.2410049 160.1755981  16.9876633  58.5883331 159.9571686  17.9974918
  56.7532387 159.9263763  17.1483746  56.2680397 160.2604980  16.2312794
  56.5300331 158.8671570  17.2761860  56.4874496 160.4295044  18.0780678
  58.7563705 159.2069092  15.8793507  58.1098442 159.2294922  15.0020866
  59.7095871 159.5628967  15.4885225  58.9458885 157.7280426  16.3643398
  57.9850807 157.2896118  16.6340122  59.2605438 157.0994720  15.5312843
  59.6514854 157.6505890  17.1915226  57.6720085 162.7252655  17.1762447
  56.9706993 163.2674866  16.3036842  57.4442444 162.9095154  18.4893627
  57.8828621 162.2828064  19.1488743  56.4990387 163.9028015  19.0270424
  55.4943085 163.5965881  18.7357635  56.4257011 163.9497833  20.6176701
  57.3849716 164.1571655  21.0918922  55.7526932 164.7558594  20.9098873
  55.9187088 162.6834564  21.3469143  56.4661026 161.8006592  21.0165558
  56.1365356 162.8406067  22.4033012  54.4561462 162.2822876  21.1354332
  53.7676163 162.6191406  20.1805954  53.9591217 161.5751038  22.0841503
  53.0849380 161.0972900  21.9180260  54.4683647 161.3119049  22.9157162
  56.8621750 165.2754364  18.4780655  55.9979439 166.0050964  18.0892162
  58.1276207 165.6698914  18.4645290  58.7586250 165.1696472  19.0741920
  58.6368370 166.9615021  17.9240341  58.1007156 167.7622528  18.4334278
  60.1140976 167.1674652  18.3443909  60.2022591 166.8872681  19.3940639
  60.7353287 166.5208130  17.7247086  60.6699409 168.5695648  18.1397057
  60.7145615 168.7239075  17.0616055  59.7762184 169.7002106  18.6778774
  59.5916290 169.5518494  19.7418385  60.2353363 170.6801147  18.5471249
  58.8573990 169.7824402  18.0972614  62.0149040 168.7566223  18.7820358
  62.7496986 168.0690002  18.3632774  62.3474388 169.7887573  18.6714706
  61.9952126 168.6127930  19.8623257  58.4788818 167.0388489  16.4075489
  58.0334892 168.0686798  15.9140730  58.9278107 166.0331726  15.6677895
  59.3812103 165.2619019  16.1364918  58.7544670 165.9057770  14.1919899
  59.3144188 166.7242889  13.7396727  59.3128662 164.5880280  13.6542549
  60.3991966 164.6747131  13.6760550  58.8428078 163.8534546  14.3081264
  59.1168137 164.0202179  12.2217989  58.0475273 163.8492584  12.0972576
  59.6975861 164.9349823  11.2180176  60.7581749 165.1058197  11.4025774
  59.5674019 164.6007233  10.1887341  59.2734833 165.9387207  11.2456388
  59.9974823 162.7327881  11.9990282  59.6754227 161.9382782  12.6721716
  59.9063034 162.2955933  11.0047207  61.0483589 162.9072113  12.2299776
  57.2827759 166.0910034  13.8470650  57.0266838 166.5112000  12.7166739
  56.3293953 165.6219025  14.6268244  56.5795021 165.1917114  15.5057306
  54.9089813 165.7099152  14.2721653  54.6872063 165.2808533  13.2950191
  54.0731354 164.9510345  15.3466282  54.5599632 165.0983429  16.3106804
  53.1132355 165.4321442  15.5342999  53.6858101 163.4713287  15.1375685
  53.1902809 163.2960205  14.1826782  54.5610962 162.8272858  15.0528708
  52.7089806 163.0464172  16.3294106  53.2781677 162.9854431  17.2569923
  52.0082550 163.8170471  16.6506462  51.9747391 161.7199402  15.9971714
  51.5789490 161.8537445  14.9904194  52.7567940 160.9778137  15.8367186
  51.0101166 161.4444885  16.9994144  50.2833252 162.1437683  16.9457321
  50.5843620 160.5706482  16.7251205  51.4307137 161.3385925  17.9115467
  54.3902969 167.1335907  14.1023178  53.2867241 167.3471375  13.5047531
  55.0093803 168.0572052  14.9390793  55.9156189 167.8386536  15.3277617
  54.3975601 169.3227692  15.3709373  53.3912010 169.1563110  15.7551718
  55.2599640 170.0587616  16.4271832  56.2618561 170.3167419  16.0840225
  54.5838547 171.3984222  16.7377853  53.5029984 171.3728485  16.8763542
  55.0242348 171.8167572  17.6428642  54.7101479 172.1370850  15.9462414
  55.4442978 169.2121277  17.6932945  56.0159607 168.3415222  17.3718166
  56.0503464 169.8572693  18.3293762  54.1020355 168.9132996  18.4135704
  53.4449158 168.2968903  17.8001022  54.3688965 168.2962189  19.2715378
  53.6014023 169.8087158  18.7819405  54.2905693 170.2713165  14.1180639
  55.1835480 170.2644196  13.2565174  53.1379967 170.9612885  13.9432096
  52.4859200 170.9885864  14.7140226  52.6392784 171.4732056  12.6256695
  52.8839455 170.7452393  11.8521786  51.5569572 171.4716949  12.7548189
  53.1554756 172.8831024  12.3179989  53.6848526 173.0657043  11.2330189
  53.0560341 173.8341370  13.2908487  52.6636925 173.5094910  14.1630669
  53.6783524 175.1634521  13.1027832  53.8416748 175.3248901  12.0372477
  52.7966194 176.2300110  13.6899576  51.8773384 176.4575043  13.1502647
  52.5931587 175.8660126  14.6970367  53.4331131 177.5207977  13.6559830
  53.0571823 178.0484467  12.9475660  55.1226959 175.1961975  13.5855417
  55.3689651 174.5107422  14.6004238  55.8990440 176.1934814  13.1111021
  55.6308060 176.7453003  12.3088312  57.1218262 176.6428833  13.7789068
  57.7795601 175.7781830  13.8671999  57.8774223 177.6729431  12.9339170
  57.1747513 178.3037872  12.3895025  58.5867996 178.2980957  13.4762096
  58.2676392 177.1740112  12.0468416  56.8595695 177.2170868  15.2103691
  57.7365570 177.0773010  16.0631657  55.7048378 177.8515625  15.4076262
  55.1324768 178.0686188  14.6042671  55.4004898 178.3814545  16.7264423
  56.1870155 179.0813293  17.0086861  54.1326141 179.2515869  16.7256718
  53.4011307 178.5694580  16.2923946  53.6414528 179.5884247  18.1619339
  54.4195442 180.1173096  18.7123508  52.7552528 180.2226868  18.1832924
  53.4471931 178.6946564  18.7548637  54.3213310 180.5113983  15.8003750
  54.9505463 181.2082367  16.3540859  54.8138771 180.2236023  14.8715725
  52.9892845 181.1577301  15.4545078  52.5935555 181.6513672  16.3420963
  53.1343117 181.9269867  14.6960182  52.3146172 180.3752747  15.1070776
  55.4182625 177.2409668  17.7657738  56.1739922 177.2903137  18.7084866
  54.5713692 176.2238159  17.5957355  54.0026855 176.1615295  16.7633762
  54.4653130 175.0798187  18.5303555  54.3675156 175.2664948  19.5997887
  53.4306831 174.1710358  17.8737068  53.8059883 173.9384155  16.8771439
  53.3142586 173.2527313  18.4492607  51.9953461 174.6803436  17.7126827
  51.5583534 174.6562958  18.7109623  51.9716988 175.7067261  17.3464985
  51.1539192 173.9795074  16.6480961  51.6227074 173.3171692  15.7472830
  49.8222618 174.0979767  16.6652451  49.2779541 173.5842133  15.9871054
  49.4356003 174.7913208  17.2896519  55.7684784 174.3737488  18.5785236
  56.2094994 173.9125366  19.6589680  56.4798660 174.1362000  17.4271870
  56.1643066 174.4311066  16.5141983  57.8254051 173.5269928  17.4747486
  57.6653099 172.5424347  17.9142227  58.2760468 173.2872162  15.9814243
  57.3253212 173.0378571  15.5102119  58.7200241 174.1913910  15.5649595
  59.2368507 172.0597076  15.8210211  60.2518387 172.2671204  16.1599598
  58.8921547 171.2451477  16.4580307  59.2242126 171.4755096  14.3868828
  59.9896545 170.7001190  14.4179134  58.2444687 171.0667114  14.1397409
  59.6929016 172.4811707  13.4025126  60.5917931 172.9082947  13.5747461
  59.0231514 172.8706512  12.3545704  57.8543587 172.4246063  11.9822683
  57.3649712 171.7253876  12.5223522  57.4064407 172.7798920  11.1496563
  59.5735550 173.7772369  11.6125898  60.4253731 174.2630157  11.8545189
  59.0121651 174.0274963  10.8111477  58.8144798 174.2488556  18.4127178
  59.3740845 173.5994568  19.2684975  58.9562492 175.5267029  18.3028297
  58.6108398 176.0717010  17.5258007  59.7593803 176.4357605  19.1997795
  60.7416420 175.9643707  19.2324123  59.7607613 177.8927460  18.7531452
  58.7091789 178.1680603  18.6726322  60.2990456 178.5594788  19.4268150
  60.3118172 178.2721710  17.3821850  60.1507301 177.5063019  16.6235085
  59.5811996 179.5066223  16.7576332  60.0413666 180.4025879  17.1742496
  59.7506676 179.5688171  15.6826868  58.5205574 179.5111847  17.0088634
  61.8484268 178.4363251  17.3959198  62.3229179 177.4673920  17.5512295
  62.1987953 178.9027252  16.4751511  62.1295280 179.1405029  18.1790161
  59.3948593 176.3313751  20.6708450  60.2440681 176.1818390  21.4834404
  58.1210861 176.3350830  20.9753838  57.4589615 176.3685150  20.2134285
  57.5389633 176.1213684  22.3040581  57.8875542 176.8283081  23.0569267
  56.0298882 176.2410583  22.1333408  55.6725197 175.7033691  21.2551174
  55.6100807 175.7789154  23.0268097  55.5197258 177.7348480  22.0715714
  55.7515717 178.1160278  23.0660763  56.0422211 178.2634735  21.2742901
  53.9627151 177.7567749  21.8878994  53.5960274 178.7831116  21.9038467
  53.6871948 177.3628845  20.9096069  53.3176231 176.9242249  22.9561615
  53.2701378 175.9473114  22.7041607  53.0282669 177.2682037  24.1449013
  53.1749763 178.4817810  24.5934143  53.4747314 179.1659698  23.9136181
  52.8377724 178.7569275  25.5048351  52.5102081 176.4340820  24.9756145
  52.2689209 175.4812164  24.7433643  52.3734398 176.7263184  25.9326859
  58.0044746 174.7947388  22.8978653  58.4878387 174.7227173  24.0403957
  57.9599152 173.7638702  22.0386105  57.5970688 173.8798370  21.1031990
  58.2845497 172.3980865  22.4328480  57.6314774 172.3148499  23.3015652
  57.7847557 171.4824219  21.3167477  56.7752304 171.7627716  21.0161457
  58.4077873 171.6583557  20.4398327  57.9600143 169.8682251  22.0591488
  57.6128273 169.1568909  20.9828701  59.8182182 172.2744598  22.6383095
  60.3136864 171.8524323  23.6670551  60.6463585 172.7772980  21.6540279
  60.2303658 173.0983734  20.7914963  62.1162338 173.0175476  21.8273811
  62.6974335 172.0961456  21.7907944  62.7127647 173.7787018  20.6365662
  62.0648766 174.6369324  20.4582920  63.7143631 174.1087036  20.9122620
  62.6806831 173.0104065  19.3149242  63.5253677 172.3218689  19.3374844
  61.7997894 172.3737793  19.2322445  62.6254120 174.0020905  18.1554356
  63.4174652 174.9723358  18.0405807  61.8217735 173.6731720  17.2674847
  62.4667549 173.7707367  23.1150494  63.3572922 173.3341980  23.9055099
  61.8102531 174.8575745  23.4712143  61.0871544 175.1690521  22.8385925
  62.0281181 175.5535889  24.7142544  63.0689774 175.8385010  24.8676949
  61.3251686 176.9352570  24.5749493  60.2548447 176.8535461  24.3856602
  61.3833275 177.4486542  25.5347118  61.9824219 177.8291168  23.5214844
  62.2779465 177.2480164  22.6479340  61.0501747 178.9375000  23.1241951
  60.7244263 179.6724701  23.8602600  61.6386909 179.4205322  22.3441811
  60.2188034 178.5047302  22.5677376  63.2089043 178.5748291  24.1409931
  63.9278069 177.8234863  24.4677525  63.7407913 179.2349854  23.4558773
  62.9401245 179.2305756  24.9691544  61.5593185 174.8439178  26.0056782
  62.1394119 175.0575409  27.0710812  60.5143394 173.9848633  25.9300575
  60.0170822 173.8916168  25.0559063  60.0540009 173.1901855  27.0608635
  59.9291573 173.8213501  27.9407215  58.6414223 172.7024841  26.7354183
  58.0643692 173.6017456  26.5199070  58.6680756 172.0944977  25.8311272
  57.9565811 171.9384155  27.8441010  58.5733261 171.7705078  28.9294510
  56.8834915 171.3745880  27.6140118  61.1595039 172.1086273  27.3524456
  61.7231712 171.9461212  28.4184361  61.6117516 171.4273224  26.2808838
  61.1450768 171.6766663  25.4205704  62.7626877 170.5274811  26.3054733
  62.4732590 169.7871857  27.0513344  62.9831963 169.7689819  24.9585171
  63.0805016 170.4783478  24.1366711  64.1987839 168.9152374  25.0345879
  64.1759872 168.1191254  25.7787571  64.4199600 168.3109283  24.1548119
  65.0301132 169.5737152  25.2863388  61.7169456 168.8922882  24.6586304
  61.7266312 167.9694519  25.2385998  60.8279343 169.4239807  24.9978390
  61.5305557 168.5334167  23.1693115  62.3058891 167.8229828  22.8825455
  60.5008507 168.2260132  22.9868088  61.7116394 169.4102020  22.5475597
  64.0558548 171.2203827  26.8549366  64.7162781 170.6797791  27.7492485
  64.5117493 172.3906708  26.3968658  64.0526886 172.7714081  25.5817566
  65.6514053 173.1627655  26.9445343  66.5374146 172.5282288  26.9236431
  65.9988708 174.4477692  26.1820545  65.1460037 175.1259460  26.1535244
  66.7759628 174.9693451  26.7408009  66.5220184 174.1517029  24.7212944
  67.5295944 173.7414398  24.7889366  65.7696381 173.4223480  24.4211807
  66.4826813 175.6501770  23.6024170  67.7643738 175.1371765  22.3717613
  67.3211060 174.7576599  21.4511223  68.3335114 176.0323792  22.1211243
  68.4535217 174.4221191  22.8210411  65.4515610 173.5760345  28.3999386
  66.4804001 173.7284241  29.1325989  64.2455292 173.8202972  28.8726902
  63.4091949 173.8488770  28.3071537  64.0818100 174.1280060  30.3004665
  64.8602982 174.8050079  30.6522045  62.6992607 174.6821442  30.6026344
  62.0860481 174.0890045  29.9242134  62.4620705 174.5069885  31.6519966
  62.5210381 176.1525726  30.2806473  63.4556313 176.9339294  30.3227253
  61.2987938 176.5382385  29.9628201  61.2612305 177.5043030  29.6705742
  60.5681152 175.8447113  29.8905525  64.3331070 172.8608246  31.1446972
  65.1261368 172.8198547  32.0766411  63.7182159 171.7289581  30.6983643
  63.0420227 171.8804626  29.9635792  63.5882263 170.3957977  31.4895363
  63.5094872 170.6268158  32.5518608  62.3180161 169.7614899  31.0738430
  62.2441139 169.8698578  29.9917641  62.3717079 168.6950836  31.2928715
  61.0660858 170.3647919  31.7461262  61.0655670 170.1737823  32.8192596
  61.0106201 171.4514771  31.6818161  59.8851662 169.7287598  31.0913563
  59.7533760 169.8749084  30.0192699  59.8159866 168.6418610  31.1359997
  58.6512489 170.3596191  31.7166805  58.4035416 169.9406586  32.6919785
  58.7974358 171.4262085  31.8873863  57.4760628 170.1440125  30.8748589
  57.4734802 169.2093658  30.4920597  56.6494141 170.3721771  31.4084206
  57.4552345 170.8374939  30.1408596  64.7376633 169.3841705  31.3425961
  64.8022308 168.4256592  32.1273308  65.5639343 169.5030823  30.3106041
  65.4224243 170.2041321  29.5974407  66.8359070 168.8066711  30.2015896
  66.7332458 167.7968445  30.5988350  67.2458267 168.8001709  28.6547279
  66.4263916 168.3439636  28.0993061  67.4907455 169.8222656  28.3658562
  68.7932205 167.9304047  28.4383621  69.1879120 168.4130096  27.2567501
  67.9424667 169.3971252  31.1702118  68.2445984 170.5844116  31.2372341
  68.6304092 168.5209656  31.9332027  68.3933334 167.5397491  31.8999786
  69.7529221 168.8228302  32.7695541  70.2685165 169.7493896  32.5169983
  69.4465561 169.0720062  34.2595406  70.4232864 169.2187042  34.7205963
  68.6692963 170.3633423  34.5938339  67.8079224 170.4602966  33.9329796
  68.4367218 170.4695129  35.6534233  69.3689499 171.1662292  34.3615532
  68.7669296 167.9438324  34.7817879  68.3124924 168.1865540  35.5918350
  70.8497009 167.7262421  32.6386528  71.8510666 167.9691772  32.0057755
  70.6500931 166.5080872  33.2340088  69.8355789 166.5117035  33.8312187
  71.4374924 165.3572998  33.1191292  72.4900055 165.6396484  33.0942574
  71.3320084 164.5403595  34.3932304  71.7840805 165.0921478  35.2174110
  70.2840881 164.3979340  34.6571999  72.0568085 163.2806549  34.3429184
  71.4209976 162.6655884  34.7158051  71.1962280 164.4962463  31.8207130
  70.1104813 164.3847046  31.3221970  72.1948013 163.7749939  31.3566628
  73.0657959 164.0742950  31.7712612  72.1360855 162.7377777  30.2963009
  71.1116104 162.3905945  30.1620770  72.7101669 163.2908936  28.9655991
  73.7682190 163.4540558  29.1705513  72.7610703 162.5343933  28.1825142
  72.0196991 164.5666199  28.4170933  71.7924347 165.3027344  29.1881943
  72.8717651 165.4183807  27.3801460  73.4287720 164.8452759  26.6389370
  72.2219162 166.1643219  26.9225597  73.7556763 165.8312225  27.8663197
  70.8100128 164.1529999  27.5754547  70.1922455 163.4107513  28.0809479
  70.1879425 165.0315552  27.4043655  71.1216888 163.7192841  26.6252728
  72.9921875 161.5255280  30.6333199  74.2072525 161.5015259  30.8144855
  72.1830063 160.4299622  30.9010925  71.1774063 160.5215302  30.9230614
  72.8367310 159.1795959  31.3426895  73.8306961 159.3673859  31.7487507
  71.9247360 158.6593170  32.4860077  70.9115372 158.4776459  32.1275177
  72.2698746 157.6521912  32.7198105  72.0341873 159.7974548  33.9327698
  71.2510071 158.9725037  34.6334648  72.9320068 158.0759888  30.2165852
  72.3716431 158.2793579  29.1106815  73.5521927 156.9504395  30.4871254
  73.9154358 156.8166809  31.4200039  73.5629044 155.7151794  29.6564693
  73.6851425 156.0382385  28.6226463  74.7034531 154.7907562  29.9355640
  75.6444168 155.3184509  29.7798977  74.6379700 154.5236206  30.9902916
  74.6415939 153.2944031  28.9602070  75.4366150 152.5500793  29.7340374
  72.1670685 155.0560303  29.7082348  71.7036896 154.7907562  30.8094482
  71.5487518 154.6717682  28.5703182  72.0636826 154.9310608  27.7410297
  70.2756271 154.0240631  28.4804802  69.5329208 154.6259766  29.0040989
  69.8782120 154.1166992  27.0029259  69.9664917 155.1340027  26.6215935
  70.6042557 153.5189514  26.4518795  68.4443741 153.6311951  26.6874886
  68.4421082 152.5945129  27.0241852  67.7919846 154.2692261  27.2836494
  68.1733780 153.5659027  25.1363773  69.0062943 152.9977264  24.7222309
  67.2778625 152.9463043  25.0890617  67.9820023 154.9493561  24.4651127
  67.2644043 155.4936981  25.0789871  68.9357529 155.4765015  24.4892406
  67.4923248 154.7507172  23.0382690  66.5265121 154.4575500  23.0012379
  67.4243240 155.5766449  22.4609318  68.1329575 154.1411743  22.5502472
  70.2481613 152.5820312  29.0398846  69.1847153 152.1297607  29.5474834
  71.3750305 151.8218231  28.9804726  72.1606827 152.1966705  28.4682732
  71.4360352 150.5151520  29.6460762  70.5391312 149.9948578  29.3099747
  72.5716934 149.6960602  29.1323395  72.4590759 149.5706482  28.0554504
  73.4716797 150.3032684  29.2293949  72.7282410 148.2722168  29.6709690
  73.0783234 148.4316406  30.6908321  71.8230133 147.6693115  29.5990543
  73.7270966 147.3954773  28.8580456  74.1596832 147.7236481  27.7616253
  74.0831375 146.2461700  29.4100418  74.8280106 145.6984711  29.0034752
  73.7368927 146.0217133  30.3319073  71.3222275 150.5805969  31.1200943
  70.6206970 149.8053131  31.7714634  71.9720840 151.5667725  31.7597313
  72.6257248 152.1527405  31.2602348  71.8545456 151.8596954  33.2256432
  71.8640747 150.8992004  33.7408752  73.1110611 152.6946259  33.5599365
  73.1975098 153.6374512  33.0198288  73.0945740 152.8752441  34.6347427
  74.6284485 151.8280334  33.0748177  74.7146683 151.1023407  34.1932220
  70.5700684 152.5822601  33.6644707  70.0887604 152.4691925  34.7958145
  70.1520081 153.4140167  32.7307281  70.5642090 153.3886108  31.8090210
  69.2487793 154.5566559  33.0132942  69.2482529 155.1212158  32.0808868
  67.8273010 153.9602509  33.2884026  67.8138657 153.5242157  34.2873039
  67.1104507 154.7781525  33.2158585  67.3824463 152.9187012  32.2603760
  67.7059174 153.2474823  31.2727680  67.9538345 151.9996490  32.3905983
  65.9112396 152.5374756  32.3326187  65.0997696 153.0725708  33.0208435
  65.5802307 151.4866486  31.5394535  64.6106186 151.2104797  31.4787712
  66.2358932 151.0524750  30.9056530  69.6662750 155.5839386  34.0522575
  69.4503632 156.7584229  33.7343864  70.4328461 155.2955627  35.0731087
  70.5575256 154.3096313  35.2534027  70.7150192 156.2479553  36.1758270
  70.1134872 157.1315002  35.9622765  70.4098892 155.6382141  37.5480995
  70.4290390 156.3643341  38.3608055  69.3997955 155.2351685  37.4748497
  71.3067627 154.4046936  37.9509392  72.1668777 154.0169220  37.1494141
  71.0966644 153.8581543  39.0742188  72.1012192 156.8195801  36.3666191
  72.3080444 157.6770782  37.2019157  73.0791550 156.3689117  35.5979424
  72.8380508 155.7255554  34.8576279  74.4950714 156.8596954  35.6779785
  74.6889801 157.0843811  36.7267952  75.3905487 155.6690674  35.3687973
  75.2273483 155.2211151  34.3885880  76.8403931 156.0120239  35.5039253
  77.1547546 156.2138824  36.5278969  77.3889771 155.1268921  35.1818810
  77.2020950 156.8262939  34.8760490  75.2938919 154.6758423  36.3517036
  74.3764114 154.4371490  36.5028763  74.7542419 158.0229187  34.7369118
  74.7548599 157.8710480  33.4911613  75.1512299 159.1660309  35.3057671
  75.0572357 159.2343597  36.3090630  75.4670258 160.3933105  34.5863495
  74.6416855 160.6436310  33.9198303  75.5681152 161.5472412  35.6012383
  74.5839691 161.5713043  36.0691948  76.2684479 161.3166199  36.4040184
  75.9235382 162.8566437  34.8177147  76.8414078 162.5605011  34.3098488
  75.2543716 163.0627289  33.9823494  76.1418076 164.0416870  35.7909546
  76.0159836 163.8756714  37.0197639  76.4712524 165.1625824  35.3367691
  76.6671677 160.1035919  33.6841049  77.6895370 159.6983490  34.1433258
  76.5613785 160.4668427  32.3873367  75.6865387 160.8293304  32.0361214
  77.7019577 160.5906830  31.5048656  78.5945969 160.2198334  32.0086098
  77.5435028 159.7402039  30.2310219  76.4993820 159.6802368  29.9239120
  78.4013824 160.3063507  29.0705986  79.4412766 160.3975677  29.3842659
  78.4964828 159.6378326  28.2149448  77.9771500 161.2428894  28.7086411
  77.9267349 158.2375031  30.3409615  77.7755661 157.8221283  29.3446083
  79.0026779 158.1194305  30.4694576  77.2231979 157.4267883  31.3880386
  76.1419220 157.4323578  31.2504768  77.7139053 156.4555969  31.4520359
  77.3314819 157.8878021  32.3697968  77.9843140 162.0695953  31.3054943
  79.1396713 162.5063019  31.4286346  77.0162506 162.8530579  30.9162121
  76.0651627 162.5397034  30.7845306  77.2184677 164.2725677  30.6997337
  78.0385437 164.6044617  31.3364620  77.6287003 164.5004425  29.2346878
  78.4020157 163.7950287  28.9305725  76.4052048 164.3601532  28.2846527
  75.5645599 165.0108643  28.5254917  76.6399384 164.5572815  27.2386379
  75.9921570 163.3520660  28.3199806  78.1431961 165.8315735  29.0202198
  79.0887680 165.7827148  29.1786613  76.0640793 165.1798553  31.0696564
  74.9144440 164.7431335  31.2720242  76.2961960 166.4766693  31.2615891
  77.1679382 166.8707123  30.9377327  75.3571167 167.5323181  31.8246098
  74.3739853 167.0783844  31.9490986  75.8781357 167.9810944  33.1283569
  75.9479523 167.0883636  33.7498474  77.1955948 168.7546692  33.1223030
  77.1004105 169.7270660  32.6391335  77.6432571 168.9292450  34.1006813
  77.9472046 168.1736450  32.5878944  74.8993073 168.8150177  33.7616081
  74.4836807 168.3553772  34.4948082  75.2058258 168.7085266  30.8130951
  76.0909424 168.8634338  29.9511051  74.1228561 169.4841919  30.9312096
  73.4899368 169.2258453  31.6746979  73.6837616 170.4463501  29.9734802
  73.4860382 169.9735718  29.0114555  72.3269577 170.9560699  30.4247398
  71.6209030 170.1990356  30.0834541  72.3088303 171.0092010  31.5132923
  72.0214844 172.3217468  29.7918739  72.7809677 173.0332031  30.1160717
  72.0780334 172.2119446  28.7088928  70.6112137 172.9084778  30.1142578
  69.8991241 172.2165680  29.6644821  70.5280914 172.8771515  31.2006321
  70.3541946 174.3415527  29.6025372  71.1496048 174.9856567  29.9774361
  70.2751770 174.3637390  28.5156307  69.0385895 174.8605499  30.1542130
  68.8594437 174.6393433  31.1232738  68.9747391 175.8509064  29.9665127
  68.2142181 174.4555664  29.7340946  74.7968521 171.5263214  29.7625694
  75.0302811 171.9400482  28.6268921  75.4929657 171.9507294  30.8482399
  75.1736069 171.6422577  31.7554111  76.4506683 173.0648956  30.7561836
  76.0002060 173.9584198  30.3239803  76.9150085 173.4413910  32.1524467
  77.5252991 172.7121277  32.6852036  77.4687500 174.3798981  32.1264191
  75.7928772 173.8488922  33.1816063  74.9008636 174.6416779  32.8854408
  75.7726593 173.2885895  34.3148117  75.0107422 173.4016876  34.9681015
  76.5079346 172.6778564  34.6411247  77.6404037 172.6899719  29.8804398
  78.2852325 173.5656281  29.3052139  77.9206161 171.3750610  29.7998219
  77.3740997 170.7083588  30.3260670  79.0701523 170.8397980  29.0020409
  79.9405060 171.4900970  29.0897369  79.5514145 169.4275970  29.4314098
  78.8315659 168.6409912  29.2051525  80.4548645 169.1621857  28.8823738
  79.9298248 169.3509521  30.8715134  79.0393600 169.5298309  31.4741516
  80.2443314 168.3272858  31.0747337  81.1054153 170.2819977  31.2698517
  81.8251648 170.8455811  30.4430332  81.3645782 170.3148346  32.5247154
  78.8708115 170.8385315  27.4756126  79.7594147 170.5370026  26.6781788
  77.6231842 171.0004425  27.0612831  76.9397583 171.2225037  27.7710190
  77.1396255 170.9710693  25.6674347  77.5199661 170.0576935  25.2100601
  75.5671921 170.8196564  25.5624580  75.1095657 171.6342773  26.1237793
  75.2165375 171.0317383  24.1150818  75.8833923 170.4505463  23.4781933
  74.1915970 170.7642059  23.8581352  75.3347397 172.0874786  23.8711109
  74.9930344 169.4902954  26.1081982  75.4639511 168.5974731  25.6968403
  75.2318344 169.5287628  27.1710224  73.5079498 169.4721832  25.9291954
  73.1748505 169.4004974  24.8938160  73.0905457 168.6358795  26.4899750
  73.1172867 170.3786316  26.3916187  77.7082443 172.1750031  24.8913555
  77.6198807 173.3238220  25.3705540  78.2975311 171.8878174  23.7464409
  78.1789856 170.9456635  23.4023457  78.9242630 172.8595886  22.8926716
  78.3757401 173.7980957  22.9729729  80.2900925 173.1297455  23.3751087
  80.5826340 174.1789551  23.4159946  80.3578644 172.8235016  24.4190044
  81.4323349 172.4290771  22.7496376  81.8886871 171.1824799  23.2862968
  81.3627090 170.7851562  24.1417980  82.8877258 170.5095367  22.6282539
  83.2213364 169.5688477  23.0408325  83.5683823 171.0319214  21.5199394
  84.4013901 170.5616150  21.0186386  83.1616135 172.2407684  20.9833775
  83.8338852 172.7580261  20.3148823  82.0861816 172.9593048  21.5820656
  81.8826370 173.9639130  21.2418690  78.8674469 172.3931580  21.4287891
  78.7591858 171.1960297  21.0953655  78.7887192 173.4440460  20.5775948
  78.7775269 174.3628998  20.9967499  78.5851440 173.2794647  19.1555882
  78.1542969 172.3166199  18.8810196  77.5656891 174.3534393  18.6832657
  78.0136719 175.3411255  18.7922878  77.3196411 174.1922760  17.6336975
  76.4092407 174.3376923  19.4747658  75.9463425 175.1661835  19.3301506
  79.8940277 173.3379822  18.3939590  80.3646851 174.3890076  17.9669590
  80.5474319 172.1476135  18.2592506  80.0674820 171.3728943  18.6946297
  81.8163834 172.0167236  17.5329132  82.4488068 172.8198853  17.9111843
  82.4142151 170.6639404  17.9561310  82.4806595 170.5686340  19.0399208
  81.7209473 169.9502869  17.5109444  83.7799530 170.3470612  17.3111897
  83.6988220 170.2692566  16.2270012  84.8735962 171.4253082  17.5957146
  85.1106720 171.5716248  18.6495094  85.7693710 171.0839996  17.0768757
  84.6095810 172.3699646  17.1202869  84.3150864 168.9823914  17.7880707
  83.5384598 168.2266083  17.6708126  85.2497101 168.7094269  17.2980938
  84.4476776 168.9897308  18.8699532  81.6058960 172.2322540  16.0395985
  82.5427856 172.6341248  15.3392563  80.3287888 172.1994476  15.5918455
  79.6091156 172.0474854  16.2840099  79.9891129 172.2730713  14.1727610
  80.8416901 172.3351135  13.4964762  79.2559814 170.9415894  13.8078766
  79.8305130 170.0557861  14.0787535  78.3149033 170.8518066  14.3504810
  79.0107574 170.8873444  12.4343357  78.8285980 169.9976501  12.1231079
  79.1100845 173.4908752  13.9030523  78.2163696 173.8124084  14.6909285
  79.1929474 173.9889984  12.6944065  79.9772415 173.7958679  12.0880346
  78.0961990 174.7095337  12.0910740  77.8232727 175.5767365  12.6923742
  78.5812454 175.3629913  10.7348509  78.7531586 174.5748596  10.0017939
  77.7042618 175.8206635  10.2770910  79.6855392 176.3784790  10.8885880
  80.5247116 175.8990326  11.3925867  80.1038895 176.8287354   9.4546604
  79.2501297 177.3193207   8.9871845  80.8926849 177.5643463   9.6120901
  80.4551773 175.9805908   8.8669853  79.2758560 177.6491241  11.6022882
  79.1533279 177.3973236  12.6557102  80.1596909 178.2869873  11.6102867
  78.3656387 178.0398102  11.1473465  76.7561417 173.9885254  11.9387856
  75.7735519 174.5637054  11.5153332  76.6046066 172.7275238  12.3125935
  77.4559402 172.2576141  12.5855761  75.2761154 172.0977325  12.4705887
  74.5330811 172.6696014  11.9147444  75.1894073 170.6741028  11.9065876
  75.9714737 170.0253601  12.3010588  74.2863770 170.2118683  12.3053007
  75.0393219 170.6601868  10.0983744  74.7445450 169.3614960   9.9914961
  74.7192154 172.1942444  13.9257269  73.5517502 171.8429108  14.2049904
  75.4329910 172.7713165  14.8926210  76.3562546 173.1332550  14.7011032
  75.0373001 172.9360504  16.2857933  75.3671646 173.9127350  16.6398773
  73.9558258 172.8747406  16.4072189  75.6934509 171.8744659  17.2122879
  76.6854172 171.2899017  16.8118324  75.2133942 171.6389771  18.4220848
  73.8340149 172.1071320  18.9409523  73.0812836 172.1557770  18.1540985
  73.8474274 173.1627045  19.2124004  73.5137253 171.2291412  20.0955753
  73.0463562 170.3308411  19.6921749  72.8716736 171.6759491  20.8546734
  74.8705292 170.8684845  20.6238327  74.7705231 169.9590912  21.2163677
  75.2712936 171.7357635  21.1485348  75.7392426 170.7119446  19.4029198
  76.7599869 170.9655457  19.6890488  75.8970718 169.2624359  18.8974247
  76.6069107 168.4337616  19.4897556  75.2102280 168.8485107  17.8592472
  74.6127701 169.5576935  17.4589844  74.9342880 167.5012360  17.4066048
  75.7979050 166.8659668  17.6032982  73.7336121 166.9443054  18.1492367
  73.8984375 167.1066742  19.2143993  72.8571625 167.4667358  17.7658424
  73.5395889 165.4289093  18.0805588  73.4655991 164.9579468  17.1003437
  74.3427124 164.9737854  18.6601810  72.0735245 164.9819946  18.8654823
  70.8233109 165.2875214  17.6168461  70.9666672 164.5482635  16.8287830
  69.8161163 165.1542969  18.0117092  70.9552231 166.3129730  17.2716560
  74.6848679 167.5056915  15.9240036  74.3111954 168.5078583  15.2349033
  75.0261917 166.4161835  15.3057041  75.6245651 165.7366943  15.7532988
  74.9540024 166.2363586  13.8062592  74.0116653 166.6267548  13.4219551
  76.0576706 167.0448456  13.1277733  77.0409012 166.6867828  13.4329605
  76.1226807 166.8893127  12.0508881  75.9841232 168.0828094  13.4523563
  75.0023956 164.7162933  13.4953136  74.8684692 163.8548889  14.3801641
  75.0981445 164.3154297  12.2260656  75.1703415 165.0015869  11.4884491
  75.0390549 162.9094696  11.7819128  75.0058136 162.2620544  12.6581764
  73.6360703 162.6909790  11.0898123  73.6289673 163.2580261  10.1589441
  73.4331055 161.6428986  10.8697147  72.8083191 163.0285187  11.7135077
  76.1817856 162.6265869  10.8106833  76.4608459 163.4485779   9.9472494
  76.8351440 161.4887695  10.9771833  76.6527176 160.9475555  11.8102026
  78.0327454 160.9966888  10.3026304  78.1220932 161.5605621   9.3741007
  79.3088760 161.3695221  11.1295061  79.3684311 160.6678772  11.9615211
  80.1536331 161.2265320  10.4556837  79.3555832 162.7882080  11.6982336
  79.4394608 163.9374847  10.8535242  79.5837402 163.8176422   9.7899351
  79.5409470 165.2272034  11.3595781  79.6639175 166.0691833  10.6944847
  79.4670868 165.4679260  12.7090635  79.6037750 166.7532654  13.1819830
  80.0754776 167.2642822  12.5202026  79.1295319 164.3555603  13.5930605
  79.0009155 164.5181427  14.6529751  79.0955658 163.0402374  13.0818901
  78.8049545 162.2507782  13.7591639  77.9743042 159.4562378  10.0998983
  77.0585251 158.7918549  10.5778780  78.9432144 158.8424988   9.3550491
  79.7157364 159.4013214   9.0218153  79.0688248 157.3777313   9.2001963
  78.4821091 156.7984009   9.9131145  78.5865631 156.8878784   7.8191619
  78.8537979 155.8426361   7.6636543  77.0733414 156.9365540   7.6580472
  76.7300262 157.9547577   7.4750204  76.6750412 156.2705841   6.8925815
  76.5835953 156.6443024   8.5869379  79.1643829 157.7149048   6.6386943
  80.2212296 157.4600677   6.5596528  78.6576538 157.3788757   5.7340312
  78.9104004 158.7531433   6.8523655  80.4534454 156.7644348   9.3752756
  81.4577179 157.3699341   9.0120182  80.5739059 155.5443878   9.9218874
  79.7431946 155.1826172  10.3681469  81.8293610 154.7374115   9.9331064
  82.6059113 155.4680481  10.1595135  81.8494263 153.7699585  11.0861473
  82.8728333 153.4165344  11.2119694  81.4910049 154.2452545  11.9992418
  80.9316788 152.5222931  10.8034391  80.3303680 152.4355316   9.6961861
  80.8746948 151.5447083  11.6691113  80.3079071 150.7224884  11.5181389
  81.3818512 151.6522369  12.5359058  82.1095963 154.1806946   8.5309954
  81.1630478 154.2301178   7.6772342  83.2373962 153.4217987   8.2923145
  84.4616013 153.3778839   9.0821772  84.5644989 152.4926910   9.7098284
  84.6656036 154.2941284   9.6362343  85.5839920 153.1014557   8.1137199
  86.4804611 152.6273804   8.5133314  85.9530792 154.0031433   7.6250148
  84.9192123 152.1279602   7.1072650  84.9773941 151.1197357   7.5173922
  85.3367844 152.0686340   6.1021690  83.5148468 152.7132416   7.0295825
  83.4654236 153.4873657   6.2638226  82.4414368 151.6984100   6.6672878
  82.1772079 151.4341431   5.4731717  81.8679504 150.9981842   7.5813355
  82.2694244 151.0801849   8.5044794  80.7550125 150.0507507   7.3555970
  80.9933319 149.5612030   6.4113259  80.7556686 148.9190063   8.4223700
  80.3035812 149.3772430   9.3019972  80.2328949 148.0465240   8.0304995
  82.1909485 148.4537659   8.7998943  83.1249695 149.1117706   9.6174192
  84.1972351 148.3433685   9.5529709  85.1158295 148.4716339  10.1062613
  84.0158081 147.3052979   8.6942282  84.7486191 146.6331482   8.5172958
  82.7542953 147.3763885   8.2077065  82.2813568 146.7480927   7.4674501
  79.3448868 150.6673431   7.1580710  78.3273087 150.0027466   7.3035021
  79.2600403 151.9398499   6.8317857  80.1061707 152.4905853   6.8609819
  78.0054016 152.6600342   6.5610838  78.2437820 153.6056213   6.0741272
  77.4419403 152.0960541   5.8177395  76.9514236 152.9133301   7.6838851
  75.9986496 153.6161652   7.4292960  77.1702652 152.4584961   8.9341526
  78.1143951 152.1713104   9.1491966  76.2530136 152.6477814  10.0453711
  75.2377701 152.3560333   9.7765350  76.7107925 151.8121643  11.2514782
  76.8884430 150.7979584  10.8938189  77.6685791 152.1934357  11.6055574
  75.6754456 151.8152618  12.3938379  74.5698929 151.0016785  12.3286495
  74.5394592 150.1967621  11.6092167  73.4940643 151.0441742  13.2280149
  72.6535339 150.3677216  13.1797676  73.5599747 152.0345612  14.2402029
  72.5981674 152.0357513  15.1971035  72.0366364 151.2581635  15.2373867
  74.6795197 152.8827209  14.2797709  74.8636856 153.5326080  15.1224794
  75.7200928 152.7881317  13.3482504  76.5016861 153.5334320  13.3411837
  76.2300415 154.0825958  10.5165405  77.3208923 154.7341919  10.5776920
  75.0570221 154.6928711  10.7993107  74.2421570 154.0973358  10.8371925
  74.8823929 156.1669769  11.0144787  75.7472534 156.6252747  10.5348110
  73.6712189 156.7613220  10.2335348  72.7781677 156.4113617  10.7513123
  73.8454666 158.2973938  10.2936516  74.7134399 158.5238190   9.6744080
  72.9563065 158.8407288   9.9738550  74.0052490 158.5188446  11.3488894
  73.5748444 156.2860565   8.8065891  74.1931534 156.8764343   8.1303806
  73.8932877 155.2553101   8.6508884  72.1270981 156.2336273   8.2847061
  71.7407303 157.2334747   8.4824657  72.1483078 155.8690491   7.2577057
  71.5052948 155.5090179   8.8104315  74.8554611 156.5119019  12.4999647
  73.9108734 156.1875000  13.2157335  76.0249023 157.0454712  13.0038242
  76.7178040 157.2247162  12.2911873  76.2579956 157.4920502  14.3715239
  75.6177216 156.9701233  15.0826750  77.7246552 157.1551819  14.7027225
  78.3979568 157.7551117  14.0904646  77.9372482 157.4418335  15.7326441
  77.9887009 155.6711121  14.6525106  77.7575150 154.7719421  15.7362967
  78.3198166 153.6092682  15.3803043  78.2989120 152.6437683  15.8638048
  79.0163269 153.7722778  14.2250338  79.6505737 153.0964050  13.8237514
  78.8118286 155.0410614  13.7528925  79.1754456 155.4639740  12.8280554
  75.9806824 158.9803772  14.3838339  76.7448349 159.7808990  13.8426733
  74.8261337 159.3728027  14.9145441  74.1106033 158.7180023  15.1962547
  74.5087738 160.7020874  15.3595276  74.8015366 161.4042358  14.5789022
  72.9747314 160.8829803  15.5141859  72.5500565 160.0918884  16.1321888
  72.9093552 161.7857666  16.1214714  72.2153168 161.0300598  14.1405153
  72.7077713 161.7544098  13.4917498  72.1743927 160.0442352  13.6772852
  70.7425766 161.3681335  14.4132452  70.2208481 161.0417328  15.4883537
  70.0477829 161.9837189  13.5880747  75.1766586 161.0644226  16.7079372
  74.8161621 160.5537262  17.7642651  76.1960754 161.8978729  16.6773376
  76.4302292 162.2849274  15.7743120  77.0452881 162.2044983  17.8597336
  76.7123108 161.5616760  18.6745987  78.5600662 162.0013428  17.7101345
  79.0856247 162.5282440  18.5065384  78.8762665 160.5161285  17.6950378
  78.3417587 159.9784393  16.9119072  79.9160690 160.4177094  17.3832245
  78.7449799 159.9844513  18.6374722  78.9747086 162.5589905  16.5293064
  79.9235992 162.4135742  16.5377312  76.7853546 163.5872345  18.3634338
  76.5617599 164.4390106  17.5193539  76.7251968 163.7453156  19.7091980
  76.7370911 162.9582520  20.3420429  76.7201538 165.0141449  20.4011440
  76.3965607 165.8630524  19.7988586  75.7665100 164.8211670  21.6062450
  74.7624741 164.8418884  21.1824684  76.0650253 163.8467865  21.9929752
  75.8213120 165.7541351  22.8164482  76.8788681 165.8710938  23.0531063
  75.2390823 167.1124878  22.4061947  74.1893539 166.9969635  22.1363544
  75.3686218 167.8184052  23.2265568  75.6057663 167.6009827  21.5034103
  75.0643921 165.2485352  24.0888577  75.5342941 164.2999115  24.3484821
  75.1523438 165.9479828  24.9201965  74.0331192 165.0590210  23.7910938
  78.1404114 165.2780457  20.9491348  78.8677979 164.4261932  21.4416733
  78.5679626 166.5616913  20.8121567  77.9570618 167.3104553  20.5184555
  79.8793488 166.9962769  21.3385658  80.3860092 166.0352173  21.4268513
  80.6864243 167.7123718  20.1984138  81.6647339 167.9740295  20.6015778
  80.9538345 166.7182312  19.0176201  80.0152130 166.4130859  18.5550518
  81.6024399 167.2871246  18.3514481  81.5090179 165.9003448  19.4768753
  80.0565720 168.8314209  19.6783829  79.0984650 168.7888184  19.7209816
  79.9149246 167.7781982  22.7074661  79.0760956 168.6258545  22.9415665
  80.8708954 167.4499969  23.5340633  81.5444336 166.7332764  23.3043633
  80.9135208 167.9411469  24.9670982  80.5705948 168.9745026  25.0190372
  80.0091705 167.0619202  25.9459000  80.2556000 167.3997650  26.9524975
  78.4671173 167.1606293  25.7692966  78.2391968 166.7869720  24.7710304
  77.9142914 166.5478821  26.4813633  78.2256927 168.2185669  25.8720970
  80.2507401 165.5450287  25.9160786  81.3086777 165.2862396  25.9594936
  79.8269730 165.0823822  26.8074245  79.7658005 165.0287781  25.0875702
  82.3542786 167.9179382  25.5372562  83.1423645 167.0492554  25.1685600
  82.6975708 168.9329681  26.2865257  82.0142212 169.5553589  26.6936512
  84.1255798 169.1198578  26.7649326  84.7700119 169.0391998  25.8895378
  84.2118683 170.4804077  27.4813423  83.4678726 170.6380463  28.2621861
  85.1852798 170.5596924  27.9653873  84.0885849 171.6708832  26.5273972
  85.2690353 172.1246338  25.9219761  86.1647263 171.5373840  26.0607414
  85.2290497 173.2489014  25.0169735  86.0746231 173.5204620  24.4024315
  83.9885101 173.9248352  24.9262905  83.8420715 175.0257416  24.1535816
  84.4568863 175.1304779  23.4237614  82.8441238 173.4833069  25.5985794
  81.9905701 174.1080170  25.3804150  82.8525620 172.3424072  26.3951759
  82.0359268 171.9693146  26.9954338  84.5574493 168.0302734  27.7560596
  85.6398010 167.4240265  27.6357231  83.7468109 167.7825775  28.7640877
  82.9263382 168.3663483  28.8423023  83.9907761 166.8630981  29.8449249
  84.9781265 166.4246674  29.6999683  84.1651993 167.8096771  31.0392036
  84.8493195 168.5849915  30.6942959  83.2161865 168.2751160  31.3053532
  84.7782059 167.2240143  32.3473587  84.1445389 166.3815613  32.6245766
  85.7620087 166.9082642  32.0001717  84.9543991 168.2899780  33.4848785
  85.6830673 169.0217438  33.1360626  84.0296326 168.8573761  33.5896721
  85.3183517 167.5766907  34.8551140  85.2385483 168.3023071  35.6645622
  84.4636154 166.9008789  34.8838158  86.6739120 167.0415192  34.9736061
  87.2937317 167.7080078  34.5357552  86.9298325 166.9863892  35.9490891
  86.7776489 166.1823883  34.4527855  82.8927078 165.8235626  30.0000401
  81.7152405 166.1392212  29.8496952  83.3124313 164.6182556  30.2829914
  84.3050232 164.5826569  30.4662952  82.4871063 163.4439392  30.5927238
  81.4913483 163.8086853  30.8447857  82.2514572 162.6822968  29.2313671
  83.1612549 162.4517670  28.6770878  81.5488434 161.8619843  29.3780937
  81.7329712 163.4166565  28.6149197  82.9714279 162.5712433  31.7436390
  84.1565552 162.4763031  32.0677032  81.9500198 161.9966431  32.4718666
  80.9939804 162.0405884  32.1491394  82.1656265 161.5313721  33.8671989
  83.1018295 161.9425812  34.2447243  81.0611038 162.1563110  34.7063866
  80.0960007 161.7583466  34.3928413  81.1468201 162.0367279  35.7864113
  81.0791321 163.9897919  34.5044136  80.9582748 163.9367218  33.1749496
  82.2846756 160.0258942  34.0181274  83.4066849 159.5987244  34.3418236
  81.2518921 159.2290192  33.7786217  80.4111481 159.6412659  33.4000587
  81.2389984 157.8153381  34.0026779  82.0458603 157.6341095  34.7127686
  79.9409714 157.3825378  34.6907578  79.0697861 157.6740265  34.1040955
  80.0106201 156.3063049  34.8487663  79.9243240 157.8730164  36.1010094
  80.6174011 157.4597473  37.0131836  79.0207825 158.7961273  36.3597183
  78.9098892 159.0772705  37.3234444  78.4294968 159.2295837  35.6650238
  81.4014130 157.0749512  32.6678619  80.5646133 156.2355347  32.1889534
  82.6104126 157.2032928  32.0949364  83.2718201 157.8134003  32.5536499
  83.0671005 156.5481873  30.8621235  82.3344421 155.8018341  30.5551109
  83.1434555 157.5794373  29.6719341  83.9105911 158.2978973  29.9607544
  83.4275055 157.1015167  28.7343693  81.8426895 158.2523041  29.3025894
  81.4076385 158.6936188  30.1992893  82.1772003 159.3203735  28.3421822
  82.5823135 158.8292542  27.4574242  81.2617111 159.8064423  28.0049648
  82.9656830 159.9907074  28.6843262  80.8535004 157.2403870  28.6163425
  80.5304108 156.4687195  29.3150864  79.9581223 157.7467499  28.2558155
  81.2590561 156.8470459  27.6841869  84.3940735 155.9534149  31.0559216
  85.2461395 156.5222778  31.7603798  84.6718216 154.7714844  30.4618626
  83.9338150 154.4487610  29.8525276  86.0565796 154.1819458  30.3295727
  86.7904510 154.7301788  30.9203053  86.0400620 152.7463379  30.8378258
  85.3507080 152.1820374  30.2097683  87.0251389 152.3026276  30.6934261
  85.6465454 152.5719757  32.2965126  85.2856522 153.4678345  33.0858498
  85.7922668 151.3173676  32.7991066  85.6659241 151.1837158  33.7922173
  86.2018509 150.6301117  32.1826477  86.5374756 154.2926636  28.8342590
  85.7301559 154.1287079  27.8841858  87.8072052 154.4488525  28.6939621
  88.3774490 154.3656311  29.5234127  88.5159302 154.2550507  27.4359951
  87.9005661 154.6150818  26.6114902  89.8163223 155.0343170  27.4284019
  90.4836121 154.5128632  28.1146297  90.3374176 154.9866943  26.4722137
  89.7229004 156.5019226  27.8715324  89.5137177 156.5741272  28.9388371
  91.0149002 157.1629791  27.5233669  91.2832870 157.2672119  26.4720783
  91.1234207 158.1735992  27.9170227  91.8652573 156.6928101  28.0172749
  88.6447067 157.1731720  26.9986916  87.6450043 156.7604828  27.1342640
  88.4451523 158.1871033  27.3454399  88.9133377 157.2491150  25.9450436
  88.8643875 152.8085480  27.0660534  89.3174362 151.9770355  27.8813744
  88.7650070 152.4741364  25.8035946  88.3220596 153.1573486  25.2060032
  89.4108124 151.2873383  25.1846142  90.2202454 150.9172516  25.8138618
  88.4638672 150.0858154  25.1142864  88.9630890 149.2399292  24.6416798
  88.2042999 149.8188019  26.1387100  87.3125839 150.4690552  24.3763256
  86.5887299 149.8615265  24.5452557  90.0229950 151.6655579  23.8395691
  90.0410767 152.8134155  23.4964542  90.5779419 150.6931458  23.0779934
  90.5995636 149.7413177  23.4151268  91.2552795 150.9205780  21.8875999
  91.5543442 149.9581757  21.4723301  90.5882339 151.3194885  21.1233845
  92.4848709 151.8713379  22.0670815  93.0054855 152.0529022  23.1810379
  92.9761581 152.2886505  20.9123974  92.4623260 152.0002136  20.0921021
  93.9817200 153.3811493  20.9111023  93.9481201 153.8366852  21.9007874
  95.3928833 152.8027344  20.5391598  95.3125076 152.2504730  19.6028595
  96.2192383 153.4854889  20.3414745  95.9221344 151.7588196  21.5729542
  95.1549225 151.0074615  21.7598705  96.7100372 151.1784210  21.0929127
  96.4409637 152.3067169  22.7901897  97.2267990 153.0324097  22.5805969
  95.6149368 152.7336884  23.3589287  96.9942856 151.2624817  23.6837673
  97.9841156 151.0779724  23.6043835  96.3262787 150.4951935  24.5526390
  95.0769577 150.7541504  24.9618416  94.7017059 151.5832672  24.5238228
  94.4723663 150.1689606  25.5205269  96.9155273 149.4623108  25.0958519
  97.8740845 149.1968231  24.9204063  96.4953461 148.9878235  25.8822384
  93.5897141 154.5263672  19.9135723  92.7831650 154.2532501  19.0382710
  94.1174240 155.7725830  20.1395340  95.0369034 156.1691132  21.2357349
  96.1014023 156.0431824  21.0380020  94.7137756 155.6116943  22.1149235
  94.8079453 157.6463776  21.4135342  95.6853638 158.2213898  21.7095070
  94.0261993 157.7906189  22.1593018  94.3796997 158.0857391  20.0104160
  95.2151871 158.4064941  19.3881741  93.8025284 159.0030670  20.1265392
  93.6776276 156.8649750  19.3531952  92.5979004 157.0049133  19.3012047
  94.0202332 156.6464996  17.8471336  95.1884537 156.3832703  17.4245453
  93.0500946 156.7783966  16.9648685  92.1008911 156.7422791  17.3080959
  93.1916885 156.7558594  15.5006256  94.2474060 156.8672028  15.2533121
  92.6846542 155.3996277  15.0666981  93.0963287 154.6200562  15.7077141
  91.6007538 155.4311371  15.1774530  93.0222626 155.1424255  13.7113457
  92.7470779 154.2468414  13.5020800  92.4386978 157.8530731  14.7414684
  91.3968735 158.3091125  15.1349459  93.0028381 158.2563934  13.6043119
  93.9536438 157.9900665  13.3918810  92.4454346 159.2411652  12.7344398
  91.8216705 159.9067688  13.3310947  93.5453873 160.0944977  12.0693455
  93.1941376 160.7949829  11.3116932  94.2963257 160.9512177  13.0938187
  94.9040909 160.3168488  13.7390194  94.9817429 161.6081085  12.5582762
  93.6941528 161.6830444  13.6322727  94.5232315 159.2009125  11.4661398
  95.1498871 159.8134766  11.0741205  91.6673813 158.5868530  11.5406885
  90.9241180 159.3199615  10.8842268  91.7455902 157.2695312  11.3532553
  92.1844254 156.6632690  12.0314665  91.0963669 156.6749268  10.1523666
  91.5411224 157.1629181   9.2850981  91.2441635 155.1614685  10.0863543
  90.6707382 154.7030487  10.8920431  90.8351440 154.7785187   9.1513929
  92.6874237 154.6746826  10.1869249  93.1914215 155.1281281  11.0404253
  92.6744232 153.6461639  10.5476122  93.4839249 154.7026672   8.8769846
  93.3010941 155.6056671   8.0405979  94.4358826 153.9006042   8.6823673
  89.5897064 156.9341888  10.0869818  88.8280182 156.5744019  10.9953976
  89.2341537 157.7001343   8.9770737  89.9622650 157.9303894   8.3160648
  87.8865814 158.0990906   8.6484289  87.8805389 158.6478424   7.7066579
  87.1425552 156.7438202   8.4239864  87.8299026 155.9429779   8.1514206
  86.7599335 156.3149872   9.3501596  86.0599976 156.7379456   7.4229255
  84.6943970 156.5269012   7.8381114  83.9193649 156.3444672   6.7466931
  82.8770294 156.0617676   6.7511411  84.7843857 156.3703918   5.6598306
  84.4336700 156.2109528   4.7261934  86.0962067 156.6100922   6.0253754
  86.9668045 156.5097809   5.3941832  87.2865143 159.0308075   9.7624664
  86.0513382 159.1329346   9.8530540  88.1031418 159.6255798  10.7087698
  89.0469666 159.2725220  10.7768192  87.6223526 160.5522156  11.7531176
  87.0151367 160.0416107  12.5005617  88.7736435 161.2077484  12.5363598
  89.3537292 160.5024872  13.1315098  89.4573975 161.7578278  11.8898268
  88.2428970 162.2814331  13.3333607  88.9216690 162.7202759  13.8513136
  86.8663864 161.7863770  11.1700249  87.3085403 162.5130768  10.2884426
  85.6980362 162.0113373  11.7040911  85.5709076 161.5453491  12.5911036
  84.6931610 163.0347443  11.3636045  84.5169907 163.0343170  10.2879353
  83.3805695 162.6122284  11.9947395  83.4539719 162.7021484  13.0785418
  82.6591415 163.3766937  11.7061920  82.8051910 161.1986542  11.7206297
  82.9674759 160.4269104  10.6333666  83.4473114 160.6742401   9.6979599
  82.4590836 159.1657257  10.8507833  82.4861603 158.4400177  10.1488533
  81.9505692 159.0319366  12.1189337  81.4575500 157.9553833  12.8159781
  81.3847504 156.9509583  12.4258080  81.1364975 158.1547089  14.1914549
  80.9755554 157.2975922  14.8285198  81.2768173 159.4332428  14.8607321
  81.1917953 159.5368195  15.9323854  81.7933578 160.4223785  14.0444441
  82.0286026 161.3881378  14.4667702  82.1749802 160.3028107  12.7007141
  85.0259399 164.4975128  11.7666054  84.3856964 165.4160309  11.2837429
  86.0886002 164.5641022  12.4775944  86.5649338 163.6847687  12.6189842
  86.6043320 165.7699738  13.2154760  86.0859985 166.6648407  12.8710155
  86.3370972 165.6350555  14.7385473  86.7893219 164.7415009  15.1688156
  86.7943726 166.4860535  15.2433529  84.9089737 165.7172089  15.0746193
  84.1765289 166.9304047  14.8919783  84.5941772 167.8689270  14.5585928
  82.8085175 166.9307861  15.1833611  82.2400513 167.8414001  15.0650091
  82.1345596 165.7988586  15.6547461  81.1069107 165.7952423  15.9869032
  82.7594833 164.5592957  15.7059803  82.2832642 163.6949768  16.1448021
  84.1642380 164.5421906  15.4965458  84.6315308 163.5702515  15.5544701
  88.1386566 165.9301910  12.8743134  89.0011063 165.5382080  13.6932421
  88.5365524 166.5576477  11.7372952  87.6896286 167.0664978  10.7021265
  87.6613617 168.1351166  10.9151573  86.7267303 166.5851135  10.5312510
  88.3970413 166.8740845   9.3410540  88.1536636 167.5175171   8.4955606
  88.2836609 165.8205566   9.0854616  89.8384094 167.0771179   9.8024616
  90.0535812 168.1456451   9.7955637  90.5579758 166.5607452   9.1670914
  89.9102402 166.5044861  11.2351189  90.1115265 165.4336243  11.2640095
  90.8412170 167.2171326  12.1856594  90.5769958 168.2526245  12.8103371
  92.0162735 166.6370850  12.3318682  92.3076859 165.9091797  11.6952095
  92.9978409 167.0247345  13.3563356  93.8840256 166.4582825  13.0701523
  93.1500244 168.1039276  13.3392220  92.7323532 166.5458374  14.7506151
  93.5387955 166.8640137  15.6600237  91.6991196 165.7604370  14.9535427
  90.9757843 165.5859528  14.2705803  91.4562225 164.9382019  16.1791859
  92.1960220 165.2239227  16.9269581  90.1570129 165.2894592  16.9456577
  89.3457489 165.0322418  16.2646313  90.0742569 164.6547089  17.8279037
  89.9594345 166.7544708  17.3885479  90.2765961 167.0963593  18.7239285
  90.5084076 166.3050995  19.4214764  90.0808792 168.3629913  19.1920528
  90.3223801 168.4993286  20.2358398  89.5362091 169.3605804  18.3569126
  89.5437546 170.7198486  18.7499409  89.7057648 170.8614960  19.6855087
  89.2284698 169.0465698  17.0371094  88.6430283 169.7496643  16.4632397
  89.4906082 167.7333527  16.5059891  89.1333313 167.4144745  15.5379658
  91.5629959 163.4639282  15.9046307  91.1493225 162.8879242  14.8860502
  92.1653519 162.7341614  16.8718109  92.5511780 163.2202454  17.6686630
  92.0892868 161.2444763  16.9366951  92.0430450 160.7765961  15.9533062
  93.3269501 160.6847839  17.5622025  93.4730759 161.1021881  18.5584564
  93.1568222 159.6101837  17.6284466  94.2393494 160.8972168  17.0049725
  90.8508530 160.8201141  17.7076321  90.5979080 161.4142303  18.7577343
  90.1618118 159.7599640  17.2117577  90.4384384 159.3852844  16.3155499
  89.0117798 159.0551147  17.9344082  88.4827271 159.7539520  18.5823441
  87.8987198 158.6225128  17.0069580  87.0798721 158.1971893  17.5872059
  87.5560837 159.5277100  16.5056400  88.1935806 157.6556091  15.9326315
  88.2421722 157.9541321  14.6114845  88.2698517 158.9467010  14.1867104
  88.6010895 156.8497620  13.9307899  88.8385544 156.7881775  12.9510384
  88.6608658 155.6945648  14.7178793  89.0589447 154.3736572  14.4306488
  89.3036499 154.0108185  13.4432936  89.0372162 153.4216156  15.4917269
  89.2964478 152.4095001  15.2181902  88.6349030 153.8105927  16.8009090
  88.6813049 153.1308594  17.6388817  88.4238434 155.2066498  17.0454998
  88.3382874 155.5608826  18.0621605  88.3582840 156.1780396  16.0267467
  89.5153656 157.8792725  18.8070545  90.4909286 157.2272186  18.4071980
  88.8358307 157.6413116  19.9251060  88.2223969 158.3650208  20.2715893
  89.2754364 156.5453033  20.8105640  89.5658264 155.7324066  20.1449947
  90.5414505 156.8539734  21.6747608  91.3073959 157.1456604  20.9561901
  90.4805145 157.7987366  22.8457069  89.6808167 157.5182648  23.5312061
  91.4549789 157.7417297  23.3307552  90.2338181 158.8005829  22.4941998
  90.8664932 155.5984955  22.1720772  91.7323837 155.6339874  22.5850868
  88.0497665 156.0465393  21.6022110  87.3161316 156.8946228  22.1420212
  87.6531067 154.7376251  21.5300331  88.3369217 154.0601349  21.2242603
  86.3424301 154.2743530  21.9436989  85.6743622 154.7783356  21.2452774
  86.2183685 152.7404175  21.7761517  86.6440887 152.2078705  22.6265984
  84.7256927 152.3173065  21.8491993  84.2897034 152.7626343  20.9549427
  84.6375122 151.2318573  21.8953667  84.2675095 152.6432190  22.7829800
  86.7945862 152.0908661  20.4808693  86.2903290 152.4750061  19.5941544
  87.8196411 152.4577179  20.4280567  86.8991852 150.5236511  20.4595509
  85.8924103 150.1703796  20.2365856  87.6449203 150.1280670  19.7699928
  87.2171326 150.2058716  21.4525375  85.9672241 154.6389160  23.3967400
  86.7192993 154.3195190  24.3377399  84.8401260 155.2751617  23.6002712
  84.2223511 155.4640045  22.8238735  84.1905594 155.3382416  24.9444084
  84.9348679 155.2149811  25.7311153  83.5836487 156.6966400  25.1170292
  82.8112488 156.8815155  24.3704987  83.1422348 156.7399750  26.1127052
  84.3268280 157.4677887  24.9142494  83.2206192 154.2222900  25.1413136
  82.4320831 153.9674072  24.2297707  83.1473236 153.6579437  26.3287678
  83.8698044 153.8543396  27.0066700  82.0902939 152.7487183  26.8838215
  81.2363968 152.8095703  26.2091007  82.6301270 151.3010864  26.7982712
  83.5463943 151.2230835  27.3834743  81.8778534 150.6469574  27.2390766
  83.0388184 150.7797394  25.4137402  82.1612930 150.6867523  24.7738876
  83.6586914 151.4959564  24.8743935  83.8169022 149.4719849  25.5273533
  85.0110397 149.3469086  25.5383377  83.1264725 148.4071960  25.7761555
  83.5069427 147.4767456  25.8741722  82.1675110 148.5051575  26.0776558
  81.6471176 153.2190399  28.2354183  82.3789978 153.9459381  28.9545956
  80.4723816 152.7782745  28.6571522  79.9620056 152.2282562  27.9810638
  79.8866577 153.0190430  30.0023746  79.9135056 154.0865631  30.2210026
  78.4121475 152.6199036  30.0292931  77.8685150 153.1089172  29.2209435
  78.2704773 151.5442352  29.9244690  77.5701904 153.1030121  31.6131840
  76.3265152 152.6551819  31.4192772  80.6593704 152.3322754  31.1730862
  80.8942261 151.1624908  31.0656986  80.9547577 152.9269257  32.3158684
  80.7273331 153.9107971  32.2966118  81.8000565 152.3728790  33.4341164
  82.7561874 151.9466400  33.1304283  82.2230988 153.5244141  34.2838287
  82.7657547 154.2691040  33.7015305  81.3384705 153.9817047  34.7270088
  83.1728439 153.1638489  35.4240265  82.7444000 152.4272614  36.1037102
  84.0797119 152.6268158  35.1460075  83.6737289 154.4285889  36.1326790
  82.7943420 154.9805298  36.4645691  84.2738342 154.1941223  37.0118828
  84.5669861 155.2437897  35.2542076  84.8317261 154.7909546  34.3911018
  85.0737457 156.4505615  35.4568863  85.1150970 157.0353546  36.6387596
  84.5762177 156.4866333  37.2934608  85.5942841 157.9003296  36.8444061
  85.6145401 157.1622162  34.4588432  85.5603256 156.9715118  33.4684944
  85.8829193 158.1355286  34.4863930  81.0569916 151.2368774  34.1149330
  81.6752548 150.2178650  34.4373131  79.7390213 151.4323883  34.4096375
  79.3573227 152.3300323  34.1476784  78.8908463 150.4442596  35.1399155
  79.4699707 150.0698090  35.9840050  77.6105270 151.1343079  35.6540909
  77.2015839 151.7711945  34.8697128  76.5467758 150.2370300  36.1879272
  77.0028458 149.4260101  36.7556763  75.8664017 150.8112335  36.8168030
  75.8856201 149.8202515  35.4281425  78.0400238 152.2128754  36.7620697
  78.5945816 153.0533142  36.3446541  77.1578674 152.6389465  37.2399254
  78.8275375 151.5562744  37.8858490  79.8191833 151.2334595  37.5687790
  78.9134903 152.2621002  38.7119904  78.2330551 150.7307434  38.2772293
  78.5816116 149.2160339  34.3069344  78.3619843 148.1352081  34.9046364
  78.6284637 149.2908630  32.9393768  78.9043732 150.1805115  32.5488892
  78.1114731 148.1938019  32.1209908  78.2076263 147.2712250  32.6934319
  76.5861206 148.3795624  31.8214245  76.1226807 147.4299164  31.5540771
  76.0618591 148.7124786  32.7172050  76.3383408 149.6698761  30.5941410
  75.0537109 149.6193085  30.9575329  78.8967514 147.8029785  30.8510532
  78.6634216 146.6835480  30.3742847  79.8451233 148.5838776  30.3215714
  80.1454468 149.3869171  30.8554592  80.5222397 148.2505341  29.0729523
  81.5330124 148.6571960  29.0401688  80.6343307 147.1664581  29.0552349
  79.7452164 148.6943359  27.7565956  80.3131409 148.4283447  26.7272358
  78.5049667 149.2971497  27.8678455  77.9507141 149.2203827  28.7086849
  77.7725906 149.6510773  26.6141014  77.7656631 148.7632141  25.9818344
  76.3724213 150.1401825  26.9871655  75.9234390 149.5119476  27.7564774
  76.4506073 151.1461945  27.3994083  75.5091324 150.0563660  25.7861767
  75.5239182 149.1276093  24.9927425  74.8480453 151.1384735  25.5597496
  74.2751389 151.1230621  24.7280998  74.8497925 151.9148254  26.2058048
  78.5452194 150.6810303  25.7878742  79.1710052 151.5643768  26.3487568
  78.5986099 150.5827332  24.4732761  78.1515732 149.7872620  24.0402794
  79.2049103 151.5708466  23.5916786  80.2584457 151.6299896  23.8649406
  79.1965027 151.0644684  22.1077614  79.8328781 150.1815033  22.0484924
  78.1922607 150.7937622  21.7817078  79.6262131 152.0932312  21.1910210
  78.7389221 152.8816986  20.4458313  79.5631790 153.7691650  19.8730316
  79.2047501 154.5864563  19.2647705  80.8628845 153.5754547  20.2054653
  81.6946945 154.0242004  19.8493233  80.9089966 152.5205841  21.0608749
  81.8025970 152.1151886  21.5120258  78.5180511 152.9573517  23.7255898
  77.3146591 153.0522461  23.6188374  79.2906036 154.0742340  23.8381500
  80.2981262 154.0206909  23.7919674  78.7749023 155.4570312  24.0678310
  77.6867447 155.4248962  24.0131702  79.0553131 155.8557892  25.4935703
  80.1403198 155.8559265  25.5977993  78.6567078 156.8585052  25.6477413
  78.4454346 154.9399414  26.6043243  78.9594803 153.9820251  26.5251656
  78.6631546 155.4001312  27.5681324  76.6802673 154.5208130  26.5088367
  76.0125580 156.1305542  26.9309139  76.2167664 156.8685303  26.1551743
  74.9239960 156.0856323  26.9644337  76.5302505 156.4525146  27.8344746
  79.3301239 156.5014343  23.0956383  79.1654434 157.6902466  23.3155823
  79.9168320 156.0567322  21.9834595  79.8359299 155.0670471  21.7988281
  80.6645355 156.8890533  21.0418987  80.5794907 156.4192963  20.0620060
  80.1780853 157.8628998  20.9862518  82.1303864 157.0131989  21.4270401
  82.7911911 156.0174408  21.6864281  82.7226028 158.2239380  21.3159904
  82.1007843 158.9397888  20.9681053  84.2213821 158.3614655  21.3057899
  84.7658691 157.5016479  21.6960926  84.7571030 158.3919373  19.8612251
  84.5412674 159.3140564  19.3215866  85.8439331 158.4666748  19.8973923
  84.3141556 157.2857513  18.9846058  85.0159454 156.1675568  18.7966423
  85.9684525 155.9131470  19.2375622  84.2085342 155.2437744  18.1775990
  84.4908752 154.2926483  17.9885483  82.9680481 155.7635651  17.9232445
  81.7742004 155.2271423  17.3798294  81.6608963 154.1663666  17.2114944
  80.6413116 156.0581970  17.1975002  79.7307968 155.6945496  16.7445927
  80.6301727 157.4029541  17.6688461  79.7235031 157.9575195  17.4769611
  81.8334579 157.9625854  18.1556797  81.9234848 159.0153198  18.3794041
  83.0297928 157.1635132  18.2888165  84.7740479 159.5662689  22.0300388
  84.1414185 160.6428528  21.9137764  85.9288559 159.3694153  22.6691666
  86.3312607 158.4461517  22.7449608  86.8468552 160.4422913  23.1234322
  86.2521667 161.2688904  23.5122185  87.7452850 159.9744873  24.2139950
  87.2322159 159.5279236  25.0657253  88.4078674 159.2148438  23.7992210
  88.5590897 161.1665802  24.7881718  89.2829285 161.4742584  24.0335236
  87.7840500 161.9050903  24.9931488  89.2610321 160.8892670  26.1434631
  88.5483017 160.5960541  26.9142742  89.9265747 160.0403595  25.9868240
  90.0826797 162.1232910  26.6120777  90.8891678 162.2892303  25.8978329
  89.4452438 163.0069427  26.5813961  90.7500000 161.8943329  27.9386425
  91.2814865 161.0355988  27.9244728  91.4923096 162.5535431  28.1244488
  90.1301346 161.8328705  28.7336826  87.6675415 160.8979645  21.9377232
  88.3536911 160.0919952  21.3256016  87.7833557 162.2010956  21.8355217
  87.3186264 162.8516693  22.4526844  88.5824356 162.8958130  20.8507557
  88.9071732 162.1317902  20.1444187  87.6037827 163.7772827  20.0881729
  86.9995346 164.4201202  20.7282887  88.2140198 164.3715515  19.4080601
  86.7671432 162.9639435  19.1193657  87.2433014 162.7026215  17.8005352
  88.1452255 163.1060638  17.3644562  86.4134521 162.0974884  16.8722649
  86.7467270 161.9906158  15.8505487  85.1645355 161.5888824  17.2885017
  84.5195160 161.0616150  16.6012383  84.6370773 161.8289642  18.5608616
  83.6393738 161.5265961  18.8429203  85.4701920 162.4955902  19.4767628
  85.0656052 162.8409119  20.4166908  89.7862396 163.6613617  21.5007286
  89.6482773 164.4129791  22.4409065  90.9410019 163.6638489  20.8624496
  91.0715485 163.0193634  20.0958424  92.1693573 164.2913361  21.4159317
  91.9090958 165.1199493  22.0745411  93.1301346 163.3423309  22.1541176
  94.0244217 163.9153900  22.3990211  92.4845657 163.0055237  23.5255623
  91.5376358 162.4911346  23.3617935  93.1320496 162.3433838  24.1004105
  92.1815948 163.9012146  24.0678177  93.4379807 162.1003418  21.4509945
  94.1856232 162.3879852  20.9219551  92.9418716 164.9168091  20.2099876
  93.0393066 164.2989807  19.1720943  93.5401154 166.1108398  20.3893318
  93.6075821 166.6212616  21.2582512  94.0997772 166.9615326  19.3552418
  93.5038681 166.9592590  18.4425564  94.2143173 168.3998871  19.9092369
  94.8032684 168.2543030  20.8148003  94.6367264 169.0552673  19.1475582
  93.2181015 168.7963409  20.1054058  95.5029678 166.4607544  18.9249687
  96.3514786 166.2696381  19.8273544  95.7948303 166.2018738  17.6283073
  95.0621872 166.2621155  16.9356976  97.1041641 165.5638733  17.2325401
  97.4002914 164.8132019  17.9652672  96.9387512 164.8132935  15.9051867
  97.9641113 164.6025238  15.6013536  96.0781860 163.5272827  16.0700283
  95.0372696 163.7601776  15.8456154  96.3653870 162.7851410  15.3251486
  96.1329651 163.0841064  17.0643559  96.4804993 165.6707611  14.9330864
  96.7083282 165.2665710  14.0926533  98.1975327 166.5727692  17.0306454
  99.3452225 166.2427521  17.2848492  97.8694000 167.8728638  16.7538185
  96.8886871 167.9949799  16.5455265  98.7411575 169.0373230  16.8803921
  99.8112640 168.8341217  16.8395576  98.3757095 169.9036713  15.6672325
  97.2998428 169.8980408  15.4923792  98.6860886 170.9221344  15.9006739
  99.0785370 169.3694458  14.4020052 100.1397934 169.4021301  14.6484976
  98.8947067 168.2972107  14.3341436  98.7587128 170.0121765  13.0641050
  99.2125320 171.0032043  13.0685253  99.1825562 169.4048462  12.2643528
  97.1619339 169.9306793  12.8120899  96.8543167 168.8925171  12.6868124
  96.6327057 170.4071655  13.6373005  96.7592468 170.6726532  11.6034184
  97.2311630 170.2317047  10.8269100  95.7663040 170.6404419  11.4213858
  96.9699631 171.6574249  11.6803446  98.6142807 169.7503204  18.2545090
  97.5659485 169.6716614  18.9292183  99.6951294 170.4949188  18.5670643
 100.4930496 170.5362854  17.9492340  99.9402771 170.9953156  19.9221115
  99.6412964 170.1576233  20.5521755 101.4749908 171.0049286  20.1285038
 101.7617798 171.1952820  21.1627293 102.0975571 170.1446381  19.8826942
 102.0533905 172.2119446  19.3065853 102.0942993 171.9874725  18.2407341
 101.4332275 173.0980682  19.4417648 103.4886475 172.5300293  19.7830372
 103.5042419 172.6235046  20.8689098 104.0991974 171.6896973  19.4526291
 103.9617386 173.8563080  19.2054577 103.1653824 174.5786896  19.3845692
 104.8637466 174.2508545  19.6732349 104.2436523 173.8368073  17.7117863
 103.6285019 173.2523956  17.1639118 104.2243652 174.7783051  17.3466949
 105.1273727 173.3917236  17.5091801  99.2282028 172.2504272  20.3199768
  99.4730530 172.6960297  21.4452286  98.4810181 172.8958740  19.4323425
  98.4236755 172.5851746  18.4730301  97.9545822 174.2209167  19.7029037
  97.9980087 174.4794464  20.7609100  98.8343811 175.2594757  18.9686756
  98.3458633 176.2335052  18.9950886  99.7599030 175.4078674  19.5249939
  99.1834488 174.9686584  17.4908142  98.7073975 173.9836121  16.9137173
  99.8090897 175.8518982  16.8488941  96.4904099 174.4289246  19.3535690
  95.9303284 175.5667114  19.5161324  95.8084641 173.4105682  18.8933125
  96.1926804 172.5069580  18.6567993  94.3276062 173.4833832  18.6806927
  94.0248032 174.3349609  18.0714169  93.8243027 172.2044373  18.0337811
  93.9054871 171.4154510  18.7814560  92.7404404 172.3069611  17.9805012
  94.4549179 171.9344482  16.6393681  94.0796432 172.7045593  15.9654264
  95.5331421 171.9589233  16.7972851  94.0296936 170.3817139  15.7941103
  92.2508698 170.4532928  15.6149492  92.0100174 171.0789795  14.7555208
  91.7866440 169.5019684  15.3549728  91.9321136 170.8857727  16.5633411
  93.6447754 173.5842743  20.0349426  94.2199707 173.1637268  21.0462055
  92.4304428 174.0688934  20.0455322  92.0632248 174.5169220  19.2181721
  91.5368958 174.2682343  21.1466141  91.8428650 173.5441895  21.9017544
  91.6726227 175.6575165  21.7773876  92.7429047 175.7658081  21.9530945
  91.4306793 176.3895874  21.0069160  90.8797836 175.7574463  22.9910030
  91.3940430 175.6366119  23.7925854  90.0789108 174.1356201  20.7022247
  89.7542343 174.8781128  19.7376366  89.2563400 173.2264862  21.2551422
  87.8433914 172.9717255  20.8443699  87.8685150 172.8557434  19.7608490
  87.1358032 173.7087250  21.2241974  87.4591827 171.6146545  21.3993835
  87.8185349 170.8513489  20.7092247  86.3947601 171.5657043  21.6289883
  88.2946930 171.5958405  22.6966400  88.5442276 170.5641632  22.9445667
  87.7675705 172.1186066  23.4947472  89.5732498 172.4043427  22.4520454
  89.8066101 173.0443268  23.3029652  90.7517471 171.4262085  22.2955074
  91.0126724 170.9028320  21.1764584  91.5137329 171.1921844  23.3454399
  91.2981491 171.7737732  24.1425419  92.5492554 170.1266937  23.4053783
  93.1029892 170.2771912  22.4786472  93.5110321 170.4183197  24.5696545
  93.9942474 171.3362885  24.2351151  92.9284897 170.7544250  25.4274292
  94.4429779 169.3094482  25.0029945  94.9345627 169.7272491  25.8815632
  93.8952255 168.3928986  25.2221203  95.5260696 169.0467072  23.9792576
  95.5404282 169.5481110  22.8687096  96.4705276 168.2256927  24.3751450
  97.1075592 167.9204559  23.6532593  96.5472336 167.7936249  25.2848339
  91.8992004 168.7381134  23.5172367  92.4277725 167.7052612  23.0520248
  90.7562027 168.6503906  24.2058697  90.3851776 169.5057220  24.5942574
  90.0530777 167.3500977  24.5308800  90.2181549 166.6539459  23.7085571
  90.5605392 166.7830963  25.9134274  90.0908127 165.8231964  26.1280346
  91.5978088 166.4919586  25.7478714  90.4264450 167.6680145  27.1217537
  90.7128754 168.6971130  26.9049282  89.3794174 167.6616364  27.4247265
  91.3395920 167.2081604  28.2906475  91.0034180 167.6686859  29.2196274
  91.2968445 166.1218719  28.3695717  92.7779922 167.6486206  28.1338501
  93.1116257 167.3671417  27.1350708  92.7363129 168.7308350  28.2569923
  93.7509918 167.1045074  29.1032505  93.7391052 166.0945740  29.1036243
  94.6557083 167.3624268  28.7357292  93.6732635 167.4841156  30.0359592
  88.5323715 167.5190887  24.4695683  87.9983215 168.4245453  25.1120453
  87.8053207 166.5669250  23.8411007  88.2904282 165.8151398  23.3724937
  86.3165817 166.5415039  23.8836727  85.9792938 166.8107300  24.8846016
  85.7743149 167.5904388  22.8439178  84.7951279 167.9157410  23.1953030
  86.3608246 168.5076752  22.8965607  85.6845169 167.1497803  21.3811741
  86.7391357 167.3736725  20.4755268  87.6153641 167.9094238  20.8095798
  86.6189270 166.9496307  19.1204491  87.3334274 167.2287292  18.3601894
  85.5102921 166.2072601  18.6995068  85.5429764 165.9014893  17.6642113
  84.4425735 166.0518951  19.5661488  83.5864029 165.4809113  19.2385101
  84.4987259 166.6071167  20.8720226  83.6850815 166.5294342  21.5779648
  85.7888870 165.0832672  23.6957874  86.5399399 164.1585541  23.4063091
  84.4654160 164.8717651  23.7025261  83.9179840 165.5973206  24.1429558
  83.7528992 163.6343994  23.4621696  84.4207306 162.9126129  22.9919186
  83.2524490 162.9534149  24.7146282  82.4202805 163.5123749  25.1425896
  82.9445343 161.9276428  24.5118790  84.2703171 162.8060913  25.8137569
  84.6308441 163.8349152  26.6000538  84.1410675 164.7935638  26.5133877
  85.4307022 163.4393921  27.6151180  85.9433975 164.0385590  28.2461929
  85.5159531 162.0644684  27.6469936  86.0983276 161.1663208  28.5761223
  86.4576874 161.5551605  29.5174313  86.0951080 159.7576447  28.2590504
  86.5339050 159.0273895  28.9228153  85.4956284 159.3435211  27.0585213
  85.5156326 158.3038483  26.7668228  84.9252853 160.2689819  26.1567497
  84.4803619 159.8103180  25.2860756  84.9894485 161.6613159  26.3890877
  82.6506653 163.8265381  22.4399014  81.9764328 164.8164825  22.6073742
  82.6057892 162.9816132  21.4336395  83.2714233 162.2220612  21.4442596
  81.5324097 162.8230591  20.4630318  80.8379669 163.6621094  20.5058384
  81.9602966 162.7558289  19.4627857  80.7091446 161.5291138  20.7519989
  81.0711746 160.4291534  20.3562107  79.6798019 161.6495514  21.5930691
  79.3961334 162.5957336  21.8036804  78.8917313 160.5659790  22.2008591
  79.5550385 159.7023468  22.1533318  78.6348801 160.9097290  23.6720905
  77.9286270 161.7399597  23.6705704  78.2039261 160.0393219  24.1668530
  79.9073029 161.2158966  24.5212784  80.4414825 162.0335846  24.0373917
  79.4107132 161.7436676  25.9008427  79.1277237 160.9065552  26.5390186
  80.2328873 162.2640076  26.3921223  78.5869293 162.4407654  25.7474155
  80.8291855 160.0470581  24.7293015  81.2189789 159.6352692  23.7983913
  81.6934662 160.2700195  25.3549404  80.3497925 159.2041168  25.2270145
  77.5284958 160.2770691  21.5166912  76.8543625 161.2617950  21.1933689
  77.1418762 159.0330658  21.4351387  77.7095108 158.3447266  21.9085159
  76.0579453 158.5959778  20.5825939  76.0961380 159.1392365  19.6383972
  76.2369232 157.1009064  20.2594986  75.2441559 156.7970734  19.9275246
  77.1388779 156.8177948  19.0456009  78.1459122 157.0578461  19.3867226
  77.0307693 155.7795563  18.7318039  76.9727554 157.4764252  18.1931267
  76.6956329 156.3739471  21.3735924  76.7293472 155.4332123  21.1852551
  74.7028961 158.9180756  21.1730118  74.3500977 158.3060760  22.1732044
  73.9081421 159.8226624  20.5751476  74.2374268 160.0718231  19.6534176
  72.5994797 160.2263184  21.1793785  72.7444458 160.5361176  22.2143230
  71.9904785 161.5126953  20.5132866  71.0267563 161.6872711  20.9916859
  72.7150116 162.3147125  20.6543713  71.7075272 161.3370056  19.0357571
  72.5125732 161.8232727  18.4848213  71.6732025 160.2790833  18.7755260
  70.4290237 161.9433441  18.5905991  70.4428101 162.9885712  18.8994770
  70.4926300 161.9199982  17.5027065  69.1971359 161.2838440  19.1512280
  68.7639999 161.6029968  20.0059986  68.6255569 160.2246857  18.5746269
  68.9719009 159.6537933  17.4608021  69.4517746 160.2188110  16.7748127
  68.4774857 158.8241730  17.1651802  67.6091766 159.6921997  19.0804024
  67.1833954 160.0806885  19.9097996  67.0547867 159.0994873  18.4792080
  71.5946960 159.0397186  21.2619820  70.7936554 158.9478455  22.1868687
  71.7387924 157.9989166  20.3820419  72.4001465 158.2086639  19.6480637
  71.0393677 156.6881409  20.5220566  69.9723892 156.9109955  20.5236359
  71.4734192 155.8742981  19.3604774  70.8942032 154.9556274  19.2674656
  71.1693192 156.3715515  18.4394150  72.9028854 155.5714874  19.2234688
  73.1100616 154.7721863  19.7131729  71.3889618 155.8677368  21.7599182
  70.5086365 155.1670227  22.1506405  72.5372543 156.0071411  22.3889256
  73.2712708 156.5557251  21.9642143  72.8586044 155.3521271  23.6663990
  72.1513824 154.5244751  23.7206764  74.1875381 154.6369476  23.5904884
  75.0771637 155.2366180  23.3979626  74.3898468 154.0925598  24.5128803
  74.1561508 153.8665009  22.8200779  72.6215363 156.2970123  24.9033184
  72.6760864 155.8715973  26.0102081  72.2687454 157.5718994  24.7316399
  72.1611252 157.9038544  23.7838345  72.0147400 158.6142731  25.8081722
  72.5543365 158.2767181  26.6930408  72.6623917 159.9980316  25.4618835
  72.3079453 160.2963257  24.4752274  72.3591690 160.6774597  26.2584534
  74.1766357 160.0295868  25.4296608  74.5761185 159.2672729  24.7607918
  74.5657806 161.4128723  24.8707981  74.2789612 162.2332001  25.5287476
  75.6499100 161.5137024  24.8197250  74.1639023 161.4866028  23.8602753
  74.7730865 159.9418945  26.8536701  74.6344528 158.9650116  27.3168774
  75.8550720 160.0694427  26.8197670  74.3347015 160.7112427  27.4893055
  70.5476074 158.7842865  26.2322464  69.6757278 158.5979309  25.3905029
  70.2458954 159.0449524  27.5331783  71.0160217 158.9591522  28.1809769
  68.8640747 159.2192230  28.0516720  68.0803833 159.2509766  27.2947559
  68.5105209 157.9431458  28.8725624  68.7595901 157.1371307  28.1823311
  69.2294769 157.8134003  29.6815033  67.1268005 157.6745911  29.2247105
  66.8268051 158.5045471  29.8644657  66.0444412 157.4849243  28.1741486
  66.1873550 156.5825348  27.5796890  65.0600052 157.3849640  28.6313076
  65.9384995 158.3460083  27.5142899  67.0793762 156.5080261  30.2390728
  67.8110580 156.7413177  31.0125809  66.1072540 156.4478760  30.7284222
  67.1875000 155.5272827  29.7758923  68.7365570 160.3992462  29.0586109
  69.2977219 160.3561249  30.1778030  67.9245911 161.4482269  28.7634525
  67.1410370 161.6215668  27.5717907  66.1247025 161.2512054  27.7059345
  67.5855331 161.1244659  26.7095852  67.1405487 163.1466217  27.3012276
  66.1567154 163.2914124  26.8549061  67.9632950 163.3859406  26.6274872
  67.3294144 163.7628479  28.6831303  66.3817139 164.2620239  28.8850689
  68.1293106 164.4961700  28.7856560  67.7372208 162.6250305  29.5754032
  68.5651169 162.9663849  30.1968365  66.7056656 162.3205566  30.6913128
  65.6888885 162.9970398  30.7459049  67.1010284 161.5029755  31.7235928
  67.9632263 161.0088654  31.5430851  66.4508972 161.1681061  32.9611778
  65.3819885 161.0928497  32.7614975  67.0418777 159.8660583  33.5172539
  66.6929626 159.1222992  32.8008881  68.1290131 159.9384613  33.4858284
  66.5598602 159.5599976  34.9741936  67.0001831 160.3498840  35.5827103
  65.4778366 159.6915588  34.9761124  67.0559692 158.2165680  35.3876877
  68.0867310 158.0557251  35.0718536  67.1581192 158.2247314  36.4728661
  66.1725769 157.0483093  34.9912071  65.7460861 157.1311646  34.0794296
  65.9086380 156.0385895  35.8026962  66.2662048 155.8800354  37.0273666
  66.9263916 156.5215454  37.4429817  65.8913498 155.1688385  37.6387291
  65.2279434 155.0042877  35.2456665  64.8899994 155.0253754  34.2941170
  65.0146255 154.2273407  35.8547173  66.5776138 162.3420868  33.9714203
  65.5727692 162.6321411  34.6554527  67.6634903 162.9825134  34.0326958
  84.4434128 153.9636993  14.1035776  85.0987015 152.9276886  13.4076576
  83.4339905 153.4775543  14.8469296  84.6162720 151.6953583  13.7322264
  82.9574356 152.1209717  15.1134291  83.7448883 151.1564941  14.3193245
  85.0482635 155.6007233  11.6519184  84.9446106 156.1350708  12.7596540
  84.6913452 155.3106537  13.9636335  85.0944824 157.5837250  12.9288368
  84.7236099 156.1169739  14.9738646  85.0359650 158.3204346  14.1627493
  84.7904587 157.2368469  15.2140045  85.2608948 159.5243835  14.1900949
  85.1803741 158.2174683  12.1429806  86.1100998 153.1284332  12.4736328
  86.7279358 152.0865326  11.9368267  82.1713028 151.7696381  16.2523689
  81.2159729 150.9564514  16.7893810  81.3911057 149.5008698  16.4832668
  82.1777267 151.2364197  17.7520809  82.3378372 148.7364197  17.2046165
  82.9983215 150.9909058  18.6131592  83.0657043 148.3371277  18.3745785
  83.0280457 149.7727203  18.5096378  84.0379486 148.0527802  18.2593784
  80.5558319 148.7928009  15.5538168  80.8102798 147.6109924  15.3163691
  79.4632950 149.3460388  14.9523163  79.3877106 150.2560577  15.2868490
