Cpptraj Generated Restart                                                       
   37  4.0000001E-01
  83.9834824 154.6672211  13.9197083  84.5415039 153.4165192  14.2361250
  82.6561279 154.5943756  13.9958038  83.7453308 152.3847046  14.7886171
  81.9370651 153.7819214  14.4712811  82.3309402 152.5213318  14.9335823
  84.0822754 151.2241974  15.4080782  81.9077530 151.4007263  15.6123400
  82.8624344 150.5837402  15.0568151  84.0123062 151.2436981  16.7768269
  82.1922760 151.4003296  16.9954472  82.7294388 149.2302246  14.9218912
  83.2530136 151.8629150  17.7983685  83.6724319 148.5305176  14.5344534
  84.3253098 156.1412201  11.4243784  84.7098236 156.6858978  12.4493999
  84.7473297 155.8589325  13.6599360  85.0756454 158.1026611  12.4701862
  85.0296402 156.6903839  14.6057644  85.3577194 158.8681946  13.6735096
  85.2812271 157.8195648  14.7314711  85.6590118 160.0683746  13.7547045
  85.0448532 158.6468811  11.6161070  85.8586349 153.2147675  14.1142063
  86.4411087 152.0565948  13.8864689  81.4731674 148.8172150  15.2310495
  81.0098724 147.4286194  14.9318686  81.0861511 147.2007294  13.4580708
  79.6434860 147.2842712  15.3984261  81.8376312 146.4456177  15.6471567
  83.1491470 150.5422668  17.9742546  83.1336823 149.3865204  18.8642597
  83.7472839 149.3702545  20.1843834  82.7332993 148.0493469  18.5441761
  83.7959213 148.3302917  20.8777905  82.8041153 147.0849457  19.2413883
  83.4349060 147.2465363  20.3309155
