Cpptraj Generated Restart                                                       
 6218  4.0000001E-01
  91.3023224 180.9403687  23.7610245  91.9291000 181.2862244  23.0485420
  91.7176666 180.0216522  23.8205528  91.3057556 181.4248962  24.6472111
  89.9056931 180.8428345  23.1079388  89.2071533 180.6844788  23.9295635
  89.4664383 182.2273254  22.5144215  90.1526337 182.4432373  21.6955051
  88.5118713 182.1816254  21.9901981  89.4521484 183.4957733  23.4018364
  88.6895981 183.4544373  24.1795921  90.4042816 183.6317139  23.9147339
  89.3313599 185.1166992  22.5932446  87.5375671 185.1623383  22.1220951
  86.9884644 184.6217194  22.8930264  87.2503967 186.2102051  22.2092838
  87.3006439 184.8369598  21.1091290  89.8317795 179.6114960  22.1876240
  90.8644638 179.0575562  21.7918472  88.6587830 179.2231140  21.7578964
  87.8153076 179.7131195  22.0197010  88.5388031 178.1528168  20.6919537
  89.0826187 177.2611084  21.0037861  87.0429535 177.7029419  20.6103573
  86.4583282 178.6166840  20.5036335  86.7889175 176.8771667  19.3809433
  87.3808975 175.9662018  19.4692116  85.7237930 176.6571655  19.3087883
  87.0409012 177.4315338  18.4769039  86.6608276 177.0413818  21.9211178
  85.6466751 176.6934052  21.7248955  87.3356705 176.2035980  22.0965843
  86.4388351 177.8114777  23.1678810  85.8614120 178.6958771  22.8985577
  85.8930664 177.1071777  23.7957363  87.4148331 177.9872894  23.6202259
  89.1226425 178.6213989  19.3414593  89.1238861 179.8266144  19.0261993
  89.5935364 177.7026062  18.5004292  89.5892487 176.7426300  18.8143253
  90.3353195 178.0933075  17.2508278  90.0743256 179.0939178  16.9062157
  91.8395386 178.2375946  17.5722656  92.3470306 178.7926483  16.7832909
  91.8883972 178.9563141  18.3902931  92.6325836 177.0227051  17.7951031
  92.2646484 175.8681335  17.6536942  93.7835846 177.1898041  18.4473763
  94.3303375 176.4005280  18.7607689  94.2582703 178.0810699  18.4678020
  90.0331039 177.1273041  16.0996017  90.3614273 177.4433899  14.9487953
  89.4039230 175.9804688  16.2896156  89.0598679 175.7278900  17.2050018
  89.0712433 175.0836182  15.2270756  89.9368362 174.8193207  14.6196260
  88.4579010 173.7993774  15.8320255  89.2006836 173.2681732  16.4271717
  87.6141281 173.9733429  16.4997730  87.9368668 172.7831421  14.9209738
  88.7928619 171.8779602  14.2643156  89.8710022 171.9214935  14.3104286
  88.2866287 170.8408813  13.4747877  88.9011230 170.0566254  13.0580015
  86.9251938 170.7660217  13.2529697  86.4794998 169.9431763  12.7138205
  86.0294342 171.7709351  13.8214474  84.9593430 171.6826172  13.7052326
  86.5683823 172.7703094  14.6338243  85.9819565 173.5110779  15.1570559
  88.0450439 175.8669891  14.2713079  87.1318436 176.4966125  14.7412357
  88.2248840 175.7281799  12.9336052  89.0278091 175.2245026  12.5847425
  87.1830139 176.2206116  11.9905443  86.9726791 177.2535248  12.2679806
  87.8702545 176.3080139  10.6246643  88.7891846 176.8745270  10.7754393
  88.2152100 175.3280029  10.2949848  86.9694519 176.8695831   9.5472517
  85.7741699 177.1216736   9.8028965  87.4340744 177.0839233   8.4197874
  85.8771591 175.3529510  12.0398312  85.8429565 174.2360382  11.4754744
  84.8059387 175.8882141  12.6545887  84.8877716 176.7642365  13.1505623
  83.4938507 175.0958099  12.8395185  83.7880554 174.2688751  13.4858360
  82.4975281 175.8442230  13.7387495  81.5479279 175.3091125  13.7420244
  83.0871048 175.9532013  15.1570759  84.0339355 176.4895020  15.0937662
  82.3985367 176.5111237  15.7916660  83.3995514 174.9899597  15.5603456
  82.3742371 177.1806183  13.2930784  81.8102112 177.6488495  13.9129419
  82.8578491 174.5749969  11.5298796  81.9441757 173.7576904  11.5459528
  83.2883682 175.0887909  10.3790340  84.0425491 175.7599487  10.4086189
  82.8690720 174.5914001   9.0824814  81.7825851 174.5090790   9.0530033
  83.1167831 175.6171875   7.9298811  82.4274979 175.4343719   7.1055274
  82.8969193 176.6306610   8.2655029  84.4063644 175.6985321   7.4357314
  84.8904266 176.2925873   8.0139933  83.3888168 173.2613831   8.6387062
  82.7089996 172.6002808   7.8664365  84.5525284 172.8218689   9.1601849
  85.0020828 173.4891357   9.7707195  85.2418823 171.5378418   8.8141880
  85.3938751 171.5900726   7.7361021  86.5975800 171.4186554   9.5223312
  86.5581131 171.5737000  10.6005259  87.0173035 170.4186859   9.4128075
  87.6783752 172.4748383   9.0941639  87.2629242 173.4732971   9.2304783
  88.9003601 172.4597931   9.9685965  89.2129288 171.4165497  10.0138893
  89.6764984 173.0578918   9.4911184  88.6376801 172.8285828  10.9601135
  88.0768967 172.3360748   7.6005850  87.1969833 172.4849091   6.9747276
  88.7274399 173.1464996   7.2717991  88.5186310 171.3524475   7.4409614
  84.3702240 170.2626648   8.9122391  84.3954010 169.4256287   7.9963126
  83.5500565 170.0530701   9.9802284  83.4923019 170.7965088  11.2203894
  82.6908875 171.5352173  11.2095003  84.4159241 171.3367920  11.4280300
  83.0836258 169.7714386  12.2820063  82.6562881 170.3243713  13.1185255
  83.9208527 169.1387329  12.5766554  82.0986557 168.8700562  11.5362597
  81.1133194 169.3350677  11.5678120  82.0799637 167.8944855  12.0220842
  82.6152878 168.8747253  10.0945673  83.2649231 168.0113220   9.9509630
  81.5218430 168.9320068   9.0499611  81.1456909 167.8629303   8.5749130
  80.9339218 170.1030731   8.7739639  81.3466187 170.9561768   9.1232376
  79.7056427 170.2513580   8.0731964  79.0347290 169.4832611   8.4579296
  78.8906097 171.5694885   8.2051945  77.9953461 171.4111786   7.6039019
  78.4960632 171.8225861   9.6278954  79.4528122 172.0638733  10.0910425
  77.7021561 172.5689697   9.6549559  78.2356796 170.8979340  10.1429796
  79.5940933 172.7368622   7.8306947  79.5331726 172.8257141   6.8767576
  79.8350449 170.0634766   6.5632396  78.8908615 169.6919556   5.9188218
  81.0491333 170.1759338   5.9999995  81.7961807 170.3589325   6.6546330
  81.3999329 169.7407379   4.6410198  80.5411987 169.9364471   3.9988484
  82.5346680 170.5365295   4.0177193  82.5168762 170.2866211   2.9569049
  82.2632828 171.5706940   4.2297592  83.8176270 170.2403870   4.5655270
  84.4707489 170.9024048   4.3272662  81.6661530 168.2032013   4.4948316
  81.6235657 167.7202759   3.3442268  81.7471771 167.4406738   5.5570431
  81.5683365 167.9236450   6.4258699  81.9499588 165.9578400   5.6724501
  82.1556702 165.7443085   6.7213469  80.6898880 165.2198944   5.2640171
  80.4672546 165.4582367   4.2239561  80.9445114 164.1705933   5.4131689
  79.5596313 165.6065369   6.1841083  79.4022293 165.1311951   7.4570565
  78.3087234 165.6356049   7.9737320  77.9739380 165.3034058   8.9453106
  77.8070068 166.5832977   7.1223788  76.9406967 167.0700684   7.3030939
  78.5824356 166.5696716   5.9653468  78.4414520 167.1457214   5.0627437
  83.2000198 165.3916168   5.0064764  83.1447601 164.4692230   4.1702552
  84.3283691 166.0377960   5.2578917  84.2221909 166.8302002   5.8750768
  85.5818405 165.7475586   4.6125755  85.5265579 166.0690308   3.5725281
  86.7138748 166.5015564   5.3151035  86.7256927 166.3122864   6.3884792
  87.6479645 166.1740570   4.8586888  86.5486679 168.0071869   5.0485950
  86.4878769 168.1183319   3.9659820  85.5418472 168.3067780   5.3395529
  87.7962875 169.1209869   5.8152885  89.3058701 168.4580841   5.0305037
  89.2147675 168.5012207   3.9451733  90.1976242 168.9745026   5.3857498
  89.3224487 167.3756866   5.1579146  85.9763641 164.2731934   4.5647569
  86.3230286 163.7300415   3.5392697  85.8174210 163.6154175   5.7150335
  85.3924713 164.1136017   6.4840183  86.1995621 162.1824493   5.8776650
  87.2686005 161.9714050   5.9042058  85.7230835 161.6762238   7.3123798
  86.0586777 160.6646729   7.5409617  86.1424713 162.3052216   8.0975971
  84.2121658 161.5410767   7.4824376  83.4794083 162.7775574   7.7653637
  83.9938202 163.7090454   7.9500465  82.1044998 162.7176208   7.8002610
  81.5654678 163.6349792   7.9854827  81.3410263 161.5153503   7.7280264
  80.0040588 161.4310150   7.8128386  79.6260071 162.3089142   7.7235370
  82.0359879 160.3102875   7.4838085  81.5583191 159.3636017   7.2788534
  83.4985046 160.3343353   7.3099203  84.0353241 159.4569855   6.9805202
  85.5498886 161.2400970   4.8847899  86.1504059 160.2023773   4.6289663
  84.3628922 161.5719452   4.2661204  83.8889236 162.4089355   4.5741663
  83.7089233 160.7686005   3.3354414  83.8993454 159.7431030   3.6519883
  82.2388916 161.1133423   3.3778868  81.7814636 160.9652710   4.3561192
  82.1682053 162.1686859   3.1145639  81.2954636 160.3954468   2.3537254
  81.6928787 160.3608551   1.3393453  80.9841919 158.9499969   2.7446241
  80.2244186 158.9464111   3.5261846  80.6228561 158.3551941   1.9057266
  81.9217758 158.4942932   3.0630081  80.0190735 161.1823425   2.2385926
  80.2030334 162.1613312   1.7960272  79.3605423 160.6331024   1.5657041
  79.5957184 161.1904755   3.2429888  84.3168335 160.8859711   1.9609885
  84.1587830 159.9340820   1.1821615  85.0189056 161.9729919   1.6738265
  85.1871414 162.7009277   2.3534515  85.5679321 162.1654205   0.3225022
  86.6246643 161.8997192   0.2939574  85.0031433 161.5562439  -0.3832113
  85.4205856 163.5913086  -0.1548080  84.2992020 164.0670319  -0.3651348
  86.5495682 164.2297974  -0.4934640  87.4179916 163.7271118  -0.3783821
  86.6677628 165.3726807  -1.3979394  85.8504486 166.0340729  -1.1104369
  88.0205154 165.9805756  -1.0714628  87.8411636 167.0496826  -0.9577081
  88.3440857 165.7197266  -0.0638102  89.0163116 165.7129822  -2.0539777
  89.8286133 166.0164337  -1.6420496  86.4625778 165.0340576  -2.9090192
  86.4821396 163.8670654  -3.3524880  86.2310486 166.0490265  -3.7518468
  86.3291016 166.9994659  -3.4245045  85.8950882 165.8462677  -5.1787214
  85.6929474 166.8428955  -5.5710912  87.1669693 165.3439789  -5.9737196
  88.0968933 165.7833252  -5.6127181  87.3360214 164.2785492  -5.8175716
  87.2185974 165.5782471  -7.5274811  86.3614349 166.3184357  -8.0794344
  88.1616135 165.0937958  -8.2011290  84.6117630 165.0124817  -5.4830747
  84.6689224 164.0685425  -6.3503332  83.5371475 165.1976624  -4.7757959
  83.5929260 165.9826660  -4.1427288  82.2211609 164.7379456  -5.2412834
  82.3500290 163.7801361  -5.7453771  81.2357788 164.5863953  -4.0937033
  80.9336472 165.5667572  -3.7252841  80.3723602 164.0543213  -4.4930801
  81.8759232 163.7713928  -2.9303763  82.4240494 162.9118500  -3.3161545
  82.6652069 164.4225159  -2.5546565  81.0136185 163.3775482  -1.4525609
  79.6749420 162.3115692  -2.0756621  80.1974030 161.5035400  -2.5877438
  79.1577148 161.8282928  -1.2467972  78.9631805 162.9633484  -2.5822966
  81.6321030 165.6683960  -6.4069467  81.9672165 166.8495789  -6.5751314
  80.7363281 165.1046600  -7.2651949  80.5102844 164.1318512  -7.1146550
  79.7969131 165.8126678  -8.1247759  80.2937088 166.6006165  -8.6908464
  79.1852264 164.8305817  -9.1027374  79.9508667 164.2625275  -9.6311235
  78.6915359 164.0300903  -8.5517683  78.2360611 165.3649445 -10.1229172
  77.4596558 165.8435211  -9.5260448  78.6098022 166.1925354 -10.7258415
  77.5944901 164.2407379 -11.0124712  77.5840530 162.9882507 -10.6806803
  77.1247940 164.6411438 -12.0780468  78.7154388 166.5194244  -7.2440729
  78.3725815 166.1022949  -6.1194420  78.0597382 167.5486908  -7.7975502
  78.4103699 167.8880615  -8.6818514  76.9486694 168.3007355  -7.1765246
  76.6108322 167.7934875  -6.2728262  77.4645538 169.6131744  -6.6133323
  77.7001495 170.2881622  -7.4361229  76.6516876 170.0433502  -6.0282636
  78.6788483 169.4162598  -5.6667328  78.5425262 168.5455933  -5.0252957
  79.5437775 169.2216644  -6.3008609  79.0485153 170.6222229  -4.7910314
  78.3627472 171.6612244  -4.8671036  80.0853577 170.5435181  -4.0820904
  75.6494064 168.5619659  -7.9901414  75.7295532 168.6777191  -9.2134590
  74.5070496 168.6293182  -7.3384142  74.5964432 168.4186096  -6.3546915
  73.2188110 168.9973602  -7.9699101  73.2972946 169.0664368  -9.0548849
  72.2628326 167.8439178  -7.6419444  72.3088379 167.7557678  -6.5564876
  71.2488480 168.1665497  -7.8782468  72.6040878 166.4649506  -8.2132311
  72.1053314 166.1024475  -9.4723320  71.5327835 166.8123932 -10.0507507
  72.4214706 164.8632507  -9.9756041  71.9171982 164.4920197 -10.8555517
  73.3083496 164.0042114  -9.3101883  73.5654984 163.0427399  -9.7295046
  73.7436676 164.3893433  -8.0482302  74.3352203 163.7243500  -7.4364781
  73.3726425 165.6017761  -7.4671254  73.7891541 165.8677979  -6.5068393
  72.6472397 170.3434601  -7.3879752  72.4796524 170.5423431  -6.1961207
  72.4692993 171.3128204  -8.2203093  72.5079346 171.1238708  -9.2117243
  71.9618301 172.6574554  -7.9490843  72.0811234 172.8765259  -6.8880086
  72.8209152 173.6149292  -8.8169260  72.6196518 174.6772919  -8.6792030
  73.8482513 173.4214020  -8.5083132  72.7389526 173.3568726 -10.3188305
  73.2324219 172.2346802 -10.9587288  72.7497177 172.2776642 -12.2067804
  72.9330063 171.4386292 -12.8616314  71.9785767 173.3646088 -12.4018202
  71.4878540 173.5155182 -13.2715988  71.9335098 174.0391235 -11.1748743
  71.2300797 174.8361053 -10.9840746  70.4427261 172.9175873  -8.2821722
  69.8604050 173.8772278  -7.7205620  69.7894745 172.0361938  -9.0531893
  70.2903824 171.3389740  -9.5852327  68.3244858 171.9947815  -9.2816362
  67.8666763 172.9673767  -9.4620848  68.1799927 171.5287933 -10.2563581
  67.5962601 171.3000336  -8.0879393  68.0321426 170.2248230  -7.6351824
  66.6133041 171.9866333  -7.4480419  66.2642212 172.8577881  -7.8213210
  65.9093781 171.5209351  -6.1978807  66.5909882 170.8727417  -5.6471004
  65.5220337 172.8046875  -5.4223881  64.8966293 173.4700470  -6.0175910
  64.9009323 172.5113678  -4.5760469  66.7313919 173.5907135  -4.8433466
  67.2847824 173.9533691  -5.7095723  66.3227234 174.4167328  -4.2612886
  67.5948563 172.7632751  -3.8963690  66.9540939 172.2781677  -3.1600249
  68.0096436 172.0267792  -4.5845733  68.6612167 173.5890961  -3.2421772
  69.5615540 173.7350464  -3.6759868  68.6350937 174.2583008  -2.0673940
  67.5285339 174.4264374  -1.4267322  66.7443848 173.9316864  -1.8272742
  67.5209656 174.8864899  -0.5276254  69.6745605 174.8531952  -1.5505158
  70.5235825 174.8645477  -2.0974457  69.6555252 175.5308990  -0.8018714
  64.7113647 170.6038208  -6.4558959  64.1387177 170.4611816  -7.5361490
  64.2947311 169.8544159  -5.4339724  64.7259903 169.9906921  -4.5308943
  63.1745911 168.8605957  -5.5625401  62.7681618 168.8540649  -6.5739145
  63.6440620 167.4240265  -5.3272643  63.9745026 167.2363892  -4.3056474
  62.6560059 166.3476715  -5.8070459  62.3566360 166.5892334  -6.8269124
  63.0490913 165.3424225  -5.6552582  61.7741127 166.3656921  -5.1667056
  64.8035965 167.1533051  -6.0963621  64.6822968 166.2535858  -6.4084463
  62.0976334 169.2783356  -4.5670390  62.3149872 169.3342590  -3.3855071
  60.9494705 169.5623169  -5.1025019  60.9018173 169.5549927  -6.1113505
  59.7418404 169.8321533  -4.2565904  59.9083176 169.2630615  -3.3419778
  59.6041718 171.3560944  -3.9439185  59.8742943 171.8658600  -4.8687282
  58.5900154 171.7087860  -3.7562823  60.3615150 171.7497559  -2.6918628
  61.4103088 171.4677887  -2.7846963  60.2485542 173.2691345  -2.4459534
  59.1989632 173.5614166  -2.4137075  60.7768898 173.6398468  -1.5675852
  60.6801376 173.8519440  -3.2596900  59.7995567 171.1594238  -1.3969204
  60.0878792 170.1086578  -1.3674082  60.3365784 171.7522583  -0.6564792
  58.7184486 171.2612457  -1.3023963  58.4541931 169.3268127  -4.9273086
  58.3514519 169.2480927  -6.1410632  57.5069542 168.8804169  -4.1206160
  57.6372147 169.0405579  -3.1319358  56.1034698 168.4024506  -4.4379840
  55.9719772 168.2632751  -5.5110350  55.9406395 167.0276947  -3.7179289
  55.6937141 167.1352539  -2.6617277  55.0319824 166.6107788  -4.1522269
  57.0709572 165.9665375  -3.9690711  57.8705139 165.2457275  -3.0576987
  58.6028023 164.4293060  -3.7862895  59.4011421 163.7887115  -3.4417646
  58.3110428 164.4998169  -5.0457926  58.6704636 163.9018402  -5.7760944
  57.2803192 165.4365692  -5.1770630  56.8874168 165.8666534  -6.0864859
  55.0429382 169.4312897  -3.9967782  55.2530212 170.2013397  -3.0317500
  53.7980385 169.4272003  -4.5418930  53.5917892 168.8479919  -5.3431907
  52.7346268 170.2363739  -4.0006742  53.1569862 171.2165833  -3.7795563
  51.5965157 170.4656982  -4.9882584  51.1379967 169.5299225  -5.3079252
  50.8428802 171.0730133  -4.4869499  52.0138206 171.3066406  -6.1579905
  51.8238106 172.5606384  -6.1101193  52.4163055 170.7047424  -7.1876330
  52.2866592 169.7298126  -2.6389351  52.3204117 168.5197754  -2.3025112
  51.8826408 170.6708069  -1.7375145  51.9238777 171.6219177  -2.0748658
  51.3773689 170.3552399  -0.4131368  52.1860733 169.8553619   0.1199840
  50.9807968 171.6186523   0.2601827  50.3350601 172.2232513  -0.3766786
  50.4257431 171.2923431   1.1396904  52.1970558 172.4580688   0.7503321
  53.2640076 171.8693390   1.1310596  52.2257881 173.6937408   0.7934265
  50.1753044 169.3627472  -0.4226234  49.2972755 169.3469238  -1.3038102
  50.1972008 168.5182037   0.5933093  50.9023743 168.6626892   1.3018017
  49.2332764 167.4287567   0.8832320  49.7409286 166.7218323   1.5394641
  47.9914627 168.0471649   1.5778167  47.7696877 168.9825897   1.0640818
  47.1442833 167.3873901   1.3905394  48.1469154 168.3596802   3.0516939
  48.7219391 167.5083160   3.7508409  47.5942955 169.4387360   3.4232581
  48.8438225 166.5754700  -0.3582222  47.7630119 165.9759064  -0.4052390
  49.6384659 166.5363464  -1.4094925  50.3683701 167.2317810  -1.4702989
  49.4893799 165.6352386  -2.5354135  48.4272690 165.4866943  -2.7302315
  50.1670494 166.2538910  -3.7517865  49.8444710 165.7014771  -4.6343265
  49.8420906 167.2900391  -3.8462355  51.5882301 166.1016388  -3.7720311
  51.9664078 166.7895508  -3.2194333  50.0063171 164.2122650  -2.1088114
  50.8555107 164.1596375  -1.2390299  49.3982697 163.1396027  -2.6213582
  48.7633705 163.2635803  -3.3970098  49.8465729 161.7756958  -2.4010170
  50.0580597 161.6392975  -1.3404651  48.7947197 160.7761383  -2.8253746
  47.8746414 161.1946106  -2.4174154  48.5467911 160.7895966  -3.8867211
  49.1569099 159.0921021  -2.2825143  48.9312019 159.3960266  -1.0012652
  51.1623268 161.6274872  -3.2164047  51.1563034 162.0935059  -4.3571296
  52.1483536 160.8433228  -2.7157001  51.9320946 160.4642334  -1.8048657
  53.3185616 160.4898224  -3.5179358  53.0580482 160.5607300  -4.5739689
  54.4286690 161.5576782  -3.3345168  54.8018188 161.4865570  -2.3128500
  55.3171272 161.1895447  -3.8475761  54.1320419 163.0070496  -3.6656172
  53.3030624 163.3470306  -3.0448866  55.0272636 163.5968323  -3.4685502
  53.7864799 163.2569427  -5.1362162  54.1770744 162.5288849  -6.0390162
  53.0163956 164.2373505  -5.5668497  52.7058220 164.1899872  -6.5267458
  52.6179161 164.9535217  -4.9765792  53.8315125 159.0287018  -3.2521398
  53.4365005 158.4911652  -2.2393241  54.6895065 158.4698029  -4.0823374
  54.8916130 158.8719635  -4.9865031  55.3291855 157.2121887  -3.8879671
  55.1280022 156.9293365  -2.8547075  54.7831955 156.1416473  -4.8151855
  53.7055969 156.0712280  -4.6671066  55.0695686 156.2124939  -6.3040786
  56.1392326 156.3261566  -6.4801364  54.7146034 155.3320770  -6.8397636
  54.5357399 157.1143799  -6.6036329  55.3787727 154.8060303  -4.3851328
  55.0197105 154.6114197  -3.3745348  54.9587402 154.0060120  -4.9947553
  56.4678154 154.7678223  -4.4100494  56.8186150 157.3919220  -4.0771165
  57.2594032 158.0568695  -5.0044637  57.6265602 156.8489380  -3.1080463
  57.1698570 156.3820801  -2.3376136  59.0959511 157.1206818  -2.8801229
  59.5198135 157.3687439  -3.8532116  59.2691116 158.3768921  -2.0228021
  58.9636269 158.0867310  -1.0175215  60.7192459 158.8965302  -1.9896399
  61.0273552 159.5038452  -2.8407254  60.8482170 159.5159912  -1.1020967
  61.4775085 158.1139679  -1.9625480  58.3402100 159.5657654  -2.3990872
  58.5824318 159.7536163  -3.4450977  57.3385239 159.1631012  -2.2487762
  58.4406853 160.8780670  -1.6326102  59.2360535 161.5399017  -1.9753364
  57.5319366 161.4716492  -1.7322967  58.5197334 160.7005768  -0.5600628
  59.8595543 155.9116211  -2.2676072  59.3193932 155.3047180  -1.3420286
  61.0487099 155.4821930  -2.7757094  61.6615562 155.9541473  -4.0277390
  61.9497833 157.0052490  -4.0129123  61.0270424 155.8117523  -4.9025040
  62.9813194 155.2246246  -4.1631427  63.8112640 155.8567200  -3.8473024
  63.1795998 154.8197021  -5.1555252  62.8846970 154.0201569  -3.2106929
  63.8424950 153.7041779  -2.7973113  62.4919319 153.2136536  -3.8298712
  61.8775978 154.4318848  -2.1339133  61.0728035 153.7071991  -2.0104156
  62.5085602 154.8666382  -0.7585152  62.9129753 155.9882507  -0.6154975
  62.5823784 153.8728790   0.1693404  62.1344032 152.9801178   0.0196874
  63.3483086 153.9549561   1.4069568  63.6091118 154.9891510   1.6317533
  62.5963631 153.4515228   2.6847539  62.1612206 152.4943848   2.3972526
  63.4105377 153.3028259   3.9952004  63.8898506 154.2174835   4.3441386
  62.8245544 152.9667053   4.8506222  64.1685486 152.5312500   3.8603415
  61.4278679 154.3751221   3.0089724  60.8331528 154.3510742   2.0958209
  60.8016663 153.9670715   3.8023686  61.7629776 155.3733521   3.2905974
  64.6234207 153.1945038   1.2109501  64.5275955 152.0261993   0.8391830
  65.7725983 153.7200317   1.7141504  65.9360962 154.6986847   1.9028723
  66.9927063 152.8966522   2.0071778  67.0630722 152.2769165   1.1132692
  68.2328568 153.7771912   2.0427566  68.0101852 154.5018311   2.8259714
  69.1641464 153.3017578   2.3505640  68.6771011 154.4685974   0.6734428
  67.8199539 154.9024963   0.1585419  69.5382538 155.6957855   0.9843622
  70.5062256 155.4260406   1.4066951  69.6662064 156.3993378   0.1617021
  68.9768524 156.3575439   1.6439263  69.4896240 153.4742126  -0.2130277
  68.9861832 152.5083313  -0.2544641  69.7847672 153.8749847  -1.1827555
  70.3920975 153.2933197   0.3708614  66.8746490 151.9584503   3.2739840
  66.6426086 152.5555573   4.3240614  67.0721970 150.6281738   3.2459028
  67.3505173 149.8269348   2.0796657  68.2992325 150.1513214   1.6520997
  66.5805054 149.9003143   1.3116794  67.4427109 148.3972626   2.5850241
  68.4800644 148.1132050   2.7619700  67.0583954 147.7130585   1.8285364
  66.5433960 148.3948822   3.8507481  66.8005524 147.6076508   4.5594358
  65.5170593 148.2697296   3.5056810  66.7539673 149.8059082   4.3890481
  65.7523804 150.1163635   4.6866145  67.6959076 149.9112701   5.5799060
  67.3041992 149.7648621   6.7385421  68.9955597 150.2151184   5.3304348
  69.2521057 150.3761292   4.3669190  69.9632645 150.4390869   6.4715924
  69.7186508 149.7772369   7.3023911  71.3168640 149.8541718   6.0459342
  71.5881805 150.4151611   5.1516228  72.0654068 150.1775208   6.7692904
  71.4424896 148.3664551   5.7844982  70.6959305 147.6650085   4.8596592
  71.0582886 146.3630676   4.9268312  70.5888519 145.5267029   4.4303222
  71.9393616 146.2631073   5.9538159  72.3104477 145.3395996   6.1256356
  72.1957703 147.4944916   6.4829922  72.9068375 147.7313080   7.2606177
  69.9764938 151.8109436   7.1835151  70.8026733 151.9393311   8.0878105
  69.1573715 152.7881622   6.6717710  68.6826859 152.5172272   5.8224368
  68.9582367 154.0685577   7.3810115  69.8957367 154.4494629   7.7861209
  68.3739471 155.1138306   6.4103470  67.4291916 154.7503204   6.0061212
  68.2145004 156.4794312   7.1440587  69.1979599 156.7613068   7.5201764
  67.9115219 157.2986145   6.4919429  67.4858475 156.3541565   7.9449716
  69.3782730 155.2055969   5.2649531  69.2395782 154.3383331   4.6194124
  69.1012955 156.0821075   4.6792073  70.3776932 155.2860107   5.6925068
  67.9005432 153.7761536   8.4752827  66.7542496 153.5287170   8.2007074
  68.3037643 153.9382935   9.7545567  69.2834473 153.8529358   9.9848251
  67.4463043 153.6783905  10.9850607  66.4154739 153.4928741  10.6832809
  67.8874359 152.3915558  11.7445993  68.8486023 152.6533356  12.1870127
  67.1675262 152.0743256  12.4990530  68.2073746 151.1627045  10.8749866
  67.3440628 151.1083984  10.2117729  69.0702515 151.3892822  10.2487211
  68.4869537 149.5889740  11.7156420  69.2649307 148.6213379  10.3936024
  70.1782227 149.0748749  10.0084896  69.5249786 147.6376343  10.7844763
  68.5332642 148.5832367   9.5865669  67.2841873 154.8477936  12.0153561
  66.3751831 154.8591003  12.8431396  68.1217194 155.8594208  11.8335333
  68.8544693 155.7030182  11.1562519  68.0491943 157.2061157  12.4635410
  67.6231613 157.0276947  13.4508381  69.4306564 157.8453064  12.7304344
  69.3107071 158.8122253  13.2191067  70.1236801 156.9148102  13.7903910
  70.4383087 155.9296722  13.4459858  71.0495148 157.2985382  14.2189827
  69.4288635 156.7509155  14.6140795  70.2948608 157.9018250  11.4280424
  69.6718597 158.1670227  10.5738525  71.0507584 158.6661987  11.6081610
  70.7162781 156.8985291  11.3656120  67.0405045 158.1298218  11.7238750
  66.7883606 158.0271912  10.5171976  66.4162979 158.9763794  12.5443754
  66.7467194 158.9351807  13.4979076  65.3732910 159.8650970  12.0986490
  64.8387299 159.2493896  11.3752918  64.4924622 160.1727753  13.2958317
  64.2478561 159.2235718  13.7725801  65.1321640 160.7862396  13.9302788
  63.2460823 160.9812927  12.9548874  63.5411644 161.8654480  12.3898172
  62.6720581 160.4487457  12.1966028  62.2886200 161.6118011  14.3304377
  62.4242744 160.2777252  15.5250444  63.4691963 160.2243652  15.8306580
  61.6645699 160.4234314  16.2929783  62.1856804 159.3026123  15.1004095
  65.9218979 161.1812286  11.4775906  66.5485229 162.0169067  12.1522427
  65.6457062 161.3507538  10.1760960  65.2900009 160.5359344   9.6968822
  65.9035645 162.5950623   9.4914055  66.8918762 162.9759674   9.7488251
  65.8282242 162.3382721   7.9689555  66.5314407 161.5328674   7.7570152
  64.8413239 161.9916840   7.6623526  66.1483231 163.5308228   7.0385623
  65.4048767 164.3094482   7.2092690  67.5839996 164.0236816   7.2454710
  68.3783493 163.2807312   7.1739197  67.8356323 164.7565460   6.4788580
  67.5820465 164.5242615   8.2137270  66.0884018 163.0775146   5.5427203
  65.0793610 162.7608185   5.2788267  66.4742661 163.8836517   4.9187431
  66.6749649 162.1632690   5.4522171  64.8847885 163.6729431  10.0003386
  63.6500587 163.4859924   9.9713917  65.3133698 164.9500732  10.2292862
  66.2974319 165.0753937  10.4190435  64.4619141 166.1535645  10.3977747
  63.4195557 165.8664398  10.2593584  64.7406006 166.8141937  11.7765236
  65.7630005 167.1920166  11.7703028  63.7585602 167.9915771  12.0134745
  62.7315369 167.6372375  12.1015930  64.1029129 168.4501038  12.9404449
  63.9061432 168.6894684  11.1892920  64.5922623 165.8482361  12.9728222
  65.3236008 165.0540619  12.8227444  64.9053802 166.4471436  13.8280258
  63.3108215 165.0726318  13.2025356  63.0561447 164.4361420  12.3551207
  63.4074249 164.4661560  14.1030674  62.4784355 165.7605591  13.3508673
  64.6904602 167.0792389   9.1784410  65.8823853 167.0963745   8.7780495
  63.7186890 167.7873688   8.5425091  62.2720451 167.8626251   8.7120886
  62.1074333 168.4418030   9.6206875  61.8824387 166.8514709   8.8298664
  61.7074127 168.4857635   7.4092712  60.8199120 169.0615234   7.6718307
  61.5659790 167.8202515   6.5576863  62.8764763 169.3985596   7.0863280
  62.8676834 170.3014832   7.6968570  62.8853912 169.7078400   6.0411649
  64.1948318 168.7241669   7.4287801  64.4602127 168.1395416   6.5479312
  65.2907791 169.6491089   7.9033246  65.4302292 170.0256195   9.0841169
  66.0389099 170.1439667   6.8681345  65.7771912 169.9662628   5.9089561
  67.1638489 171.0582733   7.1311321  67.3412781 171.6105194   6.2082911
  66.8987427 171.7542419   7.9270134  68.4727936 170.3346405   7.5933719
  69.5726776 170.9312897   7.5097914  68.3556900 169.0895691   8.0957146
  67.4293365 168.6884460   8.0628386  69.5579987 168.2423248   8.6217089
  70.1648026 168.8824768   9.2620907  69.0127258 167.1129761   9.5446405
  68.3986969 167.5843506  10.3120241  68.3104095 166.4939728   8.9863491
  70.0854187 166.3144379  10.2820854  70.7215805 165.8654022   9.5193453
  70.7305222 166.9482727  10.8905220  69.4726639 165.1914520  11.1452980
  68.2613297 165.1129150  11.4757977  70.2287979 164.1572723  11.5381451
  69.8931122 163.5435486  12.2666807  71.1832581 164.0047455  11.2451563
  70.2707443 167.7311249   7.4225526  69.6967010 167.0207672   6.5865316
  71.5960007 167.8176422   7.3675056  72.0672760 168.4142609   8.0323801
  72.4310989 167.1499176   6.3400049  71.9297180 167.1246338   5.3724909
  73.7286835 167.9264832   6.1202664  74.1444244 168.2428131   7.0769248
  74.7870636 167.1422119   5.3291507  74.2128448 166.7728119   4.4794908
  75.6317520 167.7920837   5.1005292  75.1427536 166.3047943   5.9294124
  73.4339828 169.0913239   5.3251958  74.2293930 169.2611694   4.8152285
  72.5798645 165.6727753   6.7809081  72.8030319 165.3316040   7.9769902
  72.5945129 164.7808838   5.8054366  72.3223114 165.1435547   4.9029503
  72.7611542 163.3121796   5.9204984  73.0394058 163.1605835   6.9634304
  71.3099670 162.7615509   5.7296853  70.6346893 163.2351074   6.4423146
  70.9676208 162.8740540   4.7009754  71.1177139 161.2590790   6.0488830
  71.7422180 160.6339874   5.4106297  71.4521179 160.8468933   7.4646978
  70.8679581 161.3246918   8.2511864  71.3345718 159.7685089   7.5713778
  72.5215759 161.0118408   7.5956626  69.6318207 160.8865051   5.8084221
  69.2708740 161.2886353   4.8617887  69.5978851 159.8066559   5.6639624
  68.9908447 161.2856750   6.5944943  73.8217010 162.7573395   4.9098878
  73.4972839 162.4541168   3.7934010  75.0522385 162.5805054   5.3410368
  75.5268860 163.0923767   6.6833215  74.8517456 162.7631683   7.4732022
  75.6057663 164.1771545   6.6117291  76.8944931 162.4163818   6.8497114
  76.8231277 161.4368286   7.3224673  77.5951843 163.0664368   7.3736873
  77.4036942 162.1542969   5.4429998  78.0916214 161.3162842   5.3307738
  77.7362747 163.1094971   5.0367079  76.1250458 161.8205261   4.7003307
  76.1959305 162.1164551   3.6536641  75.7856979 160.3472290   4.7351885
  75.3304062 159.9025726   5.8035488  76.0812683 159.5991821   3.6705437
  76.2126007 160.0274048   2.7652936  75.8511887 158.1380005   3.6378205
  75.8037643 157.7878723   4.6689649  74.4861603 157.8321381   2.9541090
  74.5223236 158.2226562   1.9371103  74.3714371 156.7536163   2.8457255
  73.2306671 158.2902679   3.7129467  73.2816238 159.3336487   4.0241613
  72.0166168 158.1930084   2.7702706  72.0698318 157.2659454   2.1994560
  71.1550522 158.3536224   3.4183495  72.0514679 159.0242004   2.0659831
  72.9192429 157.3563995   4.8760266  73.8471375 157.2109070   5.4291458
  72.1738663 157.7909393   5.5421243  72.6289825 156.3611755   4.5392995
  76.9491425 157.3714294   2.8740003  77.6979218 157.9554138   2.1022592
  77.0263748 156.0345917   3.0009966  76.3971405 155.6270905   3.6778393
  78.0020752 155.2431793   2.3092568  78.2341385 155.6557007   1.3273871
  79.3247147 155.2088165   3.0762980  79.6563187 156.2460022   3.0276098
  79.0362244 154.9262543   4.0887394  80.4844971 154.2742462   2.6623402
  80.3571854 153.2418060   2.9878628  80.5393143 154.2564545   1.5738639
  81.8900986 154.6310272   3.1482205  82.1104813 155.6775665   3.7697935
  82.8544159 153.8101349   2.7640250  83.8117828 153.9557648   3.0509655
  82.5291595 153.0556183   2.1766558  77.4054413 153.8086243   2.0621424
  77.0457764 153.0799713   2.9668941  77.0486908 153.5221405   0.7614452
  77.2815933 154.1767273   0.0283795  76.1628342 152.4369507   0.4326506
  75.8896866 151.9566498   1.3722253  74.8810654 152.9942322  -0.2771295
  75.1802444 153.2021942  -1.3044275  74.1572876 152.1825409  -0.3506950
  74.1982498 154.1979523   0.3262016  74.9011383 155.0292969   0.3801620
  73.0923004 154.7311096  -0.5747641  72.3732834 153.9201355  -0.6906815
  72.7088013 155.6533661  -0.1383179  73.5706711 154.8349762  -1.5486579
  73.7246857 153.8456268   1.7489333  74.5453415 153.4849396   2.3690414
  73.1831131 154.6667786   2.2185264  73.0534897 152.9871216   1.7255348
  76.9391174 151.4767761  -0.4155554  77.4940491 151.8437347  -1.4751645
  76.8746490 150.1553650  -0.0839253  76.2298813 149.9601746   0.6685835
  77.8377457 149.1277008  -0.5604766  78.2773895 149.4591675  -1.5011876
  79.0315781 149.0214691   0.4098465  79.7640610 148.2959290   0.0560742
  79.4916000 150.0096283   0.4127310  78.8144760 148.7044067   1.8699603
  78.1299133 149.6066589   2.7501681  77.9673767 150.6506500   2.5263922
  77.8795547 149.1795502   4.0618906  77.3916245 149.8922119   4.7103009
  78.1523514 147.8722534   4.4882731  77.9220352 147.5098572   5.4792452
  78.7594604 146.9535370   3.5602636  78.8217392 145.8959198   3.7699461
  79.0052032 147.3684540   2.2855482  79.2706985 146.6352844   1.5383027
  77.1877289 147.6929169  -0.7384782  77.7590103 146.9836884  -1.5847845
  76.0733490 147.3814850  -0.0395971  75.8295441 147.9925537   0.7267256
  75.2079773 146.2836304  -0.5322229  75.8935623 145.4377289  -0.5824746
  74.1464539 145.8190002   0.4086677  73.4822845 146.6544189   0.6301997
  73.4941483 145.0916290  -0.0745755  74.7542267 145.1876373   1.6271734
  74.7436523 143.8049164   1.9307359  75.4146576 143.6391907   3.0803099
  75.6806641 142.6958618   3.5339358  75.8760071 144.8308258   3.4373991
  76.5360718 144.9019928   4.1985502  75.4466782 145.8444824   2.5991731
  75.4201889 146.8932800   2.8555560  74.7315521 146.6261902  -1.9480586
  74.3712692 147.7869110  -2.1669290  74.5471802 145.5869141  -2.8591809
  74.8760452 144.1672516  -2.6793306  74.3609924 143.8499603  -1.7726005
  75.9420853 143.9410095  -2.6573563  74.2971039 143.4764099  -3.9011457
  73.2444687 143.2190399  -3.7835598  74.8352280 142.5823364  -4.2160783
  74.4617615 144.5125427  -5.0238037  73.6866302 144.4489441  -5.7874966
  75.4074173 144.5118103  -5.5658765  74.4169006 145.9168091  -4.3299222
  75.2256927 146.5344086  -4.7204661  73.0398788 146.5661163  -4.6208324
  72.9808731 147.5014496  -5.4687281  71.9967880 146.1052551  -3.9880705
  72.1876602 145.3294525  -3.3701775  70.6519165 146.7630615  -4.0909586
  70.4300003 146.7975006  -5.1575766  69.5213928 145.8899384  -3.4777462
  68.5935135 146.3230591  -3.8512874  69.6840820 144.9107056  -3.9280236
  69.3768921 145.7568512  -1.9402457  69.2560654 146.7420502  -1.4898487
  68.4010162 145.3564301  -1.6655880  70.4009171 144.9261017  -1.1303703
  71.4730911 144.5681763  -1.5163441  69.9868851 144.5216370   0.0376525
  70.7127686 144.0468597   0.5551319  69.1115341 144.7682343   0.4770181
  70.6805801 148.1933594  -3.6370246  69.8738251 148.9956665  -4.1752954
  71.4310226 148.6481171  -2.6676536  71.9775085 147.9880676  -2.1330531
  71.4128494 150.1132660  -2.2648473  70.3951797 150.4943542  -2.3498459
  71.9384460 150.2943726  -0.8610163  72.9952850 150.0277557  -0.8510817
  71.7614594 151.3252563  -0.5542918  71.1990891 149.4761658   0.1906470
  70.1292114 149.6612549   0.0947038  71.4546585 148.4442444  -0.0500160
  71.7853241 149.8493042   1.5578009  73.0058136 149.7032166   1.8397260
  70.9577866 150.3165436   2.4281747  72.2370987 151.0062866  -3.1913555
  71.7984772 152.1039581  -3.4142289  73.3733902 150.4936676  -3.6776609
  73.6196442 149.5722656  -3.3452647  74.0101852 151.0098267  -4.9020629
  74.4017944 151.9972534  -4.6576710  75.1607208 150.0731354  -5.2631979
  74.8572540 149.0392303  -5.4276686  75.8946381 150.5737610  -6.5053501
  76.2532578 151.5871124  -6.3247933  76.6625137 149.8182068  -6.6714792
  75.2242355 150.4642029  -7.3577900  76.2538834 149.9196625  -4.1759281
  75.9434357 149.5295715  -3.2066221  77.0246277 149.2326660  -4.5253482
  76.6552353 150.9231567  -4.0344238  73.0058060 151.1046600  -6.0362883
  72.8188858 152.2182465  -6.5438681  72.2833023 150.0426636  -6.4624624
  72.5819931 149.1345215  -6.1366639  71.3730545 150.0812836  -7.6447644
  71.9601364 150.3868408  -8.5108376  70.8533249 148.6766968  -7.9125605
  71.6880264 147.9987793  -8.0909023  70.2910309 148.2740021  -7.0700874
  70.1666107 148.7687531  -9.1189108  69.4014664 148.1927795  -9.0524311
  70.2664642 151.1648865  -7.5614996  70.0653763 151.9860535  -8.4224043
  69.5474167 151.0773315  -6.4274516  69.8072357 150.4077911  -5.7173052
  68.4676590 152.0110626  -6.1661730  67.6550598 151.8796539  -6.8806767
  67.7740631 151.6866760  -4.8323436  67.4834518 150.6374664  -4.7792645
  68.5419693 151.9390717  -4.1010976  66.4819260 152.4240265  -4.5247717
  65.7738800 152.1545868  -5.3084612  66.1367340 151.9470367  -3.6074865
  66.4525986 154.2080383  -4.2364845  66.9933090 154.3377228  -2.5801833
  68.0411606 154.0375671  -2.5842059  66.9807129 155.3698273  -2.2298963
  66.3914719 153.6314087  -2.0083334  68.8829651 153.5164032  -6.2618227
  68.1363525 154.3307800  -6.9355717  69.9655151 153.9968567  -5.6354947
  70.4799652 153.3450317  -5.0605540  70.3492737 155.3781586  -5.8046980
  69.5078354 156.0542755  -5.6532564  71.3184967 155.8276672  -4.6824765
  71.6106262 156.8713684  -4.7984567  70.6855774 155.6412811  -3.2745419
  70.6866531 154.5765228  -3.0413282  71.3840027 156.1946106  -2.6467445
  69.6632462 156.0186920  -3.2971005  72.7177429 155.1689758  -4.8011279
  73.1053543 155.1316833  -5.8191972  73.4206161 155.6773987  -4.1411338
  72.7369461 154.1041412  -4.5690317  70.9398499 155.6797180  -7.1226988
  70.7942429 156.7970276  -7.5975461  71.6222992 154.7344513  -7.8093395
  71.7284164 153.8163452  -7.4020014  72.1329956 154.8463898  -9.1606245
  72.8238373 155.6855011  -9.2425394  72.8841629 153.5810699  -9.6438303
  73.6873245 153.3840485  -8.9337492  72.1334686 152.7948456  -9.5637531
  73.3973007 153.6583252 -11.0283537  72.6177216 153.7901611 -11.7786760
  73.9104538 154.6120758 -11.1513901  74.2081528 152.4536133 -11.4682446
  73.4762650 151.6467896 -11.4298897  74.5694504 152.4976501 -12.4956808
  75.4863815 152.2434540 -10.6624947  76.0342789 153.0342560 -10.3550587
  76.0635681 151.0576630 -10.3553896  75.5186234 149.8965912 -10.5338974
  74.6481781 149.8322144 -11.0421076  76.0446014 149.0992432 -10.2057552
  77.1328659 150.9803925  -9.6424646  77.5894165 151.8627167  -9.4603806
  77.5418549 150.0630341  -9.7486811  70.9881973 155.2572784 -10.1040201
  71.0401917 156.3426514 -10.6553621  69.9092865 154.5053406 -10.1485634
  69.8506165 153.7643738  -9.4647284  68.7635193 154.6466064 -11.0775576
  69.0741425 154.8433228 -12.1036739  67.9156342 153.3114319 -11.0899248
  67.5991058 152.9263306 -10.1205873  67.0124664 153.5015717 -11.6697855
  68.6495285 152.2198792 -11.8435183  68.4865799 152.1293793 -13.0494251
  69.4458160 151.3861237 -11.1699610  70.0072708 150.7337189 -11.6983795
  69.5638809 151.5608215 -10.1822147  67.8909302 155.8853302 -10.7544765
  67.2251587 156.3740540 -11.6335182  67.8893509 156.3454285  -9.5353346
  68.4406967 155.7640533  -8.9204273  67.2962265 157.6162567  -9.0419445
  66.2664413 157.7636566  -9.3673868  67.1271057 157.4537506  -7.4455690
  66.4602432 156.6102600  -7.2668881  68.0634918 157.3099823  -6.9064808
  66.5382233 158.7443695  -6.7735138  67.1893845 159.6116333  -6.8827958
  65.0967407 159.0824432  -7.1341977  64.4856567 158.1828156  -7.0609527
  64.6639328 159.8419800  -6.4831409  64.9863358 159.5764618  -8.0995235
  66.5366516 158.5006866  -5.2465878  67.4604111 158.0977173  -4.8313761
  66.3098526 159.3916779  -4.6611133  65.8842621 157.6419525  -5.0882564
  68.1372681 158.9044037  -9.4077826  67.5882568 160.0220490  -9.5520430
  69.4784012 158.8037109  -9.5365028  69.8626556 157.8763428  -9.4249525
  70.3256454 159.9871674  -9.7595282  69.9369202 160.7595825  -9.0959187
  71.8023224 159.7027283  -9.3230038  71.7881470 158.7266846  -8.8379812
  72.7423553 159.4786377 -10.4819345  72.8602905 160.4300537 -11.0005827
  73.7311249 159.2428894 -10.0883970  72.4145203 158.6632996 -11.1267986
  72.3356857 160.7344513  -8.3552208  73.4241257 160.6791840  -8.3365459
  72.1212540 161.7449493  -8.7031097  71.7439575 160.6692352  -6.9325566
  72.1757584 159.8056946  -6.4266424  71.9872818 161.5974121  -6.4154582
  70.6584091 160.5775909  -6.9683652  70.1809158 160.5391388 -11.1791620
  70.5419540 161.7050476 -11.4763002  69.5428848 159.7524872 -12.0222721
  69.2633896 158.8323669 -11.7134876  69.0675735 160.1490631 -13.3784533
  69.7783890 160.8245697 -13.8544064  69.0548019 158.9767914 -14.3492937
  68.8152008 158.0895538 -13.7632008  68.2694550 159.1094818 -15.0934229
  70.3771820 158.7192383 -15.1462421  70.2696381 157.7789307 -15.6869421
  70.4190750 159.5047455 -15.9007759  71.6029816 158.6846771 -14.3205872
  72.4401093 159.5421600 -14.2510290  71.8396530 157.6023560 -13.6000824
  72.6692657 157.6424255 -13.0254221  71.2699661 156.7691193 -13.6358194
  67.6788940 160.9178467 -13.3292227  67.1966400 161.5136719 -14.2952833
  66.9290390 160.9058990 -12.1545992  67.3985977 160.5561676 -11.3316135
  65.5896988 161.5141907 -11.9989376  65.5309677 162.2893677 -12.7629814
  64.5294266 160.4240570 -12.3323030  63.5357437 160.8245239 -12.1314802
  64.5646667 160.2474518 -13.4073229  64.7364120 159.0190277 -11.6936245
  65.6701126 158.5800171 -12.0451717  64.9147797 159.2802124 -10.6505194
  63.4811211 158.0985565 -11.8733015  63.3751221 157.3576050 -11.0809212
  62.6263580 158.7711487 -11.8018904  63.4482613 157.3804474 -13.1816654
  63.0245209 157.9017487 -14.0400324  64.4340286 157.0206146 -13.4764194
  62.5917740 156.1285706 -13.0887594  61.6820068 156.4173431 -12.7585669
  62.5113525 155.6750793 -13.9876432  62.8630180 155.4887543 -12.3558369
  65.3514938 162.3682098 -10.7009325  65.9825439 163.4001312 -10.5385313
  64.4174805 162.0078278  -9.8701944  63.9682884 161.1063995  -9.9460583
  64.0243073 162.9178772  -8.7005024  63.9141541 163.9342194  -9.0786781
  62.6815872 162.3860321  -8.0791397  62.2750244 161.5810394  -8.6913347
  62.8998070 162.0997314  -7.0503006  61.4762497 163.3890991  -8.1527634
  61.6246948 164.4438629  -8.8463240  60.4708176 163.1950836  -7.4397612
  64.9263153 163.1143646  -7.4873366  64.7643661 164.0933533  -6.7626476
  65.9217758 162.2670898  -7.2714577  66.0839996 161.5564117  -7.9705410
  66.9645844 162.3509674  -6.2081079  67.5365143 161.4230957  -6.2004881
  67.9371338 163.4974670  -6.4468060  67.4004364 164.4340057  -6.5982895
  68.6206436 163.6818237  -5.6179905  68.7170105 163.2322083  -7.7232342
  69.2826309 162.3151703  -7.5582972  68.0802917 163.0153809  -8.5809488
  69.6402130 164.3127289  -8.1797638  70.3372421 164.5068054  -7.3645396
  70.3392868 163.9315491  -8.9241486  68.9040985 165.5190125  -8.6481009
  68.4899216 165.4431305  -9.5661421  68.6733017 166.5833740  -7.9182749
  69.0106583 166.7781982  -6.6784248  69.6278687 166.1401978  -6.1966567
  68.7314148 167.6227112  -6.1999712  68.0216446 167.5773315  -8.4317904
  67.7211227 167.5594940  -9.3958826  67.8621445 168.4642487  -7.9756904
  66.4031525 162.4561768  -4.7280989  67.1837234 162.4211273  -3.7258053
  65.1443329 162.2673340  -4.5115232  64.5464935 162.3720551  -5.3188167
  64.4806213 162.0428314  -3.1594450  65.1712418 162.4021301  -2.3965268
  63.2019043 162.8151703  -2.7970870  62.8442307 162.4484558  -1.8349539
  63.4970322 164.3348999  -2.6711862  64.3205643 164.6652527  -3.3042414
  62.5777626 164.7758636  -3.0566618  63.7174644 164.6244659  -1.6437309
  62.1524696 162.5857391  -3.7581203  62.0784302 161.7107239  -4.1460319
  64.4438019 160.5485229  -2.8477161  63.7475548 159.7729034  -3.5217757
  65.1291656 160.1373444  -1.7768433  65.7660828 160.7441254  -1.2806103
  64.6998444 158.9447479  -1.1044420  63.9560661 158.4414825  -1.7221873
  65.9475174 158.0150299  -1.0269977  65.5499954 157.0849609  -0.6207357
  66.2793198 157.8012695  -2.0430279  67.0736771 158.5346985  -0.1385123
  68.2009583 159.1315002  -0.7592743  68.0905304 159.3409882  -1.8129915
  69.2468643 159.5797272   0.0641469  70.0799866 160.1251068  -0.3540503
  69.1841278 159.5206909   1.4979515  69.7718506 160.1649170   2.1351087
  68.1033936 158.8251343   2.1189964  68.1064911 158.5730591   3.1691682
  67.0517578 158.3625031   1.2822982  66.2012024 157.8586426   1.7171241
  64.0016403 159.3076630   0.1723701  64.3461075 160.3506622   0.7668925
  62.9820862 158.5301361   0.5785394  62.9341431 157.6152649   0.1533247
  62.3626137 158.6633453   1.8822913  62.2765350 159.7267151   2.1057580
  60.9713936 157.9627380   1.8154452  61.0438538 156.9508057   1.4169132
  60.4184036 157.9347839   2.7543395  60.3481560 158.4877014   1.0914967
  63.2634430 158.0804749   3.0410912  63.7869911 156.9918060   2.9142809
  63.2899628 158.7389221   4.2057438  62.8168373 159.6234436   4.3234515
  63.8703957 158.2859802   5.4606566  64.3407211 157.3055267   5.3856606
  64.9552994 159.2225342   6.0012112  64.6145020 160.2402496   6.1915345
  65.4941483 158.6176300   7.3762345  65.8064270 157.5737305   7.4056554
  66.2999191 159.2447052   7.7578464  64.7570724 158.8031006   8.1575298
  66.0101013 159.2690277   4.8912816  65.6439819 160.0457764   4.2199302
  66.9020386 159.7168579   5.3294525  66.1769867 158.2523804   4.5353632
  62.6975098 158.1989746   6.4688935  61.8411865 159.0943909   6.4331274
  62.6004982 157.1429291   7.2424750  63.3626518 156.4873505   7.3397064
  61.4050255 156.9242554   8.1079617  60.5917015 157.5867462   7.8117919
  60.8944550 155.5015411   7.8717017  61.8021355 154.9149475   7.7298379
  60.4484634 155.1542206   8.8036661  59.9762383 155.2217560   6.6416912
  60.4663925 155.5531616   5.7262573  59.7473373 153.7467957   6.4923415
  59.1409607 153.2720795   7.2637353  59.2728500 153.5523987   5.5304832
  60.7410316 153.3008575   6.4496546  58.6180496 155.9276733   6.6402335
  58.8249092 156.9977112   6.6577635  57.9713287 155.8335419   5.7678828
  58.0378036 155.6144714   7.5081730  61.7668343 157.1638947   9.6572275
  62.8567505 156.8115234  10.0933895  60.8790436 157.8298798  10.3383980
  60.0854416 158.2343597   9.8622818  60.7416306 157.7331390  11.7555666
  61.7967110 157.7868958  12.0239201  60.0711708 159.0173492  12.3524485
  59.0175133 158.7851410  12.5073252  60.4030266 159.1899261  13.3762598
  60.3318367 159.8557434  11.7064848  60.2606354 156.3564148  12.2692776
  59.0820122 156.1246643  12.5558205  61.1486168 155.3831787  12.3204889
  62.0942917 155.6135101  12.0507860  60.7626228 154.0810852  12.9482174
  59.8894157 153.6833344  12.4311123  61.9340935 153.0451202  12.8309431
  62.8660164 153.3895569  13.2792492  61.6251831 152.0733337  13.2160692
  62.2897491 152.7859039  11.3668852  61.4278412 151.9394836  10.6122141
  60.5657349 151.4957428  11.0878897  61.6120262 151.7278595   9.2641134
  60.9239044 151.1123199   8.7037601  62.7334900 152.2963715   8.6530886
  62.9506035 152.0547180   7.3544822  62.2682610 151.4502869   7.0533800
  63.5220718 153.2450409   9.3545256  64.3776321 153.6841431   8.8629875
  63.3707695 153.4632111  10.7356100  63.9599648 154.1773224  11.2917614
  60.3029251 154.0576324  14.4153881  61.1214523 154.1870422  15.3342972
  58.9580002 153.9729309  14.6561346  58.3397865 153.7153168  13.9001284
  58.2973328 153.8541260  15.9569311  58.7669868 154.6439056  16.5432644
  56.8254318 154.2929535  15.7194872  56.3460808 154.4875183  16.6788998
  56.7709084 155.1941528  15.1087809  56.0984230 153.2648621  15.0392857
  55.1848755 153.5569763  14.9980698  58.4349518 152.5575104  16.7291622
  58.3499260 152.6656952  17.9632607  58.8047142 151.4041290  16.1047726
  58.7388916 151.5030670  15.1017876  59.5674019 150.2828827  16.6118546
  60.1111221 150.6407013  17.4861774  58.5513649 149.2569275  17.1566010
  57.9610291 149.7705688  17.9153938  57.8666687 148.8438263  16.4158897
  59.1712303 148.0350189  17.7709274  59.9757614 147.2979584  17.2264347
  58.8135071 147.7366791  19.0110092  59.1050568 146.8399963  19.3730030
  58.0750084 148.2944489  19.4155140  60.5304718 149.7697144  15.5476570
  60.0156631 149.2023926  14.5494833  61.7900467 149.7949371  15.7358322
  62.1494064 150.2602539  16.5570698  62.7241783 149.4422760  14.6340084
  62.4523811 149.7928009  13.6383352  64.0164871 150.2472687  14.8627281
  63.7998238 151.3145294  14.8168516  64.5624008 149.9452667  16.1916084
  64.8410034 148.8935547  16.2578182  65.4572296 150.5466766  16.3519497
  63.8857346 150.2415924  16.9931221  65.1840591 149.9467773  13.8763628
  64.8640823 150.2400360  12.8765039  66.0782928 150.5180969  14.1254520
  65.3389282 148.8679810  13.8945618  62.8456230 147.9409027  14.6054697
  63.2536697 147.4656219  13.5826616  62.5268669 147.1880493  15.6763659
  62.0346107 147.5765533  16.4681034  62.6783104 145.7060394  15.5823822
  63.6210823 145.4934387  15.0783167  62.6215515 145.1363831  17.0033665
  63.2567825 145.6008453  17.7575912  61.5915108 145.3083191  17.3157120
  63.0234718 143.6729126  17.0630360  62.6688118 143.1884460  16.1533127
  64.0909119 143.6158447  17.2761307  62.3895874 143.0289917  18.2925320
  62.7183228 143.5325775  19.2016220  61.3209381 142.9630737  18.0882225
  62.9695091 141.6319733  18.4138336  63.8182716 141.5091248  18.9473209
  62.4869423 140.5038605  17.9617634  61.4101677 140.3362122  17.1945705
  60.9729156 141.1979523  16.9007797  61.0304947 139.4427032  16.9160175
  63.0314903 139.3486023  18.3423100  63.8069992 139.2649841  18.9839458
  62.7609749 138.4533691  17.9609127  61.5989685 145.1322784  14.6805649
  61.8455009 144.2291260  13.8582602  60.3997841 145.6808014  14.7972975
  60.2237549 146.2214203  15.6320705  59.2540283 145.2564392  14.0099840
  59.3442078 144.2205963  13.6828833  58.0072403 145.4707642  14.8840771
  58.2569504 146.4575958  15.2738323  57.0906448 145.5276489  14.2969484
  57.7998276 144.4876251  16.0681705  58.4347916 144.7678986  16.9086246
  56.7714272 144.5749512  16.4187012  58.1544685 143.0438080  15.7022800
  57.4011726 142.4039764  14.9978466  59.1808128 142.5348663  16.2485371
  59.0785561 146.0271606  12.6984453  58.2227402 145.6815948  11.8845701
  59.8819656 147.0779724  12.5222588  60.6110420 147.1590271  13.2165022
  59.8525352 148.0319824  11.3726311  60.4034958 148.9377136  11.6259737
  60.4983482 147.3638763  10.1160364  59.9570618 146.4644012   9.8226852
  60.4569359 148.0310822   9.2550993  61.8609467 146.7899323  10.2910719
  62.4400673 147.3892059  10.9936342  61.7781487 145.7759552  10.6823254
  62.7128983 146.7544403   9.0290546  63.5060043 146.0196381   9.1674595
  62.0908623 146.3269653   8.2426510  63.2692871 148.1471100   8.7464552
  62.7845306 148.9234314   9.1735907  64.4675674 148.3148041   8.2184315
  65.1565552 147.3940125   7.6496572  64.6253662 146.5504303   7.4874401
  65.8956299 147.6339417   7.0044432  65.0981598 149.4772491   8.3078384
  64.6543350 150.3063660   8.6762018  65.9346237 149.6510162   7.7691083
  58.4309692 148.5920258  11.2267179  57.8339233 148.6130829  10.1377716
  57.8635674 149.0496368  12.3299646  58.4532394 148.9282837  13.1409264
  56.7767754 150.0568848  12.4384670  56.0292969 149.8578949  11.6704950
  56.1049919 149.7894135  13.8333225  56.7896652 149.9343414  14.6689739
  55.2902489 150.5053101  13.9417830  55.5525589 148.3660736  13.9882441
  55.1537399 148.0819397  13.0144320  56.4021645 147.7249298  14.2231865
  54.5176048 148.1344910  15.0834818  54.5702324 148.7797394  16.1536102
  53.6541100 147.2166290  14.9908161  57.2886467 151.5041656  12.3384638
  58.2960320 151.8692780  12.9945030  56.5871201 152.2891693  11.5044804
  55.9038773 151.8383331  10.9128456  56.7819977 153.7855072  11.2956953
  56.9949112 154.2192688  12.2727375  57.9119072 153.9823303  10.2232189
  57.6000671 153.6456604   9.2345304  58.0623894 155.0554810  10.1057062
  58.8127098 153.5409698  10.6496639  55.4919853 154.3923340  10.6999998
  55.0045929 153.9338379   9.6442842  55.0227852 155.5132446  11.2650824
  55.5351753 155.8271179  12.0768967  53.9479332 156.1675873  10.6704454
  53.4025307 155.5937653   9.9211960  52.9482346 156.5371094  11.8087578
  53.5543938 157.1710815  12.4558611  52.0682259 157.0191803  11.3829737
  52.4706192 155.2988281  12.5360460  51.7618713 154.2872162  11.9883862
  51.4809799 153.3942108  12.9533091  50.9806480 152.4440155  12.8383980
  51.9196396 153.9221191  14.1269827  52.0264168 153.4340515  15.0047646
  52.5588837 155.1161499  13.8842125  52.9963608 155.8178558  14.5789204
  54.4168777 157.4781494   9.9547596  53.5909958 158.0916595   9.2793694
  55.6717682 157.9705658  10.0833712  56.3333054 157.5099487  10.6918945
  56.1475792 159.2668915   9.4955120  55.5511055 159.4170990   8.5956488
  55.9190941 160.3470154  10.5181437  56.5446739 160.1040802  11.3770561
  56.1983299 161.3197937  10.1133928  54.4783745 160.5213776  11.0178814
  53.6611099 161.4519653  10.3734398  54.0026054 161.9402924   9.4727125
  52.3867912 161.7502594  10.8446999  51.8330803 162.5132599  10.3177824
  51.8887482 161.1649475  12.0002327  50.8534889 161.2717285  12.2887478
  52.7106819 160.2693481  12.6738205  52.3729324 159.7976074  13.5847511
  53.9870262 159.9745789  12.1880550  54.6031189 159.2959442  12.7592773
  57.6154099 159.3186951   8.9994526  58.3897324 158.4101715   9.1505327
  57.9857903 160.5146637   8.4830751  57.2670746 161.2210846   8.4158554
  59.3335609 160.6950684   7.9980898  60.0441475 160.6062775   8.8198442
  59.4889412 159.9442139   7.2233810  59.6368217 162.0362091   7.3815336
  58.8832817 162.9306335   7.3861003  60.8135223 162.0329895   6.6995950
  61.3685532 161.1891785   6.7049031  61.3472595 163.1789551   5.8696213
  60.5285530 163.8685608   5.6640234  62.2677612 164.0686340   6.7337093
  62.9218063 163.3929749   7.2849007  63.0932846 165.0772858   5.9475822
  62.4334030 165.7003479   5.3438926  63.5477676 165.6885376   6.7272620
  63.8112411 164.5732880   5.3005652  61.5002632 164.8151550   7.7360768
  60.9440155 164.1714478   8.1808615  61.9688988 162.8074341   4.5358605
  62.5730438 161.7719727   4.4050879  61.7438889 163.6171570   3.4649916
  61.2039337 164.4697418   3.5057385  62.2805138 163.2911072   2.0754282
  62.3006744 162.2068329   1.9658062  61.3956108 163.8311768   0.9735386
  61.9297485 163.6729126   0.0366540  60.0347633 163.2784119   0.8563713
  59.3081360 163.8040314   1.4759113  59.7559967 163.2222748  -0.1958827
  60.0437927 162.2599640   1.2446774  61.1888733 165.2402496   1.2246264
  61.9913750 165.6612396   0.9078324  63.7008820 163.8449860   1.9639059
  63.9691315 165.0538788   1.7419287  64.6990051 162.9660492   1.8549722
  64.4199982 162.0111847   1.6803344  66.1112442 163.3304596   1.6029826
  66.4359283 164.1928711   2.1851702  67.0079880 162.2099304   2.1568449
  66.7696533 161.2677002   1.6634052  68.0489273 162.4781952   1.9763390
  66.8085251 162.0886688   3.2215545  66.3470078 163.5677490   0.0629293
  66.6640472 162.6246338  -0.6276030  66.4687653 164.8287964  -0.3778686
  66.4107971 165.6641083   0.1869080  67.0894623 165.0265656  -1.7137284
  66.7327042 164.2643890  -2.4064937  66.6818771 166.4271240  -2.2324660
  65.5996704 166.4487610  -2.3607173  66.9266510 167.1389313  -1.4440956
  67.2927094 166.8131714  -3.6240656  68.3388901 166.5147095  -3.6913636
  66.7603989 166.2282104  -4.3741074  67.2218933 168.3241119  -4.0365834
  66.4991074 169.1142731  -3.3357654  67.9903107 168.6889954  -4.9749923
  68.6269989 164.8432617  -1.6451415  69.3897171 165.4371948  -0.9225795
  69.1857910 164.0911407  -2.5601726  68.5620880 163.4740906  -3.0605097
  70.6551361 164.0111847  -2.8041074  71.1689987 163.9918518  -1.8430260
  71.0398483 162.7241058  -3.5550966  70.6062851 162.8096008  -4.5515032
  72.5866699 162.6976471  -3.7797973  73.0614243 162.8170471  -2.8059177
  72.9736786 161.8103485  -4.2808137  72.8795242 163.5799866  -4.3488603
  70.5685196 161.4148407  -2.8645535  71.2502975 161.1853790  -2.0456328
  69.5854416 161.6218262  -2.4416847  70.4884109 160.1383820  -3.7464676
  71.4419785 160.0117493  -4.2590919  70.3310089 159.2705994  -3.1059308
  69.5777664 160.3056030  -4.3216724  71.1366730 165.2279053  -3.5302804
  70.9192200 165.3759613  -4.7364159  71.9167709 166.0595703  -2.8213632
  72.0289459 165.9686127  -1.8217428  72.6047745 167.2273865  -3.4173634
  72.0555191 167.4858093  -4.3226981  72.5856171 168.5039215  -2.5479207
  72.7458954 169.3888855  -3.1637340  71.5625381 168.7908936  -2.3049290
  73.4429932 168.4153290  -1.3378716  74.7264252 168.9451904  -1.3353834
  75.1761551 169.1920929  -2.2857437  75.5879135 168.9665375  -0.1587738
  76.6126785 169.3074951  -0.1586575  75.0798035 168.5297241   1.0778599
  75.7762909 168.5234985   2.2559078  76.6117935 168.9901276   2.1798401
  73.7829056 167.9566498   1.0712264  73.3680115 167.5756378   1.9926879
  72.9786377 167.9503021  -0.0965555  71.9772491 167.5540466  -0.0152581
  74.0866318 166.9717102  -3.8744230  74.5416107 167.7140045  -4.7454743
  74.7942200 165.9362946  -3.3280323  74.3060684 165.3725281  -2.6468799
  76.1025085 165.5867462  -3.7364018  76.2403259 165.9820557  -4.7428079
  77.0974655 166.5238037  -3.0591266  76.9576187 166.4846649  -1.9788443
  78.0946350 166.1973419  -3.3543787  77.0696335 167.5800476  -3.3268697
  76.4003067 164.0830841  -3.7188175  75.8770905 163.3240509  -2.9213502
  77.2231979 163.6361237  -4.7225223  77.5606384 164.3484497  -5.3540354
  77.2703247 162.2158508  -5.0778832  77.1149826 161.6118927  -4.1838994
  76.1246872 161.9480286  -6.0767841  75.2273254 162.0577545  -5.4678555
  76.2143631 162.6640930  -6.8936729  76.0569534 160.5565643  -6.6853800
  75.1153030 159.6527710  -6.1141181  74.5451126 159.9188080  -5.2363362
  74.9034729 158.4646301  -6.8672857  74.1091614 157.8217163  -6.5178175
  75.6250458 158.1521301  -8.0548906  75.3395767 157.0574188  -8.7658577
  74.8935471 156.4008484  -8.2258816  76.6437073 158.9949799  -8.5130787
  77.2065811 158.7311554  -9.3962393  76.8603821 160.1983185  -7.8533735
  77.5384598 160.9236145  -8.2782993  78.6242218 161.7498779  -5.6602945
  79.3128204 162.5174408  -6.3127885  79.1076660 160.4845734  -5.4096189
  78.5186691 159.8758392  -4.8595152  80.3176956 159.8119507  -5.9568410
  80.4300919 160.1835785  -6.9753556  81.5308838 160.2049103  -5.0727901
  81.3955231 161.2594299  -4.8324494  81.5162506 159.6175537  -4.1547003
  82.8641891 159.9060974  -5.7628937  83.0592651 158.8488159  -5.9423151
  82.8938446 160.5555878  -6.6377559  84.0546188 160.2047119  -4.7953792
  83.8200912 161.0986786  -4.2175212  84.0360870 159.4383698  -4.0204687
  85.3706207 160.3900604  -5.3873477  85.4170609 160.9301300  -6.2395573
  86.5402679 160.1102600  -4.8561840  86.7014236 159.1687164  -3.9469688
  85.9011536 158.5789337  -3.7685652  87.6377411 158.9210052  -3.6605217
  87.6201782 160.6123810  -5.3235636  87.5931549 161.2039490  -6.1417384
  88.5170059 160.5450439  -4.8639159  80.2077484 158.2751312  -6.0440087
  79.7568207 157.6274719  -5.1194816  80.6417694 157.7151947  -7.1789188
  81.0633392 158.3570099  -7.8350129  80.7143326 156.2291260  -7.4069223
  80.2049026 155.6562042  -6.6321135  80.1835632 155.7874908  -8.7988634
  80.7219925 156.3586273  -9.5551643  80.4632568 154.7397766  -8.9092360
  78.6463699 155.8551483  -8.9749393  78.1591415 155.8233337  -8.0004148
  78.4622269 156.8630676  -9.3468027  78.1061096 154.7782288  -9.9928770
  77.5378036 153.7959137  -9.5033092  78.4134674 154.7613678 -11.2271156
  82.1648788 155.7606964  -7.3534784  83.0191116 156.4350586  -7.9441257
  82.4086151 154.5968018  -6.7785277  81.6905518 154.0482178  -6.3273792
  83.7443008 153.9593506  -6.8048272  84.2795639 154.3804016  -7.6558919
  84.5624619 154.3963318  -5.5774741  84.1110077 154.0243988  -4.6577139
  85.5158615 153.8682098  -5.5622149  84.8089294 155.9481506  -5.4289021
  85.3329926 156.3643494  -6.2892761  83.8780212 156.4906769  -5.2640309
  85.7327423 156.1955719  -4.2644463  86.8888321 155.7527466  -4.3636780
  85.2990494 156.8994598  -3.3221133  83.6626587 152.3840332  -6.9245272
  82.6560669 151.7440338  -6.6349626  84.8338699 151.8432159  -7.3674588
  85.5961075 152.4453430  -7.6441250  85.0275116 150.4009399  -7.4562120
  84.2138748 149.8809052  -6.9505663  84.7422867 150.0910492  -8.9489365
  83.7855911 150.5334473  -9.2266541  85.4557571 150.6266632  -9.5751810
  84.6772156 148.5643311  -9.1350727  85.4630814 148.0474701  -8.5842714
  83.7060928 148.2268829  -8.7728987  84.7975388 148.1448975 -10.6394815
  85.4192200 147.0859222 -10.9330053  84.2820740 148.9880981 -11.5481567
  84.2757111 148.7893829 -12.5383959  83.7535706 149.7704926 -11.1894693
  86.4245834 149.9623871  -6.8612633  87.5101166 150.1835327  -7.5044770
  86.3523712 149.1949768  -5.7670636  85.4512634 148.8245850  -5.5008006
  87.4880981 148.6622620  -5.0335274  88.2819138 148.3288727  -5.7019620
  88.1299591 149.7136688  -4.0733819  87.3405991 150.1823578  -3.4857345
  88.7813950 149.2582397  -3.3275142  89.0934525 150.7125244  -4.6874413
  89.8295517 150.1214752  -5.2323470  88.5969391 151.3921204  -5.3800673
  89.8315582 151.6165314  -3.6859274  89.2909088 152.4068298  -2.8239470
  91.0980530 151.6394806  -3.8365335  87.1377792 147.4151001  -4.2182899
  85.9873581 147.1740875  -3.9027836  88.1144791 146.5405579  -3.9300158
  89.0730362 146.7446899  -4.1741333  87.8908310 145.2145844  -3.2441759
  88.8560715 144.7097778  -3.2839558  87.5429306 145.3281860  -1.7291313
  86.5598984 145.7916565  -1.6457835  87.4606552 144.3008728  -1.3742409
  88.5057297 146.1442566  -0.8847598  89.6263351 145.5503387  -0.2854890
  89.7895889 144.5117645  -0.5326884  90.4723740 146.3215332   0.5198998
  91.2709122 145.8484955   1.0721542  90.1766891 147.7176514   0.7468532
  90.9876480 148.4639282   1.5629503  91.6433792 148.0023651   2.0907555
  89.0121460 148.2698975   0.1324723  88.7192917 149.2823486   0.3682651
  88.2299423 147.5033722  -0.7840788  87.3503036 147.9160461  -1.2556090
  86.9237213 144.3798065  -4.0254250  86.2625275 143.4667969  -3.5260587
  86.8587189 144.6405640  -5.3430057  87.5419312 145.3161316  -5.6543207
  86.1638260 143.7308655  -6.2335248  86.4854355 143.8831940  -7.2637982
  86.3579483 142.7097168  -5.9053636  84.6479263 143.9152222  -6.2784820
  83.9656677 142.8951416  -6.4092131  84.1336136 145.0878296  -5.8649578
  84.7871323 145.8212738  -5.6302934  82.6912689 145.4067841  -5.6839180
  82.1441727 144.6459198  -6.2405801  82.1354980 145.3306885  -4.2105184
  81.0643921 145.5231628  -4.2720990  82.2401962 143.9340057  -3.6021852
  83.1632080 143.4509888  -3.9228628  82.1764755 143.7943268  -2.5230515
  81.4263229 143.3450165  -4.0250602  82.8310776 146.3083649  -3.2523561
  83.7830429 145.8846436  -2.9324694  82.9533997 147.2531738  -3.7819626
  81.9651566 146.7081451  -2.0595000  81.8025360 145.9154358  -1.3292420
  82.4358063 147.5478973  -1.5482138  80.9972000 147.0832520  -2.3918591
  82.3628540 146.8431549  -6.2092848  83.2344513 147.6954956  -6.0670805
  81.1255875 147.0612793  -6.6327424  80.4565430 146.3061676  -6.6806273
  80.5770416 148.3880310  -6.8176074  81.3651810 148.9306183  -7.3396726
  79.4154510 148.3361664  -7.8129425  78.6472168 147.7342987  -7.3274760
  79.0191803 149.3474884  -7.9039989  79.8040161 147.6799469  -9.1635094
  80.6957550 148.1938782  -9.5223742  80.1334152 146.6562500  -8.9856272
  78.6746674 147.7086639 -10.1295366  77.6673355 148.3737793  -9.9218521
  78.8907852 147.2177277 -11.2305021  80.1831970 149.0966339  -5.5212269
  79.6472931 148.4295044  -4.5990090  80.3558197 150.4334717  -5.4191346
  80.8750381 150.9099426  -6.1426616  80.0688858 151.2210388  -4.1543236
  79.1172638 150.7620392  -3.8862941  81.2097549 150.9628754  -3.0985029
  81.2261963 149.8827057  -2.9534516  82.5817108 151.5321045  -3.4567738
  82.6612320 152.5145874  -3.9220614  83.2294693 151.4613953  -2.5829852
  83.0251007 150.8539276  -4.1858621  80.8713074 151.6519165  -2.0172985
  81.5421600 151.6155853  -1.3315556  79.7070389 152.6624756  -4.4448533
  80.1614609 153.2599182  -5.3879170  78.9266281 153.3081970  -3.5188673
  78.7113953 152.8434448  -2.6483586  78.5438614 154.7344055  -3.7224829
  79.3969269 155.1711578  -4.2417493  77.3022308 154.8089142  -4.6526875
  77.3474655 154.1994324  -5.5552278  76.0883560 154.2425842  -3.9744699
  75.7879028 154.7942352  -3.0836787  75.2904739 154.3334198  -4.7115130
  76.2071762 153.1691437  -3.8270860  76.9338074 156.2078400  -5.1831088
  77.7331161 156.3736725  -5.9053993  75.9458389 156.2373047  -5.6426144
  76.8784561 156.9242859  -4.3635135  78.3714294 155.5331421  -2.4534125
  77.6785355 155.1572876  -1.4849069  79.0107956 156.7068481  -2.4377725
  79.4708862 157.0030212  -3.2867122  79.0292740 157.7795563  -1.3755460
  78.6407242 157.3281708  -0.4626495  80.4448929 158.1756897  -1.1843308
  80.8868637 158.6554718  -2.0575817  80.5506897 158.8765106  -0.3562246
  81.2627487 156.9640961  -0.8053022  80.8360748 156.5748596   0.1191148
  81.2464981 156.1887360  -1.5712326  82.7312012 157.3310394  -0.4821224
  83.1823196 157.9278717  -1.2748265  82.7470932 158.0198669   0.3624789
  83.6923523 156.1765442  -0.1272226  83.6690903 155.8214874   0.9030647
  83.3999786 155.2972107  -0.7011376  85.1146317 156.4801941  -0.5200925
  85.5051117 157.2891998  -0.0584248  85.6074677 155.6428833  -0.2442217
  85.1949768 156.5368958  -1.5252948  78.1055984 158.9237823  -1.7205497
  78.2364120 159.4740448  -2.8415728  77.2061234 159.2457733  -0.8008085
  77.1332321 158.8239288   0.1139803  76.1890259 160.3120728  -1.1067530
  76.6057434 160.9037476  -1.9218435  74.8430023 159.7568970  -1.6026574
  74.4100723 160.6124725  -2.1210032  75.0306473 158.6284485  -2.5917990
  75.4725418 157.7306519  -2.1596050  74.1388168 158.3282166  -3.1418869
  75.7161026 159.0470123  -3.3287163  73.7865677 159.2669830  -0.5624480
  73.7162933 159.9799347   0.2590496  72.8342209 159.1737366  -1.0843979
  74.2329254 158.3663330  -0.1409040  75.9387054 161.2602692   0.0433782
  75.8685379 160.8677368   1.2131565  75.7580338 162.5644684  -0.2365187
  75.7385712 162.8320160  -1.2102443  75.3444214 163.5592041   0.7345508
  75.3783646 163.1211853   1.7320938  76.3969421 164.6611023   0.8219903
  76.3785629 165.0043945  -0.2123766  75.9777527 165.4745178   1.4142288
  77.7379684 164.2153015   1.4573703  77.6067429 164.1299133   2.5360682
  77.8882294 163.2216949   1.0351461  78.8885727 165.1483002   1.0988427
  79.7291412 164.8066406   1.7028393  79.1357193 165.0412140   0.0426467
  78.6760025 166.6311798   1.2963928  77.7948837 167.0156555   0.7826678
  78.5625610 166.8149414   2.3647852  79.9179077 167.4172668   0.9471255
  80.1577072 167.0955200   0.0202628  79.8652420 168.4182739   0.8233697
  80.7074203 167.3235474   1.5700129  73.9610825 164.1265717   0.3739598
  73.7826462 164.6948242  -0.7017853  72.9135513 163.8897400   1.1568708
  73.1748810 163.4908142   2.0471859  71.5693436 164.3949280   0.9776327
  71.4762421 164.9573059   0.0485701  70.6483688 163.1266479   0.9421527
  70.7602386 162.5386353   1.8531002  69.6345215 163.4883270   0.7706857
  70.9485321 162.4954834   0.1057210  71.1777725 165.3302765   2.0946836
  71.7578430 165.3743134   3.1859789  70.0729141 166.0508881   1.9287744
  69.5221100 165.9510498   1.0880873  69.5318146 167.0025787   2.9512539
  70.0014954 166.8691406   3.9257812  70.1087799 168.3544617   2.5438905
  71.1666336 168.2827759   2.2911053  69.2747803 168.8448334   1.4080601
  68.2370148 169.0209961   1.6911057  69.6736832 169.7847137   1.0264840
  69.2634735 168.1971283   0.5314487  70.0007477 169.3792725   3.7055717
  68.9213333 169.5300598   3.7201054  70.2510910 168.9173584   4.6605935
  70.8994904 170.6663208   3.5339062  70.5329666 171.3689117   2.7854879
  70.8867569 171.1568298   4.5072217  71.9401932 170.4183502   3.3252223
  68.0072784 166.8241272   2.9659679  67.4317627 166.3208618   2.0202978
  67.3464279 167.1387329   4.1193309  67.8946533 167.4685516   4.9008441
  65.8248444 166.9036102   4.1635933  65.6499023 166.0091248   3.5657732
  65.6550522 166.7568359   5.2302370  64.9238129 168.0641785   3.6962273
  65.0071716 169.1619415   4.2554655  64.1256866 167.8932190   2.6020737
  64.2784348 167.0131836   2.1305668  63.2318840 168.9290619   2.0598850
  63.6596451 169.9177551   2.2260423  63.0128136 168.6614380   0.5497545
  62.7762184 167.6008301   0.4646263  62.2243652 169.2534180   0.0849784
  64.2417908 168.8642731  -0.3277335  65.1163635 168.4455414   0.1701525
  64.1301041 168.3174133  -1.2639996  64.5839386 170.3482971  -0.6813571
  65.0319519 170.4264679  -1.6719517  63.6349564 170.8753967  -0.7798086
  65.5109482 171.0049133   0.3264259  65.0707779 171.4094849   1.1404748
  66.8020096 171.3204956   0.2237723  67.5205307 170.7390900  -0.7200967
  67.0416718 169.9929199  -1.2038785  68.4967041 170.9184265  -0.9072497
  67.3396759 172.1695404   1.0746400  66.8563080 172.6214905   1.8376557
  68.2150803 172.6228790   0.8549508  61.8719597 169.1072083   2.7450631
  61.4156837 170.1921234   3.1180964  61.1993752 167.9662018   2.9158671
  61.6045227 167.1261139   2.5282993  59.7215538 167.8899536   3.3411510
  59.4394150 168.8406525   3.7935579  58.8405571 167.6248932   2.0806286
  58.9970322 166.5797729   1.8135151  57.8488960 167.8718872   2.4596963
  59.0005302 168.5196991   0.8962128  58.4343376 169.4281769   1.1016614
  60.0492249 168.8102875   0.8337724  58.6927338 167.8080902  -0.4362015
  58.1411285 168.4657898  -1.3299093  59.0141983 166.5782928  -0.6399395
  58.7454262 166.1258545  -1.5020101  59.6379128 166.1307983   0.0164370
  59.5442543 166.8295288   4.4632344  60.1357689 165.7309723   4.3910451
  58.6444016 167.0912476   5.4671931  58.0895119 167.9346008   5.4980612
  58.1283684 165.9807587   6.2810817  58.9632301 165.3828278   6.6465721
  57.4906387 166.5986633   7.5195022  56.7100143 167.3390656   7.3448009
  57.0121956 165.7809143   8.0584574  58.4391747 167.2556152   8.5183544
  59.1570587 166.4804382   8.7864122  58.9203491 168.0929565   8.0129557
  57.6864662 167.5927582   9.7969160  57.1492386 166.7901611  10.3022099
  58.4466782 167.8614197  10.5304031  56.8729820 168.8892822   9.6554346
  57.2807961 169.5780182   9.0394650  55.6913757 169.1057281  10.2212496
  55.1003609 168.1895905  10.9118986  55.4847908 167.2587128  10.9877892
  54.1713333 168.3680573  11.2656794  55.1841354 170.3149719  10.1053162
  55.7774124 171.0647430   9.7797718  54.2473488 170.5184174  10.4233484
  57.0837593 165.0996552   5.4291015  56.4276505 165.6658783   4.5174732
  56.7925644 163.8462677   5.8047261  57.3658600 163.4105530   6.5129580
  55.5910988 163.1254883   5.3343768  54.8688507 163.8395691   4.9387236
  55.9858246 162.2665710   4.0890694  55.0692558 161.8294067   3.6929727
  56.3494568 162.9403381   3.3132391  57.0551910 161.1999664   4.3128781
  56.7215042 160.0081177   4.8830762  55.7068672 159.8219299   5.2028389
  57.6566887 158.9599762   4.9925590  57.3417397 158.0214691   5.4243093
  58.9687347 159.1894226   4.6750689  59.6579208 158.3701477   4.8172812
  59.3251724 160.3793945   4.0234532  60.3438568 160.5046234   3.6873035
  58.4012680 161.3996124   3.8706486  58.6705475 162.3216400   3.3769376
  54.8765869 162.2245636   6.4426398  55.5232773 161.7836456   7.3940306
  53.5194206 161.9503632   6.2573414  53.0802536 162.5389557   5.5639529
  52.7174301 160.8237305   6.7651505  53.0362854 160.5360870   7.7669954
  51.2091446 161.2937012   6.9252472  51.1671333 162.2023010   7.5259018
  50.8035011 161.5202484   5.9392319  50.2896194 160.3194733   7.6787295
  50.3152466 159.3701477   7.1437073  50.6923485 160.1413422   8.6758184
  48.8657341 160.8275299   7.8258777  48.5787010 161.2852325   6.8791876
  48.2546234 159.9412994   7.9968829  48.6926346 161.7418365   8.9611998
  49.0973282 161.2211304   9.8290634  49.3395424 162.6140289   8.8668594
  47.2844162 162.1913910   9.1687536  46.6719208 161.3902435   9.2245436
  47.1545563 162.8589478   9.9154892  46.9215660 162.6828003   8.3644161
  52.8597641 159.5850830   5.8850951  52.9015350 159.7084503   4.6676860
  52.8432693 158.3556366   6.4971104  52.7983704 158.4142456   7.5044088
  52.8093796 157.0061340   5.8921766  53.3176880 157.1001282   4.9325447
  53.5508461 155.9047394   6.6906343  53.1322212 155.8857117   7.6968603
  53.4708252 154.5327911   6.0577116  53.6458435 154.5732117   4.9826088
  54.1211815 153.8492126   6.6034813  52.4618340 154.1492004   6.2090402
  55.0524750 156.2327881   6.7153511  55.1888008 157.3028564   6.8718047
  55.5227814 155.6433868   7.5024366  55.4905663 155.9984436   5.7451677
  51.4234428 156.5742035   5.6390524  50.5801849 156.6179504   6.5350637
  51.1886292 156.0115814   4.4277954  51.8952942 156.1063690   3.7124324
  49.9432831 155.3490753   3.9517703  49.2341003 155.4820557   4.7687607
  49.4771729 156.0636139   2.6954045  50.1142349 155.7834930   1.8564900
  48.4872398 155.6301880   2.5530007  49.2302399 157.6046906   2.6972299
  50.1594772 158.1049347   2.9699354  48.7627869 158.2366791   1.4305291
  47.7409630 157.9371338   1.1976203  48.8328247 159.3232727   1.4805167
  49.4754448 158.0144196   0.6362765  48.1667900 157.9958954   3.7117031
  48.4460030 157.6504211   4.7070866  48.0363350 159.0774536   3.6754527
  47.2582054 157.5573425   3.2990906  50.0321121 153.8300171   3.7890632
  49.1076241 153.0830994   4.1850748  51.1345100 153.4142609   3.1634853
  51.7941551 154.0625000   2.7575970  51.4675865 151.9980774   3.0051062
  51.1663933 151.4825897   3.9170535  50.6495781 151.5075531   1.7798983
  49.5933266 151.6564178   2.0041127  50.9164734 152.1885529   0.9717482
  50.7811203 150.0377655   1.2541662  51.7953453 149.9887543   0.8578700
  50.7148399 149.3271484   2.0780139  49.7401009 149.6721344   0.1366202
  49.3984985 150.5034332  -0.7231813  49.4397087 148.4769592  -0.0335032
  52.9539757 151.7708740   2.7726328  53.5520973 152.6121216   2.1340759
  53.4635315 150.5689087   3.2080820  52.8683777 149.8913269   3.6628182
  54.8165894 150.1933746   2.8032343  55.3061066 150.9825134   2.2324998
  55.8190727 150.0395966   3.9993160  55.5581169 149.2643127   4.7196951
  57.2122383 149.7277069   3.4717376  57.6141052 150.5893707   2.9386933
  57.9012451 149.5932312   4.3055778  57.2183914 148.9049072   2.7568412
  55.9620628 151.3530121   4.7603912  56.4065514 152.0792694   4.0798969
  54.9344215 151.6159363   5.0112481  56.8080139 151.2988281   6.0742354
  57.8666496 151.2737274   5.8158545  56.6022644 152.1902466   6.6668062
  56.5908356 150.5362854   6.8222098  54.7279320 148.9468384   1.9398688
  54.1599541 147.9473114   2.4104826  55.3584938 148.8608551   0.7504863
  55.7313995 149.7042694   0.3385401  55.5212784 147.6498718  -0.0361899
  54.9314957 146.8024750   0.3133404  54.9383163 147.8941803  -1.4781802
  53.8531456 147.9474945  -1.3906306  55.2952652 148.8661804  -1.8186089
  55.2158928 146.8136749  -2.5388751  56.2640572 146.7463074  -2.8302760
  54.9608727 145.8410797  -2.1180115  54.3721428 147.0689545  -3.7992852
  53.3205070 147.1453552  -3.5229981  54.8287392 147.9725952  -4.2030754
  54.5663376 145.8948975  -4.7729282  54.9274559 145.0479889  -4.3576918
  54.4755211 145.9215851  -6.0596147  54.2258339 147.0354919  -6.6092958
  53.9885712 147.8462372  -6.0556850  54.0268288 146.9998169  -7.5988531
  54.8068123 144.8272095  -6.7320108  55.1986809 144.0379181  -6.2384839
  54.7556534 144.9327240  -7.7351804  57.0171165 147.2222443   0.0500383
  57.8630257 148.1298065   0.1613663  57.3740845 145.9544678  -0.0884619
  56.6550674 145.2812195  -0.3117327  58.7736893 145.4513245  -0.2646719
  59.4536057 146.3031616  -0.2510515  59.1446609 144.4573364   0.8228213
  58.4358025 143.6318207   0.8871396  60.5796204 143.8312988   0.5077804
  61.3067894 144.6407471   0.4436152  60.7720375 143.1918335   1.3692600
  60.4428673 143.2709198  -0.4170854  59.1954193 145.1618500   2.0975001
  58.2977982 145.3592529   2.3748274  58.8467941 144.7975159  -1.6621858
  58.0227737 143.9718018  -2.1096528  59.8505592 145.1965790  -2.4534385
  60.4972534 145.8566132  -2.0457234  60.2402916 144.5395355  -3.7006352
  59.4619942 144.0479889  -4.2843633  60.8285179 145.6029053  -4.6819911
  61.5321732 146.2499237  -4.1582289  61.3992081 145.0371094  -5.4183927
  59.6829567 146.3573608  -5.4844079  59.0945740 145.6285095  -6.0418005
  59.0765953 146.9110718  -4.7675905  60.1154785 147.4187927  -6.4340620
  60.6320229 148.4657288  -6.0656967  59.7153397 147.4400940  -7.6783595
  59.9842300 148.2955170  -8.1431665  59.1527596 146.7323303  -8.1285648
  61.2196083 143.3435974  -3.4573288  62.0515060 143.4319153  -2.5482583
  61.1733055 142.3373413  -4.3317800  60.5474319 142.4766235  -5.1121569
  61.8632889 141.0407562  -4.3002758  61.6403999 140.6274872  -3.3165922
  61.3080177 140.1994629  -5.3696823  61.4925499 140.5637970  -6.3802772
  61.8091431 139.2361908  -5.2742968  59.9780922 139.8688812  -5.0325794
  59.5980110 139.3894806  -5.7723913  63.3612022 141.2632294  -4.4761963
  64.1485367 140.4791260  -4.0000362  63.8841476 142.3184357  -5.0103354
  63.3127556 143.0156555  -5.4658570  65.3378601 142.6782379  -4.8468451
  65.9125443 141.7724457  -5.0401988  65.7641678 143.6378174  -5.9134040
  66.8535690 143.6215515  -5.9456444  65.4294968 143.2698059  -6.8832889
  65.3525009 145.0888824  -5.7832046  64.5252457 145.4267731  -4.8827577
  65.8910828 145.9765015  -6.5394883  65.7209167 143.2385559  -3.4130352
  66.9010010 143.4978943  -3.1055338  64.7828522 143.2803650  -2.4663780
  63.8417892 143.0611115  -2.7603722  64.9940186 143.5537872  -1.0385174
  64.1201477 143.1320038  -0.5419759  65.9461060 143.1785278  -0.6632738
  64.8964157 145.0656738  -0.6098161  64.8466339 145.2214508   0.5868095
  64.7829514 146.0759735  -1.5294420  64.7436829 145.7705994  -2.4913676
  64.4667358 147.4857788  -1.1701086  64.9930267 147.5699768  -0.2193062
  65.0594406 148.5443268  -2.1626036  65.0069962 149.5031891  -1.6469156
  66.5203476 148.3055725  -2.4394391  66.6034698 147.5343018  -3.2051675
  67.1132965 149.1487427  -2.7938008  66.9898300 147.8560333  -1.5644479
  64.2623520 148.7068787  -3.5751228  64.9190369 148.7342072  -4.4446707
  63.6924706 147.7784576  -3.6121089  63.3039780 149.8693695  -3.6026480
  63.8128014 150.8130493  -3.4060078  62.7987747 149.8743134  -4.5684891
  62.6029701 149.6865387  -2.7882397  62.8978958 147.7677917  -0.9538667
  62.0329857 147.1224518  -1.5906029  62.5294151 148.7076263  -0.0718649
  63.3025093 149.1859894   0.3681413  61.1949692 149.0590973   0.2741054
  60.5173416 148.2671509  -0.0448911  61.1074677 149.3104248   1.8246944
  61.7971992 150.1139221   2.0830667  60.1057205 149.6670837   2.0642550
  61.4801826 147.9650726   2.5305853  61.0852966 147.1227112   1.9626138
  62.5626297 147.8374786   2.5191038  61.0035973 147.9225311   4.0151567
  61.2976570 148.8028259   4.8470087  60.1739388 146.8962708   4.2746801
  59.8073616 146.7058105   5.1963401  59.8902855 146.2578735   3.5452361
  60.7237587 150.2766266  -0.4986616  61.5499382 151.1154785  -0.8726037
  59.4164352 150.3896179  -0.6845568  58.8690033 149.5724945  -0.4549355
  58.7848854 151.4996490  -1.3743607  59.4494476 152.3513947  -1.5192616
  58.3555756 151.0389099  -2.7977176  57.6823006 150.1820526  -2.7733159
  57.6954231 151.8362274  -3.1391737  59.5446281 150.7383728  -3.7552023
  60.4521294 150.5337677  -3.1871581  59.4172745 149.8254700  -4.3370075
  59.8558235 151.8579712  -4.7712660  59.5087776 153.0016785  -4.6509352
  60.4624329 151.4788055  -5.8650718  60.7087784 152.1966705  -6.5314727
  60.7420921 150.5084534  -5.8824253  57.5718231 151.9215546  -0.4757889
  56.9114990 151.0804443   0.1485156  57.1897659 153.2367859  -0.4949574
  57.6882095 153.9365692  -1.0259635  56.1488075 153.7108612   0.4818758
  55.5331459 152.9029388   0.8772547  56.8722839 154.3730164   1.6885965
  57.2784042 155.3040161   1.2931229  56.2377586 154.6123810   2.5419323
  57.6490402 153.7131195   2.0749943  55.1896477 154.7429047  -0.2529072
  55.6441765 155.8405304  -0.6017158  53.8563385 154.5335846  -0.1420289
  53.5098839 153.7345886   0.3695267  52.9040070 155.6177368  -0.5137370
  53.2780533 156.0898895  -1.4221787  51.5311966 155.1199951  -0.9198632
  51.2911339 154.2933655  -0.2511643  50.8151398 155.9133453  -0.7054734
  51.5147133 154.7435608  -2.4073865  51.8672867 155.5975952  -2.9856858
  52.1290283 153.8638306  -2.5992095  50.0765762 154.4841309  -2.9204643
  49.5769577 153.7588348  -2.2782543  49.5014496 155.4071198  -2.8468049
  50.0860977 154.1442261  -4.4210529  49.2220154 154.5856934  -4.9176092
  50.9610748 154.6486206  -4.8310447  49.9860535 152.6798859  -4.7971401
  49.0186005 152.4551086  -4.6138053  50.0330086 152.5297546  -5.7948165
  50.6052666 152.0650330  -4.2885828  52.7744942 156.6087952   0.6711649
  52.6841507 156.1732025   1.8517069  52.8725624 157.9021606   0.3837854
  52.9516525 158.2006378  -0.5778575  52.9842148 158.8775482   1.4779845
  52.5723648 158.3862305   2.3595045  54.4318314 159.3050232   1.6805543
  54.4060326 160.0462341   2.4793322  55.3146439 158.1785889   2.2368836
  55.3236847 157.3625793   1.5142869  56.3350830 158.5434418   2.3538878
  54.9420013 157.7997589   3.1885829  55.0566406 159.9386292   0.4209642
  54.4849663 160.8048248   0.0878261  56.0651436 160.2888336   0.6409147
  55.2929077 159.2435608  -0.3847371  52.0849953 160.0799408   1.0385430
  51.4629974 160.1954041  -0.0333432  52.0735512 161.0633392   1.9087949
  52.4811630 160.7939453   2.7927513  51.5598984 162.4415588   1.6993555
  51.4406662 162.6302490   0.6324537  50.0836220 162.4379883   2.2269566
  49.5489006 161.6059723   1.7687657  50.0948868 162.3240814   3.3109305
  49.3863792 163.8051147   1.9239136  49.9254570 164.6015472   2.4369411
  49.3950768 163.9801788   0.8480947  48.0063515 163.8646698   2.4563487
  47.1746483 162.9519043   2.2809618  47.5649681 164.8832703   3.1616764
  46.5936623 164.8173981   3.4306235  48.1486244 165.6873932   3.3428853
  52.4534607 163.4575653   2.4608564  52.6756134 163.3215332   3.6487188
  52.9644928 164.4488220   1.7281383  52.6520271 164.5050201   0.7693343
  53.8114128 165.5094604   2.2188919  54.6798248 165.1254272   2.7541239
  54.4299850 166.3655243   1.1056978  53.6116409 166.4865875   0.3959388
  54.7685051 167.8652344   1.4372530  55.6548309 167.9086914   2.0702112
  54.8948097 168.4767456   0.5438274  53.9524040 168.4046631   1.9179773
  55.6623878 165.6928406   0.4460214  56.0829315 166.2967987  -0.3580213
  56.3727074 165.6245575   1.2699642  55.5078964 164.2961578  -0.0806919
  54.8136787 164.1887512  -0.9141310  56.4524841 163.9013672  -0.4548655
  55.2723923 163.6068726   0.7301965  53.0559769 166.3889771   3.1606281
  52.0082970 166.9797363   2.7879925  53.5725517 166.5078125   4.4026327
  54.4573555 166.0650482   4.6055980  53.1408272 167.4636383   5.3909793
  52.0580940 167.5802002   5.4379096  53.5959244 166.9831085   6.7872500
  54.6731033 166.8778381   6.6579986  53.5457954 167.8551025   7.4393258
  52.9715614 165.7259827   7.3400679  53.1097527 164.8997803   6.6426377
  53.5494461 165.2269897   8.6997547  53.1815338 165.8384552   9.5236940
  53.2909203 164.1772919   8.8389416  54.6379280 165.2743530   8.6670933
  51.4120445 165.8050842   7.6407166  50.8964539 165.8658295   6.6822925
  51.0537109 164.9445038   8.2056065  51.2400284 166.7251740   8.1992512
  53.7094803 168.8712921   5.1312537  54.8479385 169.0312195   4.7662210
  52.9108315 169.9221039   5.1660933  51.4783707 169.8208923   5.4659810
  51.3028336 169.3810425   6.4477224  50.9719543 169.3479462   4.6245728
  51.0842590 171.2922211   5.6007748  51.2230072 171.7303009   6.5891809
  50.0713310 171.4954834   5.2532516  52.0697975 172.0104065   4.7519860
  52.0144043 173.0639038   5.0261140  51.8795433 171.8918610   3.6852818
  53.3978996 171.2825470   5.0114741  54.1114044 171.3607178   4.1911716
  53.8580627 171.8077698   6.3728456  53.6167183 171.1926880   7.3975163
  54.3337860 173.0597992   6.3710737  54.7269936 173.4683533   5.5352669
  54.3145180 173.9511719   7.5006814  54.3626747 173.2684937   8.3490477
  55.5615196 174.8731842   7.3813076  55.6940651 175.3427582   6.4066110
  55.5100479 175.6440887   8.1501732  56.8462601 174.0151672   7.5648503
  56.7870865 173.1317139   6.9291406  57.6962318 174.6377869   7.2855897
  56.9828644 173.6043701   9.0365248  57.6047249 174.3779449   9.7930298
  56.5145798 172.4758759   9.4243584  53.0103951 174.7799530   7.6182809
  52.5094109 175.3585205   6.6525369  52.4583321 174.8296051   8.8134336
  52.7720528 174.2901764   9.6075926  51.3650093 175.7868500   9.1388073
  50.7092667 175.8523560   8.2705755  50.3763237 175.1732635  10.1357794
  50.8725471 175.0762482  11.1014090  49.5975037 175.9220428  10.2802477
  49.7463379 173.8950195   9.6335363  49.3430901 174.0807953   8.6380548
  50.5394669 173.1493683   9.5784035  48.7298126 173.2949829  10.6354322
  48.5662575 172.2561493  10.3487539  49.0224457 173.3499756  11.6839743
  47.4714241 174.0432587  10.5189581  47.3216896 174.4657135   9.6138563
  46.4069405 173.9901886  11.3596907  46.3395538 173.4077759  12.5053082
  47.1848412 172.9852753  12.8617907  45.4841881 173.4046478  13.0423851
  45.2970200 174.6191711  11.0443239  45.3719711 175.1039734  10.1614609
  44.4452209 174.4798737  11.5688553  51.7868118 177.1891937   9.4817686
  51.9158134 177.5664520  10.6534309  51.9026527 178.0023346   8.4546423
  51.8694687 177.6189423   7.5208240  52.3740044 179.3688507   8.5886564
  53.2590332 179.3470764   9.2245407  52.8982811 179.9541168   7.2467933
  52.0792351 180.0791321   6.5385351  53.5680351 181.3346252   7.4660892
  54.3666344 181.2215118   8.1992702  53.9826088 181.6793671   6.5187826
  52.8907356 182.0255585   7.9680648  53.9686394 179.0163574   6.5826936
  53.5144615 178.0602722   6.3224874  54.2597809 179.5474548   5.6764479
  54.8517494 178.8657227   7.2036033  51.2569885 180.1748810   9.2462931
  50.2028694 180.3907013   8.6586475  51.4182968 180.5907440  10.5359707
  52.2590790 180.3229828  11.0273952  50.4886360 181.4713287  11.2015705
  49.5543404 181.3979492  10.6449690  50.2146187 181.0144348  12.6025124
  51.0256004 181.2409515  13.2946815  49.3835983 181.5906372  13.0093174
  49.8933182 179.5556183  12.8113823  50.7549896 178.9203339  12.6063414
  49.4812889 179.3274078  14.2609367  48.4774361 179.6757965  14.5038309
  49.5858994 178.2593842  14.4520159  50.1436996 179.8581543  14.9447622
  48.6884460 179.0982208  11.9878950  48.9891357 179.0240021  10.9428215
  48.4486923 178.1120911  12.3856058  47.9362717 179.8681335  12.1598387
  51.0156937 182.9402618  11.0244808  52.1044388 183.2420959  11.4902163
  50.1536369 183.8314667  10.4512815  49.0040855 183.4612122   9.6723042
  48.3434830 182.8376007  10.2746439  49.2940865 183.0615997   8.7005501
  48.2746086 184.7678223   9.4940710  47.4907761 184.8872223  10.2420359
  47.8385963 184.8542633   8.4988222  49.3882675 185.8152924   9.5542088
  48.9839859 186.7788391   9.8644447  49.8560104 185.9851532   8.5844326
  50.4303894 185.2113342  10.5003548  51.4373550 185.4484558  10.1569967
  50.2337532 185.7841492  11.9203596  49.6594429 185.0731964  12.7997389
  50.7023773 187.0336609  12.1521587  50.9122581 187.6426392  11.3742199
  50.7491226 187.7372589  13.4470043  51.5920792 187.3703156  14.0325613
  51.0261383 189.2509766  13.1467791  52.0623817 189.4735565  12.8923006
  50.4944267 189.6678162  12.2914248  50.6650238 190.0737152  14.2504864
  51.0313644 190.9558868  14.1547766  49.4647827 187.4876251  14.3239851
  48.3389359 187.6810150  13.9119921  49.6460953 187.2340393  15.6459846
  50.5638657 187.3641510  16.0470695  48.4865532 187.1723633  16.5205097
  47.9099960 186.2711792  16.3117714  48.8434448 187.0470734  17.9961452
  47.9392929 186.8547211  18.5737305  49.7563210 185.8435364  18.3707657
  50.8010025 185.9959106  18.0995998  49.7636032 185.6231384  19.4382267
  49.4381104 184.9698181  17.8020248  49.6391792 188.1782837  18.4151268
  49.5666924 188.3171997  19.3622532  47.5374489 188.4081573  16.5379295
  46.3642769 188.2116699  16.7259712  48.0925865 189.5547638  16.2463055
  49.0662994 189.5437469  15.9782333  47.4045410 190.8132782  16.2984734
  46.5356407 190.7807159  16.9557858  48.3465538 191.9898071  16.8480511
  49.1795807 192.0702209  16.1496964  47.7557755 192.8992462  16.7385349
  48.9488602 191.7907257  18.2144661  49.2542458 190.7476196  18.2967472
  49.7817955 192.4861298  18.3180389  47.8413391 192.1237335  19.6486397
  47.1063461 190.5739746  20.0002384  47.8274994 189.8287506  20.3359184
  46.3729134 190.7732544  20.7815628  46.5149040 190.2277679  19.1526394
  46.8778114 191.1818237  14.9272690  45.8442307 191.8227539  14.8946629
  47.3194199 190.6048889  13.7637062  48.0934982 189.9609680  13.8429461
  46.8279343 190.9845428  12.3787575  47.1723633 192.0104828  12.2487268
  47.5899696 190.2145233  11.2775736  47.3565025 190.7550049  10.3602571
  48.6568794 190.3433533  11.4597960  47.1902924 188.8237457  11.0898952
  46.4717293 188.7935944  10.4540071  45.2769699 191.0228577  12.2696724
  44.7451859 191.8578491  11.5429211  44.5617905 190.1508179  12.9643002
  45.0606422 189.4733887  13.5231848  43.0967140 189.9919586  12.9021339
  42.8172417 190.3239746  11.9022560  42.6709328 188.5712433  13.1367464
  43.0619087 188.3341827  14.1262112  41.6026001 188.3592834  13.0938292
  43.1080322 187.9465332  12.3577785  42.3533058 190.9529877  13.8288279
  41.2183075 191.3288574  13.6160679  42.9386902 191.3642120  14.9842777
  43.7957382 190.9124146  15.2696762  42.4364967 192.4171600  15.9155226
  41.3568459 192.3089142  15.8118820  42.8362122 192.0536652  17.3626614
  42.8462601 190.9638977  17.3826447  44.2030220 192.5606232  17.8701172
  44.1622009 193.6497345  17.8858776  44.4345665 192.2126465  18.8767948
  44.9963226 192.2740173  17.1797276  41.6501465 192.5243683  18.2175655
  40.6823654 192.1361389  17.9001369  41.6940002 192.1068420  19.2234688
  41.7866287 193.6057739  18.2099075  42.6713142 193.8579254  15.4550877
  41.8058548 194.7517090  15.6789484  43.8377228 194.1846771  14.8069048
  44.4591026 193.3983002  14.6820269  44.3326035 195.5436554  14.7872000
  43.8440933 196.1269684  15.5677176  45.8546677 195.5703278  15.1332712
  46.1045761 196.6062012  15.3626776  46.0374947 194.9359894  16.0006180
  46.8216934 195.1302643  13.9630070  46.6716843 194.0679626  13.7703762
  46.5173950 195.5339661  12.9973307  48.3187256 195.5043335  14.2145987
  48.6633415 195.8786469  15.3029795  49.1689873 195.3958282  13.2211781
  50.1161118 195.7464600  13.2312899  48.8625183 195.0202332  12.3351154
  43.9547691 196.4346619  13.6175327  44.7147522 197.3079987  13.1184568
  42.6738281 196.1956940  13.1731615  42.0604744 195.5038300  13.5796156
  42.0858421 196.9655151  12.0571404  42.9074936 197.1494446  11.3649263
  41.0055275 196.0954895  11.3575525  40.3243561 195.6157074  12.0603418
  40.3680229 196.7751312  10.7920713  41.7044029 195.1536713  10.3582544
  42.3808708 195.6817322   9.6862106  42.4257240 194.0009460  10.9784403
  41.8730354 193.5737915  11.8152084  42.4541359 193.1507874  10.2968769
  43.4540863 194.2062683  11.2758026  40.5938530 194.4301147   9.5868616
  39.8148766 195.1023102   9.2270565  41.0133743 193.9667969   8.6938629
  40.1785545 193.6376190  10.2094202  41.7224159 198.3432007  12.5017223
  40.5145264 198.6206665  12.6433754  42.7089195 199.1910553  12.7486105
  43.6048889 198.7990112  12.4963493  42.6893997 200.6313782  13.0353546
  41.8727760 201.1184235  12.5024195  42.3790627 200.8549805  14.5481625
  42.1945877 201.9103546  14.7487831  41.4469604 200.3076172  14.6884604
  43.5060539 200.1631165  15.4235172  44.0224457 199.3918762  14.8520069
  44.3065910 200.8516083  15.6941118  43.0404053 199.4946442  16.7365437
  42.8262520 198.3015594  16.8093204  42.8642273 200.2690125  17.7735214
  42.3831291 199.9344330  18.5961399  43.0769577 201.2554779  17.7320061
  44.0422058 201.2324677  12.5230427  45.0100288 200.5012360  12.3939037
  44.0814133 202.5730438  12.3656702  43.2298737 203.0946350  12.5171099
  45.2440758 203.3187256  11.7964382  45.4947052 202.9572449  10.7991362
  44.7973633 204.7504425  11.5479469  45.6838875 205.2807312  11.2001486
  43.9856567 204.7725677  10.8207989  44.2482452 205.2694092  12.8212729
  43.9166489 206.1444397  12.6068916  46.5228424 203.2598572  12.7077837
  47.6537094 203.6170044  12.2830744  46.4544601 202.7668915  13.9595766
  45.5513916 202.5588074  14.3611574  47.6638145 202.4163971  14.8245811
  48.3240585 203.2836456  14.8331585  47.2347412 202.1842499  16.3132648
  46.2699547 201.6790466  16.3587017  47.9204178 201.4723358  16.7727680
  47.2540703 203.4804077  17.1373768  48.1804161 204.0365906  16.9937038
  46.0450058 204.4676819  16.9328213  45.1553802 203.8592224  17.0954227
  46.0577393 205.2910767  17.6469479  46.1068268 204.8444672  15.9118824
  47.3130531 203.0971222  18.5683804  48.0813942 202.3614197  18.8060589
  47.4110565 203.9495239  19.2406158  46.4271164 202.5540314  18.8974190
  48.4996490 201.1701355  14.2823229  49.6284828 200.9856415  14.7020502
  48.0065651 200.3353271  13.4205112  47.1543961 200.5371857  12.9173565
  48.7812767 199.1427460  12.9516926  49.1175117 198.6827545  13.8809204
  47.8535271 198.2429047  12.1697693  48.3850975 197.3721466  11.7859478
  47.1060028 197.9005585  12.8853941  47.2601852 198.9259491  11.0669403
  46.3562126 199.1965790  11.2435598  50.1007004 199.5217133  12.1461535
  51.0086136 198.7042389  11.9699907  50.3367615 200.8007965  11.6608152
  49.6518631 201.5363617  11.7606707  51.6387711 201.1897125  11.0229731
  51.9916878 200.4469910  10.3074942  51.3959579 202.4419861  10.1341400
  52.2840805 202.6852264   9.5508938  50.6109085 202.1478577   9.4375181
  50.9268608 203.6276398  10.8965616  49.9860802 203.4635468  11.4220238
  51.7673073 203.9819794  11.4933786  50.6210442 204.7807312   9.9718266
  51.4721375 205.0381165   9.3413591  49.8464966 204.3266449   9.3537769
  50.0080757 205.8815155  10.7286234  49.2148743 205.6392822  11.3050404
  50.1758118 207.1595001  10.5360346  51.1257286 207.6450043   9.7590294
  51.4806862 207.1000519   8.9862795  51.2248039 208.6476288   9.6882143
  49.4073792 208.0157471  11.1794548  48.6454887 207.6025848  11.6980352
  49.5182228 209.0078125  11.0257435  52.9219704 201.5150146  11.9546347
  53.9514732 201.9299927  11.4391947  52.8353806 201.4038696  13.2826586
  52.0347786 200.9008789  13.6378202  53.9365120 201.6136932  14.2188931
  54.3353996 202.5994110  13.9794064  53.3198433 201.7287903  15.5834713
  52.9438744 200.7424011  15.8551006  54.1544838 201.8874969  16.2663288
  52.1983795 202.7905426  15.7865973  52.5321121 203.8018036  15.5541039
  51.3610115 202.6652985  15.1001358  51.6425133 202.9285278  17.2729816
  50.7250328 203.5167847  17.2562790  51.2986145 201.9497375  17.6073761
  52.5929375 203.5221710  18.2784042  53.1461067 204.2656555  17.8767147
  52.5188866 203.3736420  19.5847168  51.7226639 202.5192566  20.2139015
  51.0837059 201.9421844  19.6858616  51.6298447 202.4956665  21.2193508
  53.2532120 204.0991211  20.4025936  53.8381119 204.8124084  19.9912434
  53.1431503 203.9849854  21.4000740  55.0956917 200.5495453  14.1871967
  55.2159386 199.7261963  15.0741262  55.8679543 200.6875916  13.1260729
  55.7889709 201.5296478  12.5739870  56.7212105 199.6116333  12.4981575
  56.2141876 198.6592865  12.6532545  56.6790543 199.8842926  10.9824057
  55.6862640 200.2572479  10.7306824  57.3800316 200.6814728  10.7349663
  56.9379425 198.7428284  10.0292358  58.1661987 198.5758667   9.3439846
  57.9888153 197.4708405   8.5907974  58.7161140 196.9921722   7.9518037
  56.7928467 196.9308014   8.7345676  56.5268974 196.0711365   8.2759380
  56.1081581 197.6904602   9.6688766  55.0711327 197.4951630   9.8987341
  58.1259766 199.3843994  13.0492640  58.6935921 200.1338654  13.8635921
  58.8014030 198.3379822  12.5106659  58.5226936 198.0015717  11.6000319
  59.9434052 197.6162415  13.1766777  59.8338852 197.7371521  14.2544031
  59.8295403 196.1132050  12.9381571  60.3661461 195.5352478  13.6905661
  58.3680611 195.6035156  13.0296602  57.7331390 195.9080811  12.1976633
  58.4092636 194.5166779  12.9576149  57.9195251 195.8544312  13.9908857
  60.4597282 195.6901550  11.6192894  59.7589874 195.9819336  10.8370266
  61.4499626 196.1343689  11.5182056  60.5758667 194.1701050  11.5807629
  59.6153870 193.6592102  11.6484547  61.1261787 194.0045319  10.6545630
  61.1884422 193.8631744  12.4284945  61.3660774 198.2527313  12.9167919
  61.5037842 198.8605042  11.8594398  62.3793221 198.2068176  13.7669697
  63.1384430 198.7995300  13.4627743  63.0151672 197.1119690  14.6046028
  63.9607162 197.5260162  14.9547443  62.2039375 196.8733673  15.8773565
  61.3065987 196.2780151  15.7086868  62.8472137 196.1880646  16.4293251
  61.8691330 198.0824585  16.7304497  62.8966560 199.0205688  17.0437851
  63.9357262 198.9104156  16.7706470  62.6196747 200.0962372  17.9095345
  63.3816795 200.7736664  18.2656860  61.3483582 200.2831879  18.4778633
  61.1894531 200.9612885  19.3032894  60.2966080 199.4290314  18.0896530
  59.3410988 199.5243073  18.5839462  60.5570602 198.3159943  17.2592010
  59.8146553 197.5784607  16.9922161  63.5475388 195.8178711  13.8296127
  63.8767929 196.0490112  12.6357250  63.6580086 194.5713806  14.4028130
  62.5839806 193.8936615  15.0605297  61.5892258 194.2491760  14.7918854
  62.5893631 194.0453949  16.1399040  62.7779236 192.4278564  14.9112816
  62.1517944 192.1228027  14.0728292  62.3535843 191.8647156  15.7424984
  64.2625580 192.2305756  14.5797367  64.3265381 191.5460663  13.7338905
  64.8867950 191.8072052  15.3666201  64.7610855 193.6186218  14.1986055
  65.4650879 193.8666840  14.9929218  65.5387192 193.5812225  12.8236618
  64.9122238 193.2881927  11.7739849  66.8623734 193.6977997  12.7478914
  67.1943970 193.5530701  11.8050671  67.8090286 194.1649780  13.8505754
  68.7129593 194.5042572  13.3447180  68.1510391 192.9811096  14.7634659
  68.9795303 193.2318268  15.4259243  67.2937775 192.7028809  15.3764782
  68.4721375 191.8323212  14.0138893  69.3438721 191.9052582  13.6184607
  67.4288025 195.4019928  14.6673584  66.3471985 195.9650421  14.5114222
  68.3995895 195.9282074  15.4510231  69.1866913 195.3223267  15.6340218
  68.2269287 196.9067078  16.5236721  67.2619019 197.3947754  16.3872433
  68.0193558 196.0633240  17.7889099  67.8531570 194.9990082  17.6224575
  68.9664841 196.1427002  18.3225212  66.8963852 196.4732361  18.5883179
  66.7120132 195.8694000  19.3114986  69.1049576 198.1172638  16.7531242
  68.6999741 198.9713898  17.5622845  70.2053299 198.4929657  16.0493774
  70.7050781 199.2993317  16.3959827  70.8589554 197.8726044  14.8834352
  71.7559204 198.4864044  14.8010082  70.1194382 198.2267456  13.5634718
  69.1417770 197.7463837  13.5242167  69.7916183 199.2638092  13.4919558
  70.8573837 197.8015289  12.2389927  71.0246811 196.7265320  12.1719999
  70.1885452 198.2067108  11.4796581  72.2534103 198.4176788  12.0279408
  72.9830093 198.1915283  12.8055296  72.5019455 198.0095825  11.0482559
  72.1541977 199.9012756  11.8091135  71.1355362 200.1748962  11.5342121
  72.3897629 200.4409637  12.7263632  73.1217041 200.3181458  10.7126369
  72.7273865 200.1480103   9.7984867  73.4429855 201.2739868  10.7694921
  74.0159683 199.8567047  10.7991142  71.4054871 196.4383240  15.1162405
  70.9647369 195.4588013  14.5020218  72.3578491 196.2794037  16.0535240
  71.8057251 196.0682983  17.3922882  70.7770844 195.7136383  17.3273697
  71.9270706 197.0031128  17.9395618  72.6343231 194.9383240  17.9944992
  72.0753860 194.3038025  18.6823139  73.4732361 195.4028931  18.5126667
  73.2567902 194.1909027  16.7686996  74.1723862 193.6713715  17.0513401
  72.5179901 193.4936371  16.3735943  73.4403839 195.3589478  15.7936544
  73.5310745 195.0827637  14.7431259  74.8162460 196.0254364  15.9608707
  75.8551331 195.3471069  16.1699543  74.9753647 197.3855591  16.0009689
  74.2218933 197.9757690  15.6784630  76.2731628 198.0574493  16.3262539
  76.9046783 197.8058929  15.4741945  76.0276947 199.5953217  16.2146759
  75.3104553 199.7396545  15.4066944  75.6456833 200.0043030  17.1500359
  77.3507004 200.3166962  15.9127007  78.1247864 199.9129944  16.5653095
  77.5382309 200.1516724  14.8517113  77.2499924 201.8517456  16.0972614
  76.9082413 202.1271667  17.0949860  78.2598495 202.2414093  15.9689960
  76.3383255 202.5522003  15.0322208  76.4247665 201.9965363  14.0984859
  75.2972794 202.4331360  15.3324680  76.6155548 204.0253754  14.8858709
  77.5860901 204.1372681  14.6296740  75.9308929 204.4185638  14.2559919
  76.6171494 204.5076141  15.7733049  76.9176178 197.5930328  17.6230068
  78.1077652 197.4448242  17.6301346  76.1108322 197.2015686  18.6109924
  75.1514587 197.0407562  18.3392544  76.6783142 196.9032440  20.0127048
  77.5389252 197.5714874  19.9828320  75.7730560 197.4416809  21.1646004
  76.4374313 197.5343323  22.0237465  75.3802414 198.8412781  20.8086605
  74.6120300 198.9068909  20.0381699  75.1205597 199.3297882  21.7478237
  76.2828522 199.3347473  20.4482670  74.6598129 196.5162506  21.6733093
  75.1466370 195.6448364  22.1112061  74.1479492 197.1008453  22.4377384
  73.9969711 196.1487579  20.8899155  77.2284317 195.5010529  20.2068634
  77.7351761 195.1678162  21.3067799  77.3024368 194.6414032  19.1574726
  77.0707474 195.0325317  18.2555656  77.7754669 193.2807312  19.1499062
  77.7630997 192.9439392  18.1133099  79.2803497 193.2954712  19.4148140
  79.4354858 193.4564972  20.4816341  79.8098145 192.3560333  19.2559948
  80.1448135 194.2483063  18.6942196  81.0257187 195.1184540  19.3052807
  81.1231384 195.0935822  20.3805904  81.8026123 195.7992859  18.3140049
  82.4921799 196.4833527  18.5908508  81.6035309 195.2022095  17.0801983
  82.2275162 195.4694214  15.8590498  83.0127411 196.2089691  15.8051119
  81.7846146 194.8627777  14.6901789  82.3277512 195.0566101  13.7770329
  80.5842743 194.1124573  14.7854462  80.1998215 193.5720367  13.9330788
  79.9504471 193.8682861  16.0202332  79.0305252 193.3037415  16.0581627
  80.4693604 194.3187408  17.2575016  77.0758286 192.1202087  19.9433727
  77.5095673 190.9593506  19.8376408  76.0718994 192.3396454  20.7983131
  75.7070694 193.2781372  20.8772526  75.9956131 191.4992981  22.0223160
  76.9907074 191.0642853  22.1153412  75.0745468 190.3001404  21.8531628
  74.5454102 190.1206055  22.7890472  74.4498978 190.4962463  20.9816933
  75.8344955 188.9749908  21.5861511  75.0338898 188.2517090  21.4312706
  76.3969955 189.0319061  20.6542397  76.7313309 188.4462433  22.7348595
  77.6660156 189.0162506  23.2174568  76.5667953 187.2215424  23.2024422
  77.0892258 186.9384613  24.0191574  75.8064499 186.6232910  22.9124947
  75.6199875 192.2194977  23.3552971  74.5458755 192.7836761  23.4236851
  76.5678482 192.1537628  24.2418194  77.5274124 191.9994507  23.9670010
  76.3986969 192.1714935  25.6888218  75.8455887 191.2717285  25.9582748
  77.7085419 192.0443420  26.5107594  77.6780167 192.4859009  27.5068455
  77.9096069 190.9770966  26.6039848  78.9467926 192.7100677  25.8714848
  79.0934525 193.9884949  25.9111366  79.7753601 192.0209961  25.2310467
  75.5693512 193.3360138  26.1622543  75.6108398 194.3684845  25.5467644
  74.7186203 193.0755310  27.1596088  74.7954254 192.1197205  27.4768486
  73.7472687 194.0069580  27.8070335  72.9795685 193.3816833  28.2628555
  74.4755478 194.6787872  29.0359516  73.7790146 195.3363800  29.5560455
  74.7668686 193.8363495  29.6632862  75.8741608 195.3317108  28.9051247
  76.3731308 195.2781677  29.8727303  76.5049362 194.7789459  28.2089500
  75.9098740 196.8475647  28.4621105  74.9620972 197.2904358  28.7681866
  76.7335129 197.3034210  29.0115795  76.2922974 197.0890350  27.0851192
  75.5700378 197.3601532  26.4332447  77.5019684 197.1753845  26.5481892
  78.6014328 196.9459991  27.2001457  78.6096497 196.5676422  28.1365662
  79.4536057 196.8614502  26.6646519  77.5834351 197.5226898  25.2666111
  78.5190277 197.6299133  24.9015427  76.7851334 197.7976990  24.7123642
  72.9582062 195.0352936  26.9628334  72.4752426 194.7611237  25.8448772
  72.6714172 196.1936798  27.5253811  72.7930756 196.2936401  28.5230312
  71.8372650 197.2422638  27.0106716  71.7809448 198.0064850  27.7858410
  72.5035553 197.9295502  25.8433914  72.6416779 197.2849579  24.9753361
  71.9117661 198.7731323  25.4880390  73.4439163 198.3906860  26.1453533
  70.3038254 197.0380859  26.7123127  69.4546661 197.7120819  27.2734051
  69.8398590 196.1984406  25.7811718  70.4787598 195.6511841  25.2222347
  68.4726639 196.3290710  25.1357708  68.1744919 197.3745728  25.0575695
  68.5265121 195.9043732  23.7107449  67.5060425 195.6967316  23.3888245
  68.7745285 196.7645569  23.0889072  69.3104630 194.6521606  23.3186264
  68.8450165 193.4021454  23.9004440  67.9953308 193.3806763  24.5667610
  69.6544495 192.2566833  23.6983471  69.4013901 191.3531189  24.2330647
  70.8204880 192.2828522  22.9590321  71.3921280 191.3782959  22.8127499
  71.2725525 193.5443268  22.4619312  72.2436981 193.6022797  21.9929810
  70.5040283 194.7243042  22.5865841  70.8813324 195.6454773  22.1676865
  67.3455124 195.6628876  25.9341354  66.2529831 195.4113922  25.4061241
  67.5885239 195.3788605  27.2447414  68.5229568 195.5781860  27.5721626
  66.6014633 194.8700867  28.2847328  66.2415390 193.9015350  27.9376316
  67.2912445 194.6949768  29.6849689  67.5353775 195.6998291  30.0296268
  66.5042801 194.3049927  30.3304844  68.5908203 193.8061218  29.8462353
  68.3253479 193.0381775  30.5727997  68.8421097 193.3669586  28.8807831
  69.8331604 194.6079865  30.3179092  70.6898880 193.9341583  30.3095112
  69.9205246 195.5120087  29.7152367  69.6961899 195.0786133  31.7141266
  69.6631012 194.3754578  32.4384117  69.9506912 196.2216187  32.2157021
  70.0019379 197.2975922  31.4668427  69.7380295 197.2106781  30.4958134
  70.1501236 198.1851349  31.9255695  70.1646652 196.3484802  33.5006027
  70.1928177 195.6457825  34.2255363  70.2214737 197.2675781  33.9154778
  65.2980652 195.7377472  28.3819695  64.2140884 195.1281128  28.4768791
  65.3978577 197.0838623  28.3271408  66.3350525 197.4364929  28.1951675
  64.2531738 198.0284119  28.2998714  63.6591873 197.8593292  29.1980324
  64.8467331 199.4239655  28.4416065  65.4957428 199.6478119  27.5949821
  63.9768867 200.0805817  28.4595852  65.6395111 199.6188354  29.7596626
  65.0712051 199.0946198  30.5279770  66.6014786 199.1076813  29.7217369
  65.8508530 201.1298828  30.1148014  66.2689590 201.9838562  29.2914867
  65.6883850 201.4930115  31.3893051  66.0631943 202.3764038  31.7042885
  65.5624847 200.7433167  32.0542984  63.5260239 197.9118500  26.9371090
  62.2825546 197.8768616  26.9340820  64.2311401 197.7773590  25.7700939
  65.2170715 197.9936981  25.8054905  63.7115326 197.4912720  24.4503670
  62.9552956 198.2277069  24.1785583  64.7471924 197.5996399  23.4156666
  65.0903854 198.6267090  23.5399628  65.5776062 196.9366150  23.6583462
  64.1589966 197.3606720  22.0589333  63.3678589 198.1585693  21.3008270
  63.1121979 199.1541595  21.6322212  62.8667450 197.4487915  20.2644176
  62.3460960 197.9023743  19.5273323  63.4464531 196.1787262  20.1766682
  63.3001747 195.1407013  19.2437649  62.6063309 195.1976471  18.4180908
  64.1305466 194.0392456  19.3595829  64.1129456 193.3254852  18.5492458
  64.9934387 193.9727325  20.4767742  65.5475006 193.0489349  20.5542278
  65.0400772 194.9130096  21.5026054  65.7403641 194.7278290  22.3036633
  64.2639313 196.1109467  21.3400307  62.9156075 196.1717072  24.3512287
  61.7923126 196.1363831  23.8512878  63.4096031 195.0502777  24.9379177
  64.3677597 194.9983215  25.2531033  62.5939102 193.7815247  24.9501152
  62.2440453 193.6621399  23.9247150  63.5191231 192.5819702  25.3553257
  64.3018723 192.9779968  26.0022888  62.8998413 191.8426361  25.8632507
  64.0981445 191.9225616  24.1819363  65.3965073 191.8390503  23.8900394
  66.2072678 192.1860504  24.5134640  65.6449432 191.1065369  22.7224751
  66.5481186 190.9354095  22.3040314  64.4284821 190.7386475  22.1798878
  64.0683212 189.9158783  21.1041431  64.7597656 189.5582123  20.3555565
  62.6775246 189.6117401  20.9453125  62.3374176 188.9779816  20.1396599
  61.7669182 190.0276184  21.9115257  60.7197609 189.7734985  21.8388653
  62.1107635 190.8625183  22.9752922  61.4038734 191.1160126  23.7514725
  63.4275742 191.2243195  23.1328602  61.3449364 193.8433685  25.8116245
  60.4615898 193.0361328  25.5552731  61.1350784 194.8137207  26.7093124
  61.8455620 195.5181732  26.8473778  59.7752190 195.2075500  27.2001038
  59.2412186 194.2780914  27.3976974  59.8945618 196.0230103  28.5186939
  60.4921608 196.9013214  28.2746468  58.8962021 196.3389587  28.8212738
  60.5397377 195.1992188  29.6473122  60.0352592 194.2346191  29.7032948
  61.5438538 194.9280396  29.3212662  60.5993919 195.9356079  31.0005989
  60.8633385 197.1345673  31.0706539  60.3083000 195.2838287  32.1395988
  60.5652847 195.7470703  32.9995232  60.1953201 194.2802734  32.1544075
  59.0561142 196.1251526  26.2412109  57.9440269 195.8551178  25.8653831
  59.6989746 197.1225891  25.6910076  60.5951271 197.2778931  26.1302052
  59.2192612 198.1800079  24.7548141  58.4709167 198.7810059  25.2714195
  60.3354874 199.0711517  24.3761044  61.0547104 199.1316833  25.1928997
  60.9080925 198.6868896  23.5319653  59.8148422 200.4879761  24.1088104
  59.0831833 200.3334503  23.3157730  59.3058434 200.8775787  24.9904156
  60.9440804 201.4094543  23.5612602  61.8189316 201.5048676  24.2044029
  61.3580818 200.9388733  22.6694927  60.3144493 202.8339996  23.2430878
  60.8956184 203.3669739  22.4905643  59.3597679 202.7469940  22.7243233
  60.2211876 203.7179260  24.4245071  61.1488647 203.8878632  24.7859440
  59.9565926 204.6599426  24.1741371  59.7667732 203.2635803  25.2037258
  58.6335716 197.5500793  23.4699211  57.4635162 197.8051758  23.2151852
  59.3409653 196.6726990  22.7493877  60.2786751 196.5139923  23.0894070
  58.8100128 195.9833069  21.5600929  58.5128822 196.8078308  20.9120522
  60.0224533 195.2028503  20.9994793  60.6686821 195.9265594  20.5027504
  60.5285606 194.7260132  21.8388748  59.7091637 194.1251068  20.0156078
  59.3896027 194.5375519  18.6923771  59.4606323 195.5969543  18.4947834
  58.9490700 193.6302032  17.7008228  58.8725891 193.9318237  16.6666164
  58.8470154 192.2458344  18.0065346  58.3858223 191.3498688  17.0772686
  57.9048004 191.7030945  16.3253078  59.0882378 191.8336182  19.3562984
  58.8245850 190.8204803  19.6217117  59.5043259 192.7717743  20.3258038
  59.5377197 192.5045624  21.3716888  57.5381927 195.1580200  21.9095993
  56.5649376 195.2206421  21.1178513  57.5739212 194.4437408  23.0349293
  58.3106232 194.5906525  23.7100487  56.3635483 193.7484589  23.4853592
  56.0552673 193.0826569  22.6792736  56.7226715 192.8193359  24.7115078
  57.1672211 191.9028473  24.3235435  57.4577599 193.3368683  25.3278751
  55.5403786 192.4525604  25.6532326  54.9891090 193.3367004  25.9733810
  54.9126320 191.7161865  25.1514549  56.0804367 191.9585266  26.9661732
  57.1264305 191.3484955  27.0742607  55.2879257 192.0608063  28.0176163
  55.6154060 191.6598969  28.8848629  54.3627930 192.4647064  27.9845943
  55.2605858 194.7843170  23.7407150  54.1441803 194.6480103  23.1927319
  55.4474869 195.8728180  24.5219364  56.3087730 195.8683624  25.0494442
  54.4079208 196.9078522  24.7695236  53.6240311 196.3365936  25.2667961
  55.0577850 197.9491882  25.6782589  55.2425308 197.3898621  26.5953922
  56.0149879 198.3013000  25.2937050  54.1152954 199.1548309  25.9996510
  54.0609169 199.7233734  25.0712624  53.0969582 198.8640442  26.2575798
  54.6555824 200.0746613  27.1088772  54.7173309 199.4432068  27.9951973
  55.5993500 200.5795441  26.9027214  53.5055237 201.1122589  27.3677464
  53.4816170 201.7901917  26.5145531  52.5022621 200.7130432  27.5167198
  53.8117294 201.8611755  28.5938396  54.6638107 202.3810730  28.4396572
  53.0160675 202.4259033  28.8548164  54.0376129 201.2557220  29.3700504
  53.8623199 197.5018921  23.4938583  52.6112137 197.6533661  23.4116554
  54.7257385 197.7978668  22.4951916  55.7222977 197.8184967  22.6581268
  54.3340721 198.3868256  21.2161942  53.6024513 199.1561279  21.4631500
  55.5644493 199.1347656  20.5905590  55.8445015 199.8316498  21.3805084
  56.3257332 198.3801880  20.3926506  55.2188454 199.9089050  19.3463726
  54.8462868 199.2419434  18.5689106  54.3576317 200.5356598  19.5778809
  56.2810440 200.7777710  18.7432499  57.1997948 200.1913452  18.7538738
  55.9726486 201.0826569  17.7432346  56.3552742 202.0606995  19.5028057
  55.6676941 202.3217773  20.1950302  57.4125786 202.9010925  19.3760262
  58.3740196 202.7381744  18.5085087  58.2065277 202.1602783  17.6972866
  58.8689194 203.5827332  18.2597027  57.5978546 203.9331512  20.1447163
  56.8596268 204.1631775  20.7944927  58.4653511 204.4503784  20.1399097
  53.6561127 197.4182892  20.2673512  52.5344391 197.7139587  19.7639065
  54.1668816 196.1681061  20.0692692  55.0405159 195.9429321  20.5233212
  53.5332947 195.1549225  19.2223816  53.3350792 195.5641174  18.2317410
  54.5569458 193.9988861  19.0068378  55.4909134 194.4789734  18.7147179
  54.7525749 193.4170990  19.9075871  54.1323395 193.1211853  17.8229542
  53.2639503 192.5507050  18.1524162  53.9385490 193.7449493  16.9503365
  55.2567596 192.0963898  17.4951572  56.1126709 192.6562042  17.1181545
  55.5780830 191.5142517  18.3588505  54.7609138 191.1137390  16.4301186
  55.3769951 190.2239075  16.3006668  53.7613525 190.7200317  16.6144466
  54.7386856 191.8284454  15.0816536  55.6582336 192.1670837  14.8369818
  54.3269272 191.2575684  14.3573313  54.0878601 192.5984039  15.0208540
  52.2392235 194.5949097  19.7918930  51.2701721 194.5008240  19.0721188
  52.1157875 194.3030243  21.1013412  52.9008141 194.4987183  21.7059364
  50.8818779 193.7205658  21.6977997  50.3453636 193.3347015  20.8309898
  51.2169876 192.4712067  22.5470505  51.7774162 192.6231384  23.4695110
  50.2790146 191.9566040  22.7556229  52.0248451 191.4681854  21.7449894
  51.4656296 190.7631989  20.6394482  50.4435081 190.9447174  20.3415947
  52.3030128 189.9676361  19.8344727  52.0728073 189.3695374  18.9651699
  53.6524124 189.8731842  20.1248779  54.2345886 189.2302551  19.4813557
  54.2741318 190.5803223  21.1944599  55.3264160 190.4701996  21.4111938
  53.4311714 191.3577728  22.0247078  53.7719421 191.9634705  22.8514004
  50.0053940 194.7330017  22.3737507  49.1140671 194.3656769  23.1205997
  50.1985016 196.0265503  22.1840286  50.9651566 196.3664703  21.6211796
  49.1811943 196.9951630  22.6836243  49.2684975 197.0066071  23.7700615
  49.5934525 198.3975677  22.1210022  50.4992485 198.7655640  22.6028957
  49.8160515 198.3014984  21.0583057  48.5422249 199.4760590  22.2010231
  48.4218903 200.3519135  23.3377304  47.4280815 201.1451721  23.0428963
  47.0051079 201.9076996  23.6800957  46.9137192 200.8761597  21.8096294
  46.1193695 201.3829651  21.4459705  47.5882072 199.8085785  21.2752724
  47.5165901 199.3074799  20.3212433  47.7484550 196.6098633  22.2597103
  46.8616638 196.8923798  23.0676174  47.4890709 196.1016541  21.0690727
  48.2515602 195.9356079  20.4278679  46.1670914 195.7523651  20.6387901
  45.5823097 196.6439209  20.8651867  46.0468674 195.6859283  19.1111889
  46.6041412 194.8753967  18.6415157  45.0000496 195.5300293  18.8504925
  46.5639801 197.3352661  18.5384140  45.4733505 198.0810547  18.7364540
  45.4125710 194.6121368  21.3965912  44.2081757 194.4575500  21.3052731
  46.1041679 193.9402466  22.3174343  47.0321083 194.2994690  22.4906063
  45.6157913 192.7883148  23.0913830  45.3158340 192.0127258  22.3866882
  46.8252220 192.2923737  23.8270245  47.0280724 193.0193634  24.6134396
  46.5901985 191.3636932  24.3470364  47.6008987 191.9761658  23.1295700
  44.4460564 193.1390839  24.0931568  43.6276855 192.2757568  24.4462013
  44.3785362 194.4053650  24.4071159  45.0374184 195.0709839  24.0290489
  43.3213806 195.0699921  25.2265873  43.3014832 194.4976807  26.1540432
  43.7297554 196.5906067  25.3980865  43.1152382 197.0869141  26.1491852
  44.7545929 196.6341858  25.7667427  43.7186050 197.2260132  24.0836067
  44.2101707 198.0274506  24.2777100  41.8844757 194.9089966  24.6261120
  40.9781151 195.0184479  25.4750519  41.7114983 194.6528473  23.3375626
  42.5684624 194.5049133  22.8239174  40.4948769 194.4552155  22.6386871
  39.7133942 195.0882721  23.0589485  40.6882591 194.8470764  21.1812000
  41.5205650 194.2661285  20.7838726  39.8527641 194.6073456  20.5234852
  40.8778267 196.3462067  20.8692513  41.7315102 196.7196045  21.4348526
  41.0542564 196.5186005  19.3645458  40.1903114 196.1218872  18.8313313
  41.1422691 197.5940857  19.2106419  41.9522133 195.9590912  19.1023998
  39.5910225 197.0692291  21.3241749  39.5134277 196.9735107  22.4071884
  39.7197113 198.1329651  21.1241951  38.6974678 196.6885834  20.8294277
  39.9379425 192.9935150  22.8524971  38.8731422 192.6107483  22.3895988
  40.7439842 192.1001587  23.4724274  41.6075401 192.5164490  23.7903347
  40.3647079 190.7951355  23.9314098  39.2950439 190.6075592  23.8379650
  40.9759407 189.6914825  22.9924297  40.3304710 188.8229980  23.1236095
  41.1951256 189.9459686  21.4948311  42.0391273 190.6346130  21.4554863
  41.3501892 188.9913330  20.9921227  40.3171883 190.3979950  21.0333099
  42.1791649 189.1646881  23.4754658  42.4635506 188.4981232  22.8458538
  40.7121429 190.5730591  25.4786854  41.0574722 191.5073547  26.1873817
  40.3570976 189.4071503  26.0274506  39.9319267 188.7176056  25.4242401
  40.5137596 189.0875092  27.4796391  40.0365562 189.8403015  28.1070862
  39.7483978 187.8167419  27.7440434  39.8747673 187.6225739  28.8091393
  38.6877632 188.0269928  27.6063519  40.0121040 186.7387390  26.8290215
  39.2653580 186.1360626  26.8017216  41.9651108 188.8439331  27.9327049
  42.2262764 188.8076172  29.1330929  42.9290161 188.6982117  26.9952927
  42.6500702 188.8757477  26.0409508  44.3498344 188.2296906  27.2829475
  44.3585777 187.6669617  28.2164173  44.8428459 187.4224854  26.0799904
  44.7695236 188.0743256  25.2094593  45.8876572 187.1858826  26.2812252
  44.0005074 186.1724091  25.8696060  43.4268608 185.7786865  24.6892719
  43.6211967 186.2915039  23.7588634  42.8894196 184.5545807  24.8605843
  42.2914658 184.1507111  24.1538734  42.9886856 184.0962830  26.1514969
  42.5514069 182.9418945  26.8020935  41.9093208 182.2575989  26.2674313
  43.0273895 182.6407318  28.1130352  42.6099625 181.7392883  28.5367756
  43.8025208 183.6219788  28.7887211  44.1231613 183.4474182  29.8051453
  44.1604309 184.8147736  28.1890011  44.7177086 185.4847260  28.8269711
  43.8161392 185.0576477  26.8313580  45.2774925 189.5057526  27.5449047
  45.0005112 190.5644684  27.0118179  46.3698616 189.3540192  28.3442745
  46.5869560 188.2972717  29.4032555  46.8092079 187.3180237  28.9792843
  45.6813431 188.2814331  30.0096512  47.7851791 188.7517853  30.1966686
  48.6630440 188.2286530  29.8174763  47.6751595 188.5512238  31.2623940
  47.9599876 190.2282867  29.9302902  49.0179367 190.4906616  29.9328766
  47.3116608 190.7481842  30.6356144  47.3866348 190.4084930  28.5176964
  46.7988815 191.3264465  28.5145168  48.4136581 190.4017334  27.3840065
  48.6670799 189.3339691  26.8358994  49.1290894 191.5538635  27.1636772
  48.8515434 192.8516541  27.7478714  49.2039680 192.8739319  28.7790833
  47.7779541 193.0373840  27.7159996  49.6103096 193.8327942  26.8721371
  49.8684158 194.6940460  27.4883518  49.0319977 194.1203461  25.9940872
  50.8022881 193.0466156  26.3933430  51.5139427 193.0345459  27.2188759
  51.2258644 193.5499878  25.5242634  50.2149506 191.6466370  26.1703529
  49.8235855 191.5136719  25.1617622  51.3091278 190.5493622  26.2928429
  51.8241692 190.0431671  25.3055305  51.6120338 190.0747986  27.4917946
  51.2244759 190.6175232  28.2503109  52.6586914 189.0340424  27.7389851
  53.5277824 189.2808228  27.1291618  53.1174126 189.0201721  29.2211666
  54.0014191 188.3864746  29.2922516  53.5840797 189.9977264  29.3424835
  52.1840477 188.6154938  30.2933731  51.4835434 189.4730225  31.1369228
  51.4394188 190.5519867  31.1198177  50.7446098 188.7433319  31.9813175
  50.1338844 189.1549988  32.6724281  50.8429451 187.3490143  31.7130165
  50.2565231 186.2365417  32.2889862  49.5204468 186.3231354  33.0745392
  50.5140991 184.9648285  31.7829895  49.9416389 184.1146698  32.1234589
  51.5748367 184.7931366  30.8562717  51.9074783 183.8454895  30.4591312
  52.1607857 185.9550476  30.2880917  52.8857346 185.8036499  29.5020103
  51.7633629 187.2550812  30.6638012  52.3143387 187.5818939  27.3091545
  53.2001877 186.7740936  27.1038857  51.0153656 187.1989136  27.1314316
  50.2439117 187.8467712  27.2037182  50.6883430 185.8226013  26.6800804
  51.2604141 185.1725311  27.3420849  49.1211052 185.5909271  26.7757149
  48.7254181 185.7669830  27.7759819  48.6830711 186.2777863  26.0515366
  48.7329597 184.1039581  26.4621429  49.0882454 183.8917084  25.4537659
  49.3343239 183.0672302  27.4064178  49.0107193 183.0622864  28.4472618
  49.0765266 182.0390930  27.1522923  50.4216766 183.1373749  27.3773403
  47.2237549 183.8625946  26.3998241  46.6499710 184.6448364  25.9028759
  46.9574318 183.0214539  25.7597752  46.6736755 183.7312469  27.3316307
  51.1949234 185.6333160  25.2498512  51.6974335 184.6085205  24.8623333
  50.8923302 186.6383362  24.4087467  50.5110779 187.5210724  24.7178135
  51.2895317 186.5525970  23.0264854  50.8755989 185.6537323  22.5695305
  50.6766205 187.7242584  22.3227177  51.0413055 188.6637878  22.7379265
  51.0882339 187.6380005  21.3171177  49.1688423 187.6916656  22.3283081
  48.3756790 186.5085144  21.9209862  48.9711533 185.6592102  21.6201496
  46.9682617 186.4521790  21.9296551  46.4670906 185.5752411  21.5472603
  46.2745781 187.5894012  22.2931957  44.9391060 187.6627960  22.1942654
  44.5641289 186.8687439  21.8063736  46.9888229 188.7289429  22.7185535
  46.4836693 189.6214905  23.0570259  48.4034843 188.8036041  22.7907600
  48.8184128 189.7059784  23.2149563  52.7876396 186.4662170  22.8064270
  53.1903419 185.8400574  21.8557072  53.6694221 186.9227142  23.7773075
  53.2290802 187.6135254  24.3680668  55.1462326 186.7200165  23.8092175
  55.5285606 187.2641144  22.9455795  55.7647324 187.4297180  25.0313587
  55.5012817 186.8404388  25.9096737  56.8473434 187.3733368  24.9179020
  55.2670898 188.7887421  25.0861282  55.8108215 189.3170013  25.6751137
  55.4704475 185.2407990  23.7017822  56.3131065 184.9202881  22.9015942
  54.6247444 184.4241486  24.3754292  53.8205948 184.9256287  24.7246666
  54.6298485 182.9395752  24.5438251  55.6995773 182.7467499  24.6250477
  53.9024925 182.4345093  25.8587494  52.8240776 182.5342865  25.7356129
  54.0400848 181.3537445  25.8924332  54.3490486 183.1885986  27.1580963
  53.9756966 184.2092743  27.0749359  53.7246208 182.6513824  28.4115105
  54.1185760 181.6474152  28.5693874  53.9911499 183.3434753  29.2103119
  52.6506920 182.6550293  28.2250557  55.8344955 183.1589508  27.4284000
  56.3452454 183.7419739  26.6620235  56.0926933 183.6636810  28.3593616
  56.2107697 182.1413879  27.3230953  54.1811867 182.1772919  23.3332920
  54.3398628 181.0027924  23.3213100  53.6861382 182.8964996  22.2668686
  53.6134071 183.8823395  22.4740372  53.3895226 182.3975372  20.9226894
  53.7898102 181.3838348  20.9396896  51.8242416 182.2586823  20.8030071
  51.4068413 183.1407623  21.2886066  51.4393272 182.2552643  19.7832375
  51.1865578 181.0900726  21.4603691  50.6391106 181.2888031  22.7360592
  50.7326241 182.2642059  23.1901970  49.9214134 180.2864838  23.3872738
  49.4611473 180.5253448  24.3346367  49.7612114 179.0221863  22.7837563
  49.0319595 178.0362396  23.4210625  48.9431725 178.1832428  24.3655777
  50.3170052 178.8024445  21.4884338  50.0916023 177.9595184  20.8519783
  51.0455322 179.8424377  20.8580742  51.2908211 179.7585144  19.8096504
  54.0429344 183.2028809  19.7427254  54.0410309 182.6791687  18.6625366
  54.5230865 184.4395142  19.9075680  54.4595222 184.9031219  20.8026257
  55.1723251 185.1900787  18.8534145  54.5083046 185.2402344  17.9904709
  55.3298721 186.5830231  19.4960117  54.3490868 187.0402527  19.6268311
  55.8243332 186.4232178  20.4541702  56.2797203 187.4462738  18.6347160
  56.1726685 187.4415588  17.3946075  57.1324234 188.1770325  19.2526188
  56.5560532 184.5802917  18.4016552  57.4327621 184.2651978  19.1678696
  56.6371994 184.3008575  17.0865173  55.8950500 184.6974335  16.5279083
  57.8255539 183.6278992  16.4633427  57.9184761 182.6327972  16.8983307
  57.6313019 183.5113373  14.8999434  57.9350853 184.4261169  14.3910351
  58.4096870 182.8315735  14.5533276  56.6692162 183.0787354  14.6254511
  59.1146202 184.3892670  16.7226219  60.1714668 183.7480011  16.8958626
  59.1007538 185.7524872  16.8080330  58.1820526 186.1650696  16.8846512
  60.4131432 186.4865417  16.9790688  61.2051468 186.0771027  16.3520203
  60.2332306 187.9599152  16.5707111  59.4650536 188.3845673  17.2169952
  61.1546783 188.5048370  16.7758617  59.7387772 188.1601105  15.1172886
  58.8047981 187.6247864  14.9463234  59.6072044 189.2406921  15.0612402
  60.8635597 187.6869659  14.1305084  62.0886612 187.7110443  14.2925186
  60.4228058 187.2626953  13.0421457  60.8727646 186.3923950  18.4316387
  62.0545731 186.1211243  18.7517242  59.9311256 186.4882050  19.4165440
  58.9749413 186.6539154  19.1366196  60.2975845 186.3724518  20.7876606
  61.2536392 186.8753815  20.9329586  59.1382179 186.8058472  21.5936031
  58.2707558 186.2178345  21.2938671  59.3910713 186.7732544  23.1185360
  60.2492104 187.4279633  23.2704372  58.5526276 187.2695923  23.6071758
  59.4050140 185.7456970  23.4819145  58.7498970 188.2006378  21.3653679
  58.2225876 188.0984497  20.5696926  60.6980705 184.8803101  21.0762577
  61.6975250 184.6213989  21.6789742  59.9248428 183.9340973  20.5293980
  59.1329880 184.2056274  19.9643002  60.2833900 182.4949036  20.5871124
  60.3975868 182.1200714  21.6042442  59.1221352 181.5919037  20.0870686
  59.0305023 181.8677368  19.0365334  59.5177383 180.5762939  20.0985184
  57.7429886 181.6827545  20.7957458  57.3897171 182.6771393  21.0686779
  56.7036209 180.9860535  19.9707832  57.1594963 180.1856689  19.3879776
  55.9313965 180.6589203  20.6670227  56.1860466 181.6636658  19.2917709
  57.9464073 180.9371185  22.1390953  58.5088730 181.5420074  22.8503170
  56.9959373 180.7005920  22.6173840  58.4353676 179.9671631  22.0485039
  61.6397820 182.0993652  19.9225159  62.2471542 181.0922852  20.3291512
  62.1180458 182.8769379  18.9222164  61.6124496 183.6764526  18.5683250
  63.4622612 182.6587982  18.3766079  63.6731911 181.5895233  18.3605595
  63.6159897 183.2012177  16.9844646  63.2985458 184.2423248  16.9257126
  64.6825638 183.2501678  16.7650719  62.9897537 182.3111420  15.9074688
  63.5407066 181.3711090  15.8779621  61.9203606 182.1351776  16.0238113
  63.0016479 182.9559631  14.2458315  64.7388611 183.0289001  13.9150734
  65.2902527 182.1544495  14.2606163  64.9564590 183.1388702  12.8526917
  65.2095642 183.8694153  14.4250402  64.5847549 183.2989502  19.2013378
  65.5923004 182.6335144  19.4714966  64.3425980 184.4744415  19.7475262
  63.4882469 185.0055695  19.6575851  65.3358688 185.0720520  20.6745739
  66.2694778 185.2147827  20.1304169  64.8601151 186.4865112  21.1608505
  64.4357910 186.9470215  20.2686710  64.1263123 186.3164673  21.9487095
  66.0123215 187.3332062  21.8005924  65.5375671 188.1796570  22.2968216
  66.5046234 186.7853546  22.6040859  67.1320419 187.6829987  20.7438011
  66.9944382 187.3668671  19.5606155  68.2436905 188.2399750  21.0760784
  65.6491013 184.2983093  21.9518414  66.7907181 184.1435394  22.4094639
  64.5798340 183.7473755  22.6289406  63.6170044 183.8419342  22.3389053
  64.8711472 182.8692322  23.8052330  65.3928299 183.4026642  24.5998363
  63.5190392 182.3720551  24.3147221  62.8870773 181.9594269  23.5282974
  63.6292877 181.5614166  25.0349941  62.6022720 183.5190277  24.8947697
  63.0969582 183.9246368  25.7772999  62.5238457 184.2800598  24.1183834
  61.2382965 182.9769440  25.3656673  60.5082970 183.7575226  25.5798664
  60.8713188 182.3771667  24.5327797  61.4655838 182.1522980  26.5892868
  62.4098587 182.1191101  26.9461422  60.5383873 181.3778381  27.0914707
  59.2754402 181.3960876  26.6621914  58.9448051 182.2260895  26.1911583
  58.6747055 180.6234894  26.9117775  60.7201767 180.7230835  28.2055016
  61.4961700 181.0174866  28.7810478  59.9150963 180.4098816  28.7288132
  65.7979355 181.7317047  23.4197388  66.7019806 181.3851624  24.1648464
  65.5801544 181.1139069  22.2301979  64.7767715 181.4317322  21.7070618
  66.3776474 179.9721222  21.6932697  66.4645386 179.2893524  22.5384808
  65.7580643 179.2480621  20.4738331  65.4146500 179.9347382  19.7001095
  66.7109070 178.2173920  19.9258022  66.9894714 177.5774384  20.7630482
  66.0829849 177.7296600  19.1801872  67.5404129 178.7409668  19.4505348
  64.5368881 178.4164124  20.9170265  63.6563034 179.0438385  21.0548782
  64.2282867 177.7802734  20.0874538  64.7650604 177.7586212  21.7556953
  67.7849121 180.4909363  21.4287586  68.6955643 179.8838806  21.9754028
  68.0057144 181.6408234  20.7219772  67.2323380 182.0714111  20.2355766
  69.3610382 182.2141418  20.5334187  69.9627838 181.5228119  19.9434414
  69.3454285 183.5289764  19.7482319  68.5743332 184.1594391  20.1909828
  70.3060150 184.0225220  19.8958015  69.1421280 183.5299835  18.2548714
  70.0010300 183.0038757  17.8382320  68.2037430 183.0157013  18.0473804
  69.0171738 184.9550781  17.8418713  68.2719955 185.5254669  18.3963661
  70.0153351 185.3883057  17.9057236  68.5935974 185.0677643  16.3784618
  69.1493454 184.3204956  15.8120384  67.5265503 184.8579254  16.3043995
  69.0348053 186.4160461  15.8940210  70.0140991 186.5816040  16.0775490
  68.8781204 186.4753265  14.8980112  68.5900955 187.2243805  16.3050270
  70.0991211 182.4538574  21.8216190  71.3054733 182.1936798  21.9125080
  69.3728180 182.9143066  22.8719044  68.4969940 183.3901215  22.7087345
  69.9572296 183.1991272  24.2071667  70.8123932 183.8597412  24.0644665
  68.8513794 183.9649658  24.9880161  68.3678436 184.6256256  24.2684155
  68.1016846 183.2912750  25.4029598  69.5195465 184.8325958  26.0814171
  70.0755920 184.1911163  26.7650967  70.1750488 185.5576782  25.5990486
  68.4947357 185.7281799  26.8790417  69.0518875 186.2566071  27.6526413
  68.1210327 186.4548035  26.1576042  67.4005890 184.9293976  27.4722767
  67.6473389 183.9923859  27.7572517  66.2023849 185.3256378  27.8631897
  65.7667847 186.6108704  27.6994286  66.3852997 187.2266083  27.1910973
  64.8348007 186.8876953  27.9730721  65.3787994 184.4523926  28.4245415
  65.7666855 183.5408478  28.6213703  64.5978775 184.7953186  28.9655190
  70.4286041 181.9297943  24.9412956  71.2979279 182.0811920  25.7449551
  69.9142914 180.7261963  24.5606060  69.0847015 180.6441803  23.9903851
  70.5973282 179.4824677  24.9495392  71.0246201 179.5966949  25.9457703
  69.5249023 178.3794403  25.1080055  68.7931290 178.5914154  25.8875408
  68.9707794 178.2187805  24.1832199  70.0587006 177.0168152  25.6193485
  69.3339539 176.2150879  25.4777107  70.8950348 176.7268524  24.9832954
  70.4813232 177.0722961  27.0760002  69.6568069 176.9788818  27.9569817
  71.7783813 177.0047607  27.3131542  72.0083466 176.9971008  28.2965984
  72.4316254 176.9945374  26.5429173  71.7255173 179.0254211  24.0053024
  72.8160629 178.6578369  24.4389133  71.5065842 179.1955109  22.6571274
  70.6254883 179.5896301  22.3597317  72.5210953 178.6958923  21.6697903
  72.6693497 177.6567993  21.9637356  72.0077591 178.8977203  20.2176762
  71.9823456 179.9804077  20.0942574  72.7715988 178.3829346  19.6348839
  70.6652603 178.3998413  19.7891636  69.9084625 178.8282623  20.4462910
  70.3390503 178.8563232  18.4089241  71.1531982 178.4348907  17.8193054
  69.3426132 178.5478210  18.0926361  70.3268280 179.9318085  18.2319984
  70.6608658 176.8724365  19.8487186  71.0098114 176.4243927  20.7790985
  69.6644669 176.4682617  19.6700020  71.3581848 176.6007538  19.0562344
  73.8739395 179.5044708  21.8515263  74.9256439 178.9438324  21.5922489
  73.7855148 180.7675018  22.2262917  72.8826447 181.1879730  22.0585747
  74.9470978 181.6312408  22.4482822  75.5381699 181.5592346  21.5352898
  74.5369873 183.0907593  22.5996857  73.6053696 183.1884460  23.1570415
  75.2229919 183.5572968  23.3066921  74.5352325 183.9128418  21.3271732
  75.7310562 184.3139038  20.6923332  75.2786407 184.9198914  19.5281658
  75.8438873 185.4924774  18.8077278  73.9046249 184.9410095  19.4872818
  73.3958893 185.3170471  18.6999569  73.4239578 184.2515411  20.6028004
  72.4033585 184.2075195  20.9532795  75.9316788 181.1268158  23.5226784
  77.0970154 181.4443207  23.4713898  75.4243927 180.3319244  24.4888344
  74.4751892 179.9890594  24.4491386  76.2564697 179.5736237  25.4318199
  77.1506119 180.1737366  25.6006088  75.4484634 179.3800964  26.7451973
  74.4035416 179.1046600  26.6024971  75.8529053 178.5066376  27.2566528
  75.4602203 180.5424042  27.6972885  76.4786682 180.9192505  27.6032829
  74.7758331 181.3398895  27.4079514  75.2197495 179.9852905  29.1853352
  75.9547424 180.2228699  30.1555977  74.1947174 179.3044434  29.3720684
  76.7771606 178.2619629  24.8941860  77.7136078 177.6974640  25.4508362
  76.1895752 177.6778107  23.8195133  75.5684128 178.1989441  23.2172794
  76.7973175 176.5036926  23.1647472  77.2719727 175.9408112  23.9684677
  75.6721039 175.5946808  22.5764160  75.1847458 176.2517700  21.8561268
  76.1346054 174.6872864  22.1880417  74.6249390 175.0728302  23.4928608
  74.8643570 174.7165833  24.7611523  75.7775345 174.9353943  25.2946663
  73.7885513 174.0140686  25.2871418  73.7809677 173.6090851  26.2123623
  72.7629471 173.8701477  24.3631935  71.5317459 173.2200165  24.4259357
  71.1847763 172.7150116  25.3153095  70.7386475 173.2150726  23.2565079
  69.8032074 172.6764069  23.2912712  71.2960815 173.6732178  22.0389557
  70.7785721 173.5323181  21.1015472  72.5087357 174.3604279  22.0339260
  72.8259583 174.8145142  21.1067886  73.2768478 174.4879456  23.1989689
  77.8602982 176.8604889  22.1002426  78.7235947 176.0380554  21.8104477
  77.8794785 178.1201324  21.6305904  77.1255722 178.7515411  21.8608913
  78.9012070 178.6280365  20.7717934  79.7839432 177.9973450  20.8772125
  78.3999557 178.5137024  19.3702374  77.8363571 177.5901031  19.2382259
  77.6510391 179.2823029  19.1792831  79.4881973 178.7221527  18.3650856
  80.6402512 179.0733337  18.7075386  79.2366943 178.4516144  17.1503811
  79.2668152 180.1366119  21.0833168  78.7034378 181.0635376  20.5319366
  80.1585312 180.3139648  21.9878216  80.5209427 179.4250641  22.3018608
  80.5384521 181.6640778  22.4812737  79.5861206 182.0888672  22.7986450
  81.4388275 181.4924622  23.7614498  82.4177170 181.0757294  23.5243378
  81.5835419 182.4832001  24.1922417  80.8821487 180.6451263  24.9072475
  81.3049088 181.1145477  25.7955208  79.7923584 180.6265411  24.9179935
  81.4364700 179.1655121  25.0036774  81.3504715 178.4844360  23.9527702
  81.8988190 178.7327881  26.0795650  81.1822510 182.5749969  21.4170456
  81.4102707 183.7712402  21.6495819  81.6621780 182.0353546  20.3108807
  81.4862823 181.0469360  20.2005253  82.2245026 182.7344360  19.2138100
  82.6617584 183.6937256  19.4907036  83.3964844 181.9507904  18.5858459
  83.0188522 180.9878998  18.2418308  83.8008804 182.4707489  17.7173901
  84.5144348 181.7498169  19.5994186  84.5890427 180.7176819  20.2698936
  85.4680176 182.6847992  19.6996975  86.2745895 182.5179596  20.2842522
  85.4459076 183.5414581  19.1651344  81.2415848 183.0343781  18.0117378
  81.6548004 183.5532684  16.9832401  79.9826889 182.5812378  18.1026039
  79.7690964 182.0628815  18.9427147  79.0171051 182.5790405  16.9839764
  79.4007492 182.0669098  16.1015701  77.7708054 181.8500824  17.4293499
  77.9489288 180.8517609  17.8290081  77.3505478 182.4221954  18.2564983
  76.6473465 181.6822510  16.3652172  77.1475983 181.9589691  15.4371653
  76.0436478 180.3365936  16.4163761  75.7062912 180.1901245  17.4424496
  75.1613846 180.3674774  15.7770300  76.8069000 179.5939941  16.1838226
  75.4776382 182.6586761  16.7009563  75.7417984 183.7161713  16.7047787
  74.7005081 182.4407196  15.9683828  74.9749298 182.4713898  17.6497936
  78.6254349 184.0187531  16.6111431  78.2399216 184.8093414  17.4124584
  78.6240997 184.1952667  15.2730875  79.1110916 183.4604034  14.7802124
  77.9634018 185.3256378  14.4737225  77.7046661 186.1515350  15.1363258
  79.0052032 185.7891998  13.3350573  79.1882019 184.9594574  12.6523094
  78.5965729 186.6412811  12.7918463  80.2830048 186.2778168  13.9241285
  80.0897446 187.1660156  14.5256691  80.5831528 185.5266266  14.6547050
  81.4770584 186.6157227  12.9879427  82.3705444 186.8790894  13.5540028
  81.5846558 185.7068787  12.3958740  81.1254196 187.8593750  12.0864296
  81.4575272 187.7302704  11.0563145  80.0474319 188.0205383  12.0782394
  81.8544922 189.0915985  12.5540476  82.8141174 189.1606903  12.2467299
  81.3820877 189.9459229  12.2950401  81.9499664 189.1477966  13.5579529
  76.6551132 184.9612274  13.9690666  76.5348663 183.8798981  13.3565588
  75.6210403 185.7516632  14.2437344  75.7769241 186.6315765  14.7144365
  74.1921463 185.3777924  13.8959866  74.0366135 184.4140167  14.3808012
  73.1904984 186.3878174  14.3354502  73.4421539 187.3871613  13.9803600
  72.2593842 186.1278992  13.8318787  72.8797455 186.4345551  15.8955927
  73.7197723 185.8713837  16.6126614  71.7824478 186.9327545  16.2844257
  73.9935455 185.0939484  12.3354492  73.0243835 184.4659119  12.0018673
  74.9035568 185.5454559  11.4777365  75.6319199 186.1473541  11.8345280
  74.9443054 185.4132690  10.0186367  74.0622940 185.8930817   9.5944328
  76.1430130 186.1308441   9.4826527  76.9931030 185.4953308   9.7307882
  76.1074219 186.2095337   8.3960781  76.2929993 187.5789948   9.9788189
  76.5709000 187.6574097  11.0298758  77.1008530 188.0779114   9.4434996
  74.9575729 188.2904968   9.7398758  74.4455185 188.3000488   8.5801811
  74.3549728 188.8775330  10.6744194  75.0286560 183.9075012   9.5505905
  74.7482224 183.6839447   8.3947964  75.4819717 182.9496307  10.4092522
  75.8194504 183.2623749  11.3083649  75.5036163 181.4861755  10.1004143
  75.6575851 181.3046875   9.0367088  76.5984955 180.8279877  10.8997097
  76.7853928 179.8177032  10.5356789  77.5565796 181.2958832  10.6733084
  76.1902771 180.8529968  12.3103542  76.7199097 180.1943817  12.7656622
  74.1334610 180.8026428  10.3535519  73.9288712 179.6770325   9.9747534
  73.3053436 181.4606476  11.1034164  73.5627975 182.3982086  11.3769522
  71.9179840 180.9766693  11.4442682  71.8120499 179.8972778  11.3356342
  71.5692139 181.2397156  12.8977823  71.8597488 182.2815399  13.0330868
  70.5076065 181.0770569  13.0838757  72.4450455 180.4561005  14.0166626
  73.4679947 180.8324738  14.0110626  71.9834213 180.7414856  15.4711609
  70.9346848 180.4608307  15.5686388  72.6304932 180.2291412  16.1831379
  71.9701004 181.8096008  15.6880302  72.4272079 178.9132385  13.7178917
  72.8918152 178.7419586  12.7468615  73.0013275 178.3360291  14.4426804
  71.4132309 178.5166473  13.7694607  70.8164291 181.6215668  10.5545015
  70.9404755 182.7639465  10.0581665  69.7212830 180.8517914  10.2809639
  69.5511017 179.3910065  10.3826447  69.1922684 179.2387085  11.4005575
  70.5015945 178.9231110  10.1262560  68.4530563 179.0401764   9.4037476
  67.9666824 178.1425171   9.7855072  68.9706955 179.0111389   8.4449425
  67.5890350 180.2990417   9.2539415  66.8112793 180.2709961  10.0171070
  67.2192154 180.2695160   8.2290201  68.5996399 181.4098816   9.5159969
  68.9900665 181.7973480   8.5749664  67.8021317 182.5294189  10.2271023
  67.7155228 182.5253754  11.4691706  67.2064209 183.3993073   9.4243937
  67.3233414 183.2466431   8.4328671  66.2414551 184.4877777   9.8747864
  66.5982132 184.6659088  10.8892298  66.4087448 185.7647095   9.0736160
  65.7738037 186.5668945   9.4497347  67.8378525 186.2658234   9.2789717
  68.6289444 185.6068726   8.9211092  67.9507828 187.2017212   8.7317572
  67.8870392 186.4746399  10.3476496  66.2828445 185.5122375   7.6877217
  66.5584106 186.2401123   7.1257124  64.7853699 184.0361786   9.9294167
  63.9866714 184.4849243  10.7390575  64.4183960 183.0463409   9.0557556
  65.0739670 182.6588135   8.3923159  63.0762863 182.4548950   8.8855610
  62.3685265 183.2644958   9.0636292  62.9212418 181.8266907   7.4774723
  63.3202972 182.4642944   6.6885943  63.4908066 180.8973389   7.4771452
  61.4598808 181.6922760   7.1661816  60.6200600 182.5250854   7.3895350
  61.1016045 180.4896393   6.6728396  60.1747704 180.3708344   6.2894740
  61.8334732 179.7946014   6.7103095  62.8178291 181.4452057   9.9749050
  63.6483917 180.5511017  10.1200762  61.7249336 181.5264130  10.7686148
  60.7930679 182.6703033  10.8184834  60.6065254 183.1918030   9.8796844
  61.1599007 183.4871979  11.4399366  59.6069565 182.0717163  11.5589466
  58.9075432 181.5466461  10.9083986  59.1526756 182.8604584  12.1586304
  60.1558838 181.1816101  12.6286793  59.4230118 180.3977203  12.8197947
  60.4819221 181.7349701  13.5093517  61.4452782 180.6690216  11.9410019
  62.2736435 180.7050171  12.6485415  61.2895508 179.1945496  11.6206207
  61.7748146 178.3029022  12.3508873  60.7481270 178.8696899  10.4248610
  60.4163475 179.6359406   9.8566427  60.6038246 177.4805145   9.9858704
  60.0116959 176.9452820  10.7281694  59.9124603 177.4363708   8.6158066
  60.4035072 178.2042389   8.0180035  60.0548363 176.1421204   7.8808718
  59.7862968 175.2604523   8.4628057  59.4997253 176.0453491   6.9478202
  61.0822334 176.1719055   7.5180058  58.3848419 177.6499939   8.6756544
  57.7985039 177.2422028   7.8522406  57.9958839 177.1767731   9.5772505
  58.0047035 179.1062927   8.6763401  58.5377426 179.6725006   7.9125533
  56.9301796 179.1925812   8.5149384  58.2642670 179.5611420   9.6322899
  61.9863815 176.8308563  10.0010662  62.1908989 175.8466949  10.7104006
  62.8760643 177.3913879   9.1986723  62.4959145 178.1612244   8.6667595
  64.2609787 176.9736786   9.0126514  64.2901993 175.9887390   8.5466747
  65.0241013 177.8839569   8.0552197  65.1398087 178.8716278   8.5015373
  65.9604034 177.3683929   7.8416004  64.3029480 178.1557312   6.7112308
  63.0542679 178.3962250   6.6563053  65.0274429 178.1862640   5.6858449
  65.0976944 176.8059998  10.2569094  65.8043976 175.8332367  10.4301720
  64.9813004 177.8162537  11.1454201  64.3642578 178.5495758  10.8266792
  65.6307526 177.9548035  12.4024115  66.7058792 177.7776489  12.3735933
  65.3901138 179.3703308  12.9100742  65.7507629 180.0379181  12.1275320
  64.3296509 179.5829926  12.7747889  65.8836746 179.6436615  14.3132095
  65.0583572 179.2746124  15.3766279  64.0907974 178.8458252  15.1612749
  65.4300461 179.6306610  16.6680164  64.7905350 179.3893127  17.5041866
  66.6196213 180.3284454  16.8894844  66.9376984 180.5946503  17.8866615
  67.5098343 180.6107178  15.8005600  68.4885788 181.0039978  16.0324783
  67.1134491 180.2746429  14.5444641  67.7673111 180.3431091  13.6876173
  65.1402664 176.8533173  13.3362093  65.8401566 176.0810394  13.9114351
  63.8282700 176.6788483  13.4762869  63.1562233 177.3473053  13.1275549
  63.3184891 175.6231995  14.3062201  63.8557205 175.7170410  15.2499762
  61.8997574 175.8201599  14.6261969  61.5501251 175.2613525  15.4942894
  61.6904869 176.8510437  14.9118433  61.1433754 175.5154419  13.4524145
  60.9692154 176.3127136  12.9468088  63.7131958 174.2027740  13.8365641
  64.0761414 173.3107147  14.6443682  63.6563301 173.9738007  12.5047293
  63.1434479 174.6318665  11.9355173  64.1060028 172.7816467  11.8312492
  63.5070381 171.9763184  12.2564287  63.7771149 172.9080658  10.3014755
  63.9130745 173.9507141  10.0142832  64.5124664 172.3041229   9.7698536
  62.4438744 172.4396210   9.7942286  61.6940994 171.4218597  10.4127932
  62.0219002 171.1355743  11.4012203  60.5168571 170.9118500   9.8326540
  59.9007759 170.1922455  10.3513002  60.1027222 171.4348145   8.6007195
  58.8834686 171.0402374   8.1100378  58.6110725 171.8249817   7.6288042
  60.8461189 172.4062500   7.9031897  60.4491692 172.6983032   6.9421816
  62.0106087 172.8826904   8.5268211  62.6525192 173.5535431   7.9751768
  65.5595779 172.4751282  12.1613750  65.8464432 171.3785400  12.6601810
  66.4932861 173.4210052  12.0360060  66.2512207 174.3046417  11.6109343
  67.9212265 173.2885132  12.4338713  68.4155960 172.4930725  11.8762360
  68.6395493 174.6892395  12.2275391  68.5889282 174.9688110  11.1752157
  68.1582031 175.5257111  12.7342367  70.0934753 174.6856232  12.6342697
  70.4967041 175.6783600  12.4342527  70.2063370 174.4678650  13.6963158
  70.9850159 173.7677765  11.7135735  71.9420013 173.7639923  12.2353554
  70.6514816 172.7310333  11.6688356  71.0863266 174.3767090  10.3737345
  70.3354721 174.0833130   9.7652626  72.0082550 175.2827606   9.9448948
  72.9803848 175.8226471  10.7033129  72.9938583 175.5749664  11.6823816
  73.6630783 176.4504547  10.3034544  72.0716248 175.6294708   8.6979427
  71.4937286 175.1373596   8.0316410  72.8280640 176.2479553   8.4422293
  68.0303345 172.8267212  13.9655914  68.8033905 171.9033051  14.2739525
  67.2446213 173.3416138  14.8834276  66.6780243 174.0659637  14.4658327
  67.3436279 173.1235962  16.3301411  68.3946075 172.9524231  16.5630379
  66.9680557 174.3874512  17.1459198  66.0469818 174.8193970  16.7545910
  66.8671494 174.2025452  18.7236729  67.8570938 174.1476288  19.1765385
  66.3224792 175.0634308  19.1113625  66.3494873 173.3202667  19.1001587
  67.9677048 175.5207825  17.0216656  67.9677200 175.6440582  15.9386578
  67.5209351 176.4151917  17.4558773  68.9673309 175.3529053  17.4225121
  66.6722336 171.7652588  16.7159672  67.2443237 171.0178833  17.5008926
  65.4738388 171.4593506  16.1401520  65.1054535 172.1616821  15.5147600
  64.8553162 170.1150513  16.2184906  64.6957855 169.8205566  17.2557640
  63.4259529 170.1196747  15.6213675  63.5291710 170.5716248  14.6348572
  63.0015793 169.1186371  15.5443821  62.7245064 170.7187805  16.2020073
  65.7921448 168.9905396  15.6008472  65.8407898 167.9376984  16.2644844
  66.4895477 169.2548981  14.4917936  66.3288269 170.1312408  14.0161057
  67.5038757 168.3709106  13.9670143  67.0101395 167.4279022  13.7323551
  68.0638428 168.9711304  12.6694326  68.3151093 170.0237274  12.7998037
  69.0218887 168.4671478  12.5418634  67.4263458 168.8464661  11.7941332
  68.5281982 168.1765289  15.0689287  68.8062057 167.0576477  15.4887810
  69.1434402 169.2623749  15.5677538  68.9145432 170.2116547  15.3097506
  70.3371658 169.0708313  16.4353027  70.7171707 168.1057129  16.1003075
  71.4161530 170.0783539  16.1457825  72.3288269 169.8321991  16.6884995
  71.7804794 169.9230194  15.1302776  70.9169464 171.7119751  16.4234886
  70.0888062 171.8768311  15.3881655  70.1449814 168.9166107  17.9200096
  71.1031265 168.6688538  18.6599274  68.9170761 168.9485168  18.4790363
  68.1301270 169.2152252  17.9048500  68.6228485 168.7330322  19.8678570
  69.2856369 169.3683472  20.4554024  67.1532059 169.1213074  20.1142807
  66.5927582 168.9356995  19.1980152  66.7551041 168.4043732  20.8323460
  66.8791733 170.5691986  20.5418034  67.4771805 171.2361603  19.9207993
  65.4175644 170.9068298  20.6337376  64.9168320 170.3805542  21.4463863
  65.3635941 171.9701843  20.8671665  64.9994278 170.6832428  19.6522770
  67.4574890 170.7631531  21.9957161  68.5455933 170.7416077  21.9351273
  67.0706482 171.7200470  22.3461781  67.1264954 169.9671021  22.6626759
  68.8091202 167.2498016  20.3860435  68.4160080 166.2807617  19.7104187
  69.4186707 167.0103149  21.5111160  70.0677338 168.0800934  22.2869778
  69.3184662 168.7234802  22.7482338  70.7486420 168.6590424  21.6630554
  70.8772049 167.3998108  23.3642578  70.2349319 167.2770844  24.2363358
  71.7520218 168.0052338  23.6014481  71.1673660 166.0378723  22.8503017
  71.3708344 165.3397064  23.6622601  72.0195007 166.1288300  22.1767387
  69.9354095 165.7199097  22.0238419  70.2028122 165.0594635  21.1989765
  68.8405685 164.9568176  22.8257885  68.7172318 164.9885712  24.0793877
  67.9009628 164.1999512  22.1105442  67.9241409 164.0937958  21.1064072
  66.6828308 163.5358887  22.7175770  66.8923035 163.3291473  23.7670918
  65.4784927 164.4820251  22.6005764  64.5350876 163.9390259  22.5435963
  65.2620621 165.3209381  23.8476009  65.9500351 166.1654205  23.8881474
  64.2286682 165.6667633  23.8723164  65.3602295 164.7315674  24.7592525
  65.4952164 165.3263245  21.2814770  66.2552948 166.1004028  21.3873062
  65.7245560 164.6777191  20.4360123  64.1176910 165.8570251  20.9543743
  63.7285843 166.5340881  21.7148247  64.2057266 166.4535828  20.0463734
  63.4383011 165.0209503  20.7885265  66.4387207 162.2345734  22.0943050
  67.0350342 161.8974762  21.0467415  65.7065659 161.4124603  22.8510971
  65.2627029 161.7615204  23.6884975  65.3774414 160.0075226  22.4612160
  66.2920609 159.5182953  22.1261787  64.8384781 159.2967987  23.6775265
  64.5752106 158.2540894  23.4998589  65.6217041 159.3123779  24.4354267
  63.6827049 159.9221802  24.2636967  63.8407440 160.9686737  24.9220505
  62.5195084 159.4059143  24.1621742  64.3813477 159.9777222  21.2645454
  63.8330040 160.9868622  20.8520355  64.2182159 158.7691650  20.6698322
  64.7402191 157.9925995  21.0500584  63.4208565 158.6752472  19.3886013
  63.8062782 159.4381561  18.7121944  63.7297020 157.3827667  18.6164188
  63.3875656 156.5207062  19.1890488  63.3465157 157.3107300  17.5985374
  65.1911850 157.2062531  18.4046288  65.8093338 158.1478729  17.8042641
  65.7642441 156.2063293  18.8939915  61.8830109 158.9390411  19.4218655
  61.2195244 159.6158142  18.6498623  61.2734070 158.5375671  20.5983791
  61.7839661 158.1299744  21.3686371  59.8322563 158.7626495  20.7935028
  59.3205872 158.3201141  19.9388294  59.4390526 157.8924713  21.9995842
  59.9317894 158.2327271  22.9103794  58.3666420 157.8654327  22.1927185
  59.7575569 156.8625031  21.8388996  59.4642525 160.2781830  20.9724541
  58.5478096 160.7430420  20.2547474  60.3786392 161.0814819  21.5816193
  61.1946068 160.6789398  22.0200920  60.4184952 162.5460815  21.6039848
  59.3581848 162.7046356  21.8007202  61.2101517 162.8942108  22.8779392
  60.7311974 162.3547516  23.6950645  62.2509804 162.5851898  22.7815857
  61.1262360 164.3868866  23.2365360  61.7606850 165.0445557  22.6423645
  59.7006569 164.9185638  23.3544674  59.1226730 164.2473145  23.9896393
  59.6774750 165.8971100  23.8340721  59.3065796 165.1403503  22.3626919
  61.6566925 164.4322052  24.6890106  62.6123314 163.9332886  24.8500385
  61.7937088 165.4893036  24.9167385  60.9071159 164.1226501  25.4173069
  60.7945900 163.2498016  20.3335876  60.0807266 164.2083893  20.0155697
  61.7247658 162.7770844  19.5311642  62.1382675 161.9650116  19.9666424
  62.0072937 163.2012787  18.1495037  62.0348587 164.2875519  18.0635967
  63.3724098 162.6553040  17.6573849  63.3572578 161.5654144  17.6540642
  63.5216064 163.0041656  16.6355534  64.4875946 163.2550507  18.5130768
  64.5485535 164.3374786  18.4001999  64.3064041 163.0217133  19.5622787
  65.8608704 162.7642670  18.1411877  66.5958557 163.1314850  18.8574581
  65.8068466 161.6821136  18.2599506  66.3778763 162.9683533  16.7218380
  66.3486786 162.1385956  16.1467152  67.1582794 164.0002899  16.3543625
  67.3375092 165.0547485  17.0678635  66.6913681 165.3085022  17.8014908
  67.8276749 165.8451538  16.6740379  67.8621979 163.9541473  15.2613544
  67.9920120 163.0768585  14.7780027  68.3759918 164.7597504  14.9340935
  60.8717079 162.8795471  17.1098080  60.6974411 163.7279968  16.2294884
  60.0196304 161.8467560  17.3215179  60.3094254 161.0992279  17.9357929
  58.7192001 161.6900635  16.7464199  58.8278923 161.8417969  15.6725140
  58.2425117 160.1752777  16.9848919  58.5890083 159.9556732  17.9947472
  56.7546692 159.9259186  17.1441078  56.2699890 160.2562714  16.2253780
  56.5337639 158.8665771  17.2749138  56.4868202 160.4318390  18.0716839
  58.7586288 159.2075806  15.8754978  58.1129036 159.2325287  14.9977064
  59.7121696 159.5639343  15.4857817  58.9487839 157.7277374  16.3570786
  57.9875450 157.2887421  16.6242809  59.2651138 157.1011810  15.5231342
  59.6531258 157.6482697  17.1851387  57.6711311 162.7265625  17.1762180
  56.9713249 163.2711639  16.3039341  57.4421768 162.9098511  18.4891758
  57.8822174 162.2846527  19.1491680  56.4967728 163.9024658  19.0264816
  55.4919128 163.5961456  18.7357502  56.4253044 163.9488525  20.6168995
  57.3852692 164.1569977  21.0893860  55.7520905 164.7550354  20.9083557
  55.9184875 162.6829987  21.3476734  56.4698410 161.8013153  21.0209618
  56.1333084 162.8435974  22.4041595  54.4571381 162.2778015  21.1326408
  53.7691498 162.6171417  20.1785278  53.9589691 161.5680237  22.0794258
  53.0863380 161.0885468  21.9099598  54.4662285 161.3045654  22.9121170
  56.8579063 165.2755280  18.4766731  55.9912033 166.0045319  18.0915508
  58.1236725 165.6698456  18.4617996  58.7536774 165.1690216  19.0720177
  58.6345558 166.9620056  17.9219208  58.0980835 167.7624512  18.4314251
  60.1115952 167.1685028  18.3406544  60.2007103 166.8864746  19.3897572
  60.7331963 166.5226440  17.7205200  60.6710510 168.5686951  18.1380138
  60.7053909 168.7296753  17.0605087  59.7807350 169.6946259  18.6864719
  59.6045380 169.5425110  19.7513237  60.2391472 170.6748962  18.5559902
  58.8576889 169.7781830  18.1127872  62.0226212 168.7426605  18.7723999
  62.7502556 168.0511475  18.3475819  62.3607292 169.7731781  18.6637096
  62.0082474 168.5966949  19.8524876  58.4771538 167.0384216  16.4054279
  58.0336571 168.0689087  15.9121408  58.9248085 166.0314484  15.6655989
  59.3745461 165.2582703  16.1346626  58.7516823 165.9038696  14.1894131
  59.3128242 166.7218323  13.7375727  59.3094673 164.5857697  13.6535940
  60.3958130 164.6723938  13.6748247  58.8386459 163.8519287  14.3077297
  59.1123810 164.0173187  12.2206736  58.0415916 163.8586121  12.0929461
  59.7068367 164.9247284  11.2183590  60.7725945 165.0704193  11.3945141
  59.5607452 164.5982666  10.1887054  59.3079987 165.9383087  11.2592115
  59.9792671 162.7199707  11.9984922  59.6486855 161.9286957  12.6713266
  59.8826294 162.2865601  11.0030451  61.0322380 162.8820648  12.2288723
  57.2807159 166.0892487  13.8447685  57.0262833 166.5052185  12.7129354
  56.3271027 165.6244965  14.6276083  56.5779266 165.1976929  15.5079594
  54.9063759 165.7121277  14.2744598  54.6860695 165.2834778  13.2967949
  54.0737343 164.9492188  15.3493795  54.5654716 165.0907440  16.3118057
  53.1161995 165.4323578  15.5438118  53.6829834 163.4708405  15.1356182
  53.1850014 163.2992401  14.1813316  54.5557861 162.8237915  15.0481472
  52.7069016 163.0463104  16.3280716  53.2769356 162.9848480  17.2551022
  52.0067711 163.8171539  16.6501064  51.9712372 161.7204742  15.9964819
  51.5739326 161.8552094  14.9904528  52.7525406 160.9777985  15.8349123
  51.0084801 161.4456329  17.0005741  50.2827454 162.1462250  16.9496841
  50.5802650 160.5730286  16.7262039  51.4307594 161.3382111  17.9117508
  54.3863831 167.1356964  14.1042967  53.2747269 167.3459930  13.5198097
  55.0090332 168.0591278  14.9395847  55.9175072 167.8417511  15.3236694
  54.3963470 169.3220825  15.3761883  53.3911247 169.1526337  15.7620878
  55.2608299 170.0590057  16.4305630  56.2619553 170.3183136  16.0861683
  54.5831795 171.3975677  16.7422276  53.5021019 171.3720551  16.8790417
  55.0211830 171.8144836  17.6491032  54.7099648 172.1372681  15.9517460
  55.4478798 169.2119141  17.6955833  56.0164223 168.3399506  17.3722687
  56.0559883 169.8562317  18.3305435  54.1060562 168.9149475  18.4178715
  53.4449272 168.3020172  17.8052292  54.3729973 168.2947693  19.2735710
  53.6101074 169.8114166  18.7900162  54.2846718 170.2701874  14.1238308
  55.1770363 170.2676544  13.2616339  53.1324310 170.9606018  13.9499769
  52.4807625 170.9872742  14.7211580  52.6322937 171.4721985  12.6327038
  52.8722954 170.7430573  11.8588438  51.5502510 171.4737549  12.7641563
  53.1499290 172.8806152  12.3237419  53.6814613 173.0580902  11.2391701
  53.0506439 173.8343201  13.2941341  52.6542473 173.5131836  14.1658239
  53.6756287 175.1624756  13.1041460  53.8387642 175.3216095  12.0382357
  52.7958183 176.2323608  13.6893253  51.8773003 176.4612579  13.1489267
  52.5907326 175.8713226  14.6971464  53.4352531 177.5218506  13.6528101
  53.0557671 178.0521698  12.9482832  55.1203613 175.1934357  13.5863104
  55.3674622 174.5077972  14.6009064  55.8969803 176.1895599  13.1099358
  55.6269836 176.7424927  12.3090239  57.1200829 176.6393890  13.7769060
  57.7772522 175.7744446  13.8668976  57.8761635 177.6663666  12.9296904
  57.1745224 178.3002930  12.3875284  58.5902481 178.2887726  13.4689550
  58.2607079 177.1652374  12.0413828  56.8592911 177.2167358  15.2073126
  57.7370453 177.0782013  16.0596256  55.7041168 177.8504333  15.4050188
  55.1316185 178.0667267  14.6015501  55.4005203 178.3810272  16.7238235
  56.1871986 179.0813293  17.0045586  54.1328011 179.2511597  16.7245770
  53.3998985 178.5683899  16.2947216  53.6468353 179.5892334  18.1623688
  54.4272537 180.1165161  18.7110195  52.7625046 180.2259521  18.1877308
  53.4515991 178.6954956  18.7550201  54.3206406 180.5083160  15.7960644
  54.9509468 181.2063141  16.3470764  54.8106880 180.2179413  14.8667459
  52.9879532 181.1542816  15.4519987  52.5919991 181.6449585  16.3411312
  53.1322403 181.9258728  14.6957350  52.3140984 180.3722839  15.1020164
  55.4190216 177.2405853  17.7633934  56.1758194 177.2902374  18.7047424
  54.5717926 176.2236481  17.5936222  54.0015602 176.1619110  16.7622833
  54.4663544 175.0801086  18.5288410  54.3691216 175.2678833  19.5981350
  53.4305916 174.1716919  17.8740044  53.8052330 173.9373932  16.8775902
  53.3131752 173.2543030  18.4508152  51.9951248 174.6794739  17.7122784
  51.5577927 174.6550140  18.7103977  51.9700966 175.7059479  17.3464451
  51.1542435 173.9778900  16.6477337  51.6230164 173.3110809  15.7503128
  49.8228645 174.1012573  16.6613541  49.2783051 173.5878448  15.9831543
  49.4372025 174.7978973  17.2826939  55.7693062 174.3730927  18.5760860
  56.2109489 173.9134979  19.6570225  56.4799118 174.1323395  17.4247494
  56.1648064 174.4263306  16.5113029  57.8248787 173.5234070  17.4760513
  57.6634941 172.5406952  17.9191742  58.2748108 173.2777710  15.9840784
  57.3253021 173.0273285  15.5109940  58.7200470 174.1809387  15.5667486
  59.2332916 172.0479126  15.8329344  60.2459831 172.2472076  16.1834145
  58.8769035 171.2341766  16.4645615  59.2277412 171.4656067  14.3984900
  59.9920006 170.6890106  14.4287338  58.2492371 171.0559540  14.1478577
  59.6995010 172.4734955  13.4168224  60.6009598 172.8965302  13.5856876
  59.0268707 172.8639374  12.3736725  57.8569489 172.4186096  12.0059299
  57.3665581 171.7217560  12.5481482  57.4060135 172.7957153  11.1846209
  59.5761070 173.7686920  11.6279573  60.4282951 174.2534790  11.8705635
  59.0185204 174.0159149  10.8229284  58.8156853 174.2449646  18.4124603
  59.3744431 173.5938263  19.2669678  58.9597664 175.5232849  18.3021317
  58.6158028 176.0678253  17.5241413  59.7607117 176.4361572  19.1998978
  60.7448387 175.9688416  19.2347507  59.7623672 177.8952789  18.7558804
  58.7105217 178.1697998  18.6761093  60.3039513 178.5591125  19.4297543
  60.3103485 178.2762756  17.3853550  60.1445847 177.5113068  16.6267719
  59.5803986 179.5156097  16.7675629  60.0457001 180.4112396  17.1791840
  59.7423515 179.5782623  15.6914835  58.5217781 179.5242310  17.0270844
  61.8486290 178.4334412  17.3931408  62.3158302 177.4644775  17.5690308
  62.2005959 178.8788605  16.4626465  62.1349602 179.1517944  18.1613121
  59.3950043 176.3285217  20.6703014  60.2431641 176.1782074  21.4833279
  58.1210480 176.3327179  20.9742165  57.4583435 176.3694000  20.2129173
  57.5389824 176.1193085  22.3025970  57.8884125 176.8253174  23.0559597
  56.0295677 176.2400818  22.1322060  55.6715279 175.7024841  21.2542000
  55.6094284 175.7781677  23.0256405  55.5199203 177.7336731  22.0695724
  55.7518730 178.1153564  23.0638638  56.0430908 178.2613983  21.2721424
  53.9627800 177.7568970  21.8859119  53.5964241 178.7833710  21.9005623
  53.6864777 177.3628540  20.9079037  53.3167076 176.9258881  22.9548569
  53.2693825 175.9486694  22.7040825  53.0279007 177.2713928  24.1432304
  53.1756401 178.4848633  24.5911674  53.4769173 179.1687317  23.9117107
  52.8407822 178.7602844  25.5033703  52.5109558 176.4373322  24.9746380
  52.2681313 175.4848633  24.7423935  52.3749504 176.7298737  25.9317284
  58.0041771 174.7924042  22.8952065  58.4872246 174.7203674  24.0374832
  57.9601555 173.7619934  22.0352840  57.5977287 173.8781586  21.0997353
  58.2847023 172.3963776  22.4300556  57.6311836 172.3131256  23.2984352
  57.7855644 171.4812927  21.3133698  56.7766380 171.7620850  21.0111828
  58.4110222 171.6563873  20.4380188  57.9596519 169.8665009  22.0554390
  57.6168213 169.1559601  20.9772472  59.8181801 172.2725525  22.6365700
  60.3127823 171.8518982  23.6663570  60.6474419 172.7745209  21.6526375
  60.2320786 173.0936737  20.7890854  62.1167717 173.0138092  21.8259315
  62.6962280 172.0912781  21.7903233  62.7142067 173.7756653  20.6362457
  62.0650902 174.6330261  20.4582520  63.7151451 174.1066742  20.9130955
  62.6839867 173.0082092  19.3140888  63.5284157 172.3193512  19.3369713
  61.8025780 172.3722229  19.2318420  62.6269379 174.0003967  18.1548557
  63.4214325 174.9685211  18.0385742  61.8195610 173.6715851  17.2700691
  62.4680786 173.7666779  23.1129971  63.3560486 173.3281860  23.9047966
  61.8147888 174.8557129  23.4673634  61.0921974 175.1671906  22.8341637
  62.0313988 175.5525208  24.7103214  63.0722733 175.8367462  24.8648987
  61.3273430 176.9334869  24.5685234  60.2579575 176.8494873  24.3749733
  61.3815536 177.4468536  25.5285320  61.9865150 177.8275146  23.5166664
  62.2834892 177.2465515  22.6435242  61.0551224 178.9364777  23.1187286
  60.7281342 179.6709595  23.8547497  61.6449394 179.4206238  22.3403873
  60.2255821 178.5039215  22.5593910  63.2111969 178.5729218  24.1393700
  63.9298859 177.8217621  24.4670162  63.7453995 179.2333527  23.4563313
  62.9413109 179.2283630  24.9674091  61.5617638 174.8423157  26.0014725
  62.1422119 175.0556183  27.0664959  60.5161057 173.9830933  25.9251461
  60.0191040 173.8899689  25.0508366  60.0558701 173.1882782  27.0562515
  59.9309692 173.8199310  27.9357529  58.6437416 172.6988068  26.7322807
  58.0658607 173.5969849  26.5145073  58.6712761 172.0890961  25.8291740
  57.9551125 171.9365692  27.8405228  58.5683479 171.7669220  28.9276104
  56.8807831 171.3763580  27.6073074  61.1617317 172.1080322  27.3490696
  61.7250099 171.9484253  28.4153366  61.6152382 171.4260406  26.2786999
  61.1497879 171.6750793  25.4176292  62.7660484 170.5262451  26.3050156
  62.4753571 169.7881927  27.0525932  62.9848175 169.7649841  24.9595985
  63.0804672 170.4733429  24.1366863  64.2005386 168.9109802  25.0351353
  64.1784286 168.1156464  25.7801647  64.4192963 168.3052368  24.1557484
  65.0322952 169.5692749  25.2859859  61.7173347 168.8890686  24.6633739
  61.7296791 167.9648132  25.2410622  60.8300705 169.4205322  25.0074749
  61.5251617 168.5329132  23.1737614  62.3004532 167.8244934  22.8819199
  60.4947624 168.2249756  22.9961243  61.7017174 169.4113770  22.5530930
  64.0590591 171.2196350  26.8547211  64.7189560 170.6805420  27.7500343
  64.5136337 172.3897247  26.3959904  64.0536499 172.7689514  25.5806942
  65.6524582 173.1629333  26.9438038  66.5393753 172.5296783  26.9223251
  65.9968262 174.4478302  26.1806202  65.1425400 175.1241913  26.1519127
  66.7733078 174.9716797  26.7380924  66.5184860 174.1481934  24.7192135
  67.5239105 173.7325287  24.7858810  65.7624588 173.4226837  24.4189377
  66.4847336 175.6478729  23.6027088  67.7628021 175.1405487  22.3644276
  67.3164215 174.8063354  21.4278736  68.3615265 176.0257263  22.1497555
  68.4252472 174.3880157  22.7921906  65.4526672 173.5762634  28.3992538
  66.4811249 173.7286987  29.1322670  64.2467499 173.8194733  28.8716412
  63.4104881 173.8474274  28.3059673  64.0817032 174.1269379  30.2990360
  64.8600998 174.8037262  30.6514053  62.6990929 174.6805115  30.6008015
  62.0865440 174.0879669  29.9212608  62.4618568 174.5035706  31.6498547
  62.5208435 176.1515198  30.2813168  63.4548302 176.9334259  30.3283768
  61.2995644 176.5366516  29.9595451  61.2616806 177.5036469  29.6704502
  60.5694542 175.8428650  29.8840256  64.3322220 172.8592834  31.1432743
  65.1259384 172.8186035  32.0749321  63.7149887 171.7279510  30.6986675
  63.0391045 171.8800201  29.9637165  63.5841827 170.3943939  31.4889774
  63.5033646 170.6245270  32.5513382  62.3157692 169.7573547  31.0701504
  62.2411880 169.8686676  29.9884186  62.3720932 168.6904144  31.2859497
  61.0635796 170.3549042  31.7471161  61.0672417 170.1641846  32.8202934
  61.0080070 171.4416504  31.6839809  59.8800240 169.7198029  31.0968208
  59.7459259 169.8695068  30.0255108  59.8077202 168.6331177  31.1412945
  58.6505775 170.3561554  31.7277756  58.4030418 169.9358521  32.7025414
  58.8052864 171.4215088  31.8985939  57.4745941 170.1495361  30.8854942
  57.4748306 169.2220917  30.4855595  56.6477280 170.3630371  31.4247646
  57.4540176 170.8529816  30.1610298  64.7344208 169.3838348  31.3423958
  64.7962799 168.4225311  32.1241760  65.5626526 169.5059509  30.3124962
  65.4224472 170.2090912  29.6011257  66.8349457 168.8102722  30.2040386
  66.7355576 167.8010254  30.6035862  67.2453003 168.7994995  28.6572552
  66.4254761 168.3424530  28.1030941  67.4910812 169.8206482  28.3657761
  68.7909546 167.9268188  28.4431496  69.1850433 168.4048767  27.2594891
  67.9400482 169.4054871  31.1712723  68.2387314 170.5937653  31.2372913
  68.6287003 168.5322113  31.9363766  68.3937454 167.5504608  31.9040718
  69.7497101 168.8359833  32.7724037  70.2636414 169.7631836  32.5188942
  69.4418945 169.0844421  34.2618866  70.4178619 169.2330322  34.7239571
  68.6593781 170.3735962  34.5939331  67.7982025 170.4661560  33.9321861
  68.4246902 170.4801636  35.6530190  69.3557053 171.1791534  34.3609085
  68.7639694 167.9544373  34.7830505  68.3067627 168.1965637  35.5917168
  70.8454514 167.7386169  32.6393661  71.8463974 167.9811554  32.0065002
  70.6414261 166.5197601  33.2315254  69.8244324 166.5229645  33.8253288
  71.4297409 165.3696899  33.1172943  72.4825592 165.6510010  33.0940781
  71.3207626 164.5512543  34.3906784  71.7703857 165.1006775  35.2177658
  70.2719040 164.4075012  34.6501617  72.0460129 163.2915649  34.3386421
  71.4060974 162.6742401  34.7005920  71.1879578 164.5108643  31.8157558
  70.1035080 164.4048004  31.3128967  72.1825867 163.7808533  31.3569088
  73.0538177 164.0779572  31.7725830  72.1262512 162.7368622  30.3020134
  71.1014252 162.3914337  30.1659336  72.6993408 163.2928619  28.9690762
  73.7571793 163.4550171  29.1759205  72.7536926 162.5374451  28.1851864
  72.0104294 164.5694733  28.4155769  71.7780762 165.3050690  29.1856441
  72.8645706 165.4277191  27.3866558  73.4271545 164.8577423  26.6472416
  72.2161407 166.1732635  26.9264355  73.7453384 165.8394623  27.8794193
  70.8057938 164.1524353  27.5699139  70.1914597 163.4040833  28.0705681
  70.1785126 165.0273132  27.3989811  71.1218643 163.7248077  26.6184254
  72.9874496 161.5276031  30.6481285  74.2038803 161.5120239  30.8178272
  72.1878891 160.4286652  30.9339294  71.1822433 160.5157318  30.9685917
  72.8572464 159.1862793  31.3580627  73.8562622 159.3761902  31.7505226
  71.9649658 158.6523590  32.5146179  70.9659424 158.3833160  32.1715813
  72.3680420 157.6755524  32.7819748  71.9708862 159.8428192  33.9236298
  71.2281570 158.9913940  34.6366005  72.9376068 158.0872192  30.2301807
  72.3791122 158.3048401  29.1239014  73.5476913 156.9522705  30.4970875
  73.9015884 156.8069611  31.4318295  73.5598755 155.7261047  29.6562443
  73.6819153 156.0622101  28.6265583  74.7103348 154.8097534  29.9249859
  75.6469116 155.3529968  29.7992687  74.6316681 154.5091095  30.9697456
  74.6923828 153.3416901  28.9076767  75.4446259 152.5748444  29.7020168
  72.1647491 155.0639496  29.7029114  71.6884537 154.8128662  30.8024502
  71.5582352 154.6685791  28.5626106  72.0795364 154.9222412  27.7355690
  70.2854691 154.0244751  28.4691296  69.5415802 154.6241302  28.9936695
  69.8889771 154.1221466  26.9919662  69.9698868 155.1421661  26.6162872
  70.6195374 153.5312805  26.4394588  68.4609985 153.6230011  26.6771259
  68.4683380 152.5836792  27.0055695  67.8024368 154.2505188  27.2776527
  68.1912537 153.5649719  25.1253891  69.0209351 152.9920197  24.7113152
  67.2920837 152.9507904  25.0768356  68.0059204 154.9491882  24.4514751
  67.2850876 155.4954529  25.0598202  68.9595261 155.4763947  24.4793415
  67.5263290 154.7485809  23.0208836  66.5623703 154.4504547  22.9760075
  67.4604645 155.5742950  22.4429817  68.1742401 154.1423340  22.5384140
  70.2603149 152.5799561  29.0279217  69.1981888 152.1273804  29.5381126
  71.3866882 151.8187103  28.9661446  72.1657104 152.1829071  28.4364338
  71.4467392 150.5174255  29.6412487  70.5473862 149.9959869  29.3135757
  72.5772705 149.6914978  29.1230240  72.4495544 149.5564880  28.0489864
  73.4729996 150.3081360  29.1974411  72.7622452 148.2739258  29.6668358
  73.1213455 148.4468842  30.6813488  71.8601379 147.6646881  29.6109314
  73.7651062 147.3990784  28.8513699  74.2203369 147.7281494  27.7636337
  74.0990982 146.2375946  29.3910294  74.8435669 145.6875916  28.9868584
  73.7424011 146.0043335  30.3066978  71.3325119 150.6005554  31.1156826
  70.6333389 149.8325958  31.7772636  71.9881744 151.5926514  31.7394867
  72.6408234 152.1747742  31.2342339  71.8946457 151.8723602  33.2133446
  71.9519272 150.9037170  33.7098618  73.1174927 152.7539673  33.5170174
  73.1210785 153.6922607  32.9623108  73.1401367 152.9362640  34.5914345
  74.6504059 151.9654388  32.9643860  74.7728043 151.1453857  34.0119629
  70.5935822 152.5683136  33.6768341  70.1221313 152.4524841  34.8171005
  70.1445999 153.3782654  32.7322464  70.5648193 153.3373413  31.8147297
  69.2381210 154.5319214  33.0011292  69.2257996 155.0782013  32.0579834
  67.8194656 153.9383698  33.3052979  67.8441086 153.4922943  34.2995377
  67.0975342 154.7539673  33.2638931  67.3450394 152.9023285  32.2796402
  67.6714249 153.2350159  31.2943020  67.9157562 151.9816589  32.4010468
  65.8750153 152.5151825  32.3488503  65.0563507 153.0400696  33.0372620
  65.5493164 151.4748688  31.5378647  64.5817184 151.1930237  31.4714031
  66.2118530 151.0408936  30.9111061  69.6621399 155.5835724  34.0147896
  69.4068298 156.7438202  33.6766129  70.4997177 155.3429565  34.9889145
  70.6432571 154.3725281  35.2292099  70.8495178 156.3454895  36.0374413
  70.3396301 157.2637482  35.7460403  70.3994598 155.9111176  37.4473648
  70.5599976 156.7005310  38.1816368  69.3281479 155.7145844  37.4053192
  71.0899658 154.6205902  38.0119972  71.7630692 153.9464264  37.2360458
  70.8955460 154.3022766  39.2128105  72.2854309 156.8489838  36.1948853
  72.5172272 157.7985077  36.9246864  73.2787399 156.1926880  35.5863800
  73.0319443 155.4813690  34.9131660  74.7208405 156.6274872  35.6069489
  74.9629364 156.7691650  36.6602364  75.5766678 155.4581909  35.1323471
  75.3302917 155.2040253  34.1014252  77.0340958 155.8064880  35.2715378
  77.3516312 155.7822571  36.3139763  77.6405334 155.0162048  34.8290672
  77.3475266 156.7342377  34.7928352  75.4252853 154.2909851  35.9210014
  75.3672333 154.5629120  36.8398514  74.8635864 157.8639984  34.7312469
  74.7241745 157.7572632  33.4924202  75.1958923 158.9979401  35.3402977
  75.1573792 159.0003967  36.3495598  75.4790115 160.2486725  34.6422920
  74.6626282 160.4908905  33.9618950  75.5804749 161.3885040  35.6784782
  74.6325760 161.3513184  36.2153206  76.3563919 161.1954193  36.4192734
  75.8063431 162.7293091  34.8901176  76.7041550 162.4966431  34.3175011
  75.0706558 162.9309845  34.1115341  76.0387726 163.9211426  35.8516960
  75.8932571 163.7762451  37.0849190  76.3933487 165.0232544  35.3555565
  76.6933136 160.0442810  33.7354393  77.7396927 159.6943359  34.1735764
  76.5676193 160.4233856  32.4443474  75.6772003 160.7666321  32.1135330
  77.6975479 160.5751190  31.5367012  78.6033707 160.2114410  32.0217896
  77.5189972 159.7367706  30.2545853  76.4700394 159.6627502  29.9677029
  78.3405609 160.3174744  29.0815735  79.3840256 160.4275513  29.3768044
  78.4234390 159.6599121  28.2162228  77.8974228 161.2524261  28.7386532
  77.9326019 158.2407684  30.3558445  77.7847443 157.8236694  29.3597164
  79.0109711 158.1526031  30.4879398  77.2529449 157.4003601  31.4036350
  76.1717606 157.3651276  31.2698364  77.7766800 156.4457245  31.4531898
  77.3477478 157.8571625  32.3887482  77.9638443 162.0590515  31.3481712
  79.1123657 162.5063629  31.4828529  76.9931793 162.8345184  30.9454384
  76.0432434 162.5200653  30.8081665  77.1958923 164.2513275  30.7173367
  78.0107880 164.5895538  31.3573685  77.6148911 164.4694366  29.2508163
  78.3903503 163.7614746  28.9583378  76.3952408 164.3187103  28.2953529
  75.5539093 164.9705048  28.5307999  76.6339340 164.5105743  27.2492580
  75.9835510 163.3102264  28.3351059  78.1349182 165.7979584  29.0327053
  79.0764465 165.7539978  29.2148781  76.0453339 165.1712799  31.0774384
  74.8890381 164.7493591  31.2719612  76.2919083 166.4654846  31.2734566
  77.1730957 166.8492737  30.9630947  75.3625412 167.5295410  31.8357391
  74.3768692 167.0811005  31.9600563  75.8836823 167.9778900  33.1399574
  75.9525909 167.0874176  33.7647820  77.2037125 168.7484131  33.1337509
  77.1112366 169.7195129  32.6474266  77.6504288 168.9251556  34.1121712
  77.9557953 168.1653595  32.6022301  74.9080200 168.8164368  33.7703247
  74.4787979 168.3567963  34.4956474  75.2123871 168.7029724  30.8203850
  76.0988464 168.8544464  29.9594059  74.1293488 169.4818268  30.9344578
  73.4983444 169.2307434  31.6820507  73.6917419 170.4442139  29.9732761
  73.4959259 169.9709778  29.0110912  72.3326263 170.9539337  30.4202194
  71.6283569 170.1955719  30.0781898  72.3113937 171.0064392  31.5087471
  72.0254288 172.3199158  29.7862682  72.7839279 173.0327759  30.1097240
  72.0833740 172.2096252  28.7034111  70.6138382 172.9061737  30.1082382
  69.9028091 172.2147369  29.6560535  70.5299606 172.8714905  31.1944542
  70.3529892 174.3410492  29.6023045  71.1479034 174.9850922  29.9783630
  70.2727051 174.3666382  28.5155659  69.0364990 174.8550873  30.1579514
  68.8581390 174.6263428  31.1254044  68.9707260 175.8466187  29.9772453
  68.2126312 174.4527588  29.7343102  74.8028793 171.5265961  29.7630863
  75.0325165 171.9443512  28.6282349  75.5009842 171.9474182  30.8483524
  75.1841507 171.6341553  31.7547646  76.4586029 173.0620422  30.7588177
  76.0087662 173.9563446  30.3275814  76.9217911 173.4375458  32.1559296
  77.5297394 172.7076569  32.6905022  77.4772949 174.3750305  32.1309052
  75.7985840 173.8475494  33.1829109  74.9041824 174.6351013  32.8814468
  75.7784271 173.2927551  34.3189087  75.0158920 173.4078827  34.9711266
  76.5154037 172.6860199  34.6488190  77.6495819 172.6880341  29.8840256
  78.2917709 173.5635834  29.3061066  77.9299011 171.3730469  29.8025513
  77.3854065 170.7073212  30.3321133  79.0769653 170.8356171  29.0020504
  79.9487000 171.4844360  29.0868969  79.5575180 169.4224548  29.4298592
  78.8382111 168.6357269  29.2023640  80.4608307 169.1583405  28.8799648
  79.9356918 169.3433075  30.8699455  79.0445938 169.5159302  31.4734802
  80.2531433 168.3199158  31.0698986  81.1084900 170.2768860  31.2699413
  81.8280792 170.8420868  30.4439831  81.3654480 170.3108368  32.5251846
  78.8739319 170.8327484  27.4758987  79.7615814 170.5335388  26.6763916
  77.6251450 170.9915771  27.0633373  76.9431992 171.2168884  27.7734642
  77.1412506 170.9659424  25.6688538  77.5205078 170.0543671  25.2070198
  75.5694122 170.8187256  25.5617580  75.1146317 171.6320953  26.1271935
  75.2207642 171.0379791  24.1143436  75.8860397 170.4560089  23.4765110
  74.1958542 170.7729034  23.8547230  75.3452148 172.0939178  23.8743362
  74.9919357 169.4881897  26.0999203  75.4514999 168.5955658  25.6754761
  75.2408829 169.5141754  27.1607933  73.5053940 169.4841309  25.9335690
  73.1633301 169.4280090  24.9001560  73.0867844 168.6441040  26.4878349
  73.1260757 170.3882294  26.4098492  77.7125397 172.1729126  24.8979969
  77.6231079 173.3195496  25.3815880  78.3015442 171.8880157  23.7522678
  78.1814270 170.9467773  23.4062080  78.9266586 172.8614655  22.8989639
  78.3783951 173.7998505  22.9821644  80.2945862 173.1284180  23.3791161
  80.5891266 174.1770630  23.4204388  80.3628922 172.8198242  24.4222889
  81.4351883 172.4265137  22.7527885  81.8937759 171.1816711  23.2915573
  81.3682022 170.7846375  24.1474438  82.8954926 170.5105591  22.6360111
  83.2303925 169.5714111  23.0510197  83.5762863 171.0328827  21.5273476
  84.4117584 170.5648651  21.0280037  83.1661682 172.2394257  20.9879398
  83.8372650 172.7574921  20.3188801  82.0890045 172.9563141  21.5848026
  81.8843536 173.9601288  21.2429447  78.8646622 172.3952484  21.4345589
  78.7434540 171.1989899  21.1028576  78.7958145 173.4441833  20.5807858
  78.7931366 174.3645172  20.9968166  78.5903320 173.2753906  19.1585503
  78.1596603 172.3119202  18.8858738  77.5700912 174.3466797  18.6823673
  78.0176620 175.3350372  18.7868137  77.3249512 174.1814575  17.6332150
  76.4139633 174.3358002  19.4749603  75.9539566 175.1654968  19.3279896
  79.8993759 173.3332367  18.3971634  80.3719482 174.3834839  17.9716015
  80.5511932 172.1419830  18.2613564  80.0693359 171.3664246  18.6931229
  81.8214188 172.0111847  17.5368347  82.4532013 172.8143158  17.9162292
  82.4178543 170.6587067  17.9608555  82.4822159 170.5611267  19.0445709
  81.7259903 169.9454956  17.5127773  83.7843246 170.3464661  17.3158112
  83.7027664 170.2731934  16.2313385  84.8787689 171.4227905  17.6052456
  85.1158142 171.5631561  18.6598587  85.7737808 171.0832977  17.0839119
  84.6148987 172.3703461  17.1355495  84.3206024 168.9812927  17.7864723
  83.5450058 168.2246552  17.6679192  85.2549133 168.7114258  17.2942009
  84.4556122 168.9873352  18.8680649  81.6126633 172.2258301  16.0432682
  82.5502090 172.6271667  15.3443689  80.3357849 172.1920319  15.5943813
  79.6157227 172.0393982  16.2859898  79.9974823 172.2663269  14.1753702
  80.8491211 172.3297119  13.4980192  79.2660522 170.9337006  13.8099766
  79.8437729 170.0489197  14.0773602  78.3264771 170.8411102  14.3547077
  79.0180511 170.8821869  12.4368610  78.8408737 169.9925995  12.1224613
  79.1169662 173.4833832  13.9065485  78.2203751 173.8009491  14.6925669
  79.2009430 173.9844971  12.6992102  79.9869003 173.7939758  12.0941639
  78.1034470 174.7040405  12.0949755  77.8300934 175.5707550  12.6968079
  78.5867310 175.3571167  10.7377367  78.7600861 174.5683136  10.0057306
  77.7078781 175.8129120  10.2816982  79.6894073 176.3741455  10.8900890
  80.5304718 175.8939819  11.3902473  80.1019897 176.8274536   9.4553843
  79.2464142 177.3180695   8.9912758  80.8897705 177.5644073   9.6115913
  80.4529572 175.9812622   8.8647280  79.2801590 177.6428223  11.6070766
  79.1613541 177.3892670  12.6605005  80.1634979 178.2814026  11.6140108
  78.3679962 178.0331879  11.1557646  76.7632370 173.9843903  11.9435205
  75.7820816 174.5611267  11.5194321  76.6095276 172.7236481  12.3171835
  77.4604797 172.2518158  12.5879993  75.2787247 172.0967865  12.4724646
  74.5391846 172.6707916  11.9141712  75.1900024 170.6740112  11.9089460
  75.9703064 170.0249481  12.3063650  74.2850189 170.2135010  12.3052168
  75.0462189 170.6605835  10.1005545  74.7538834 169.3613892   9.9931231
  74.7176590 172.1947021  13.9252043  73.5469513 171.8499146  14.1984167
  75.4306335 172.7680206  14.8947096  76.3569031 173.1237640  14.7061129
  75.0332870 172.9302826  16.2882481  75.3651505 173.9058685  16.6434765
  73.9519272 172.8701477  16.4112873  75.6915970 171.8688507  17.2138004
  76.6872711 171.2913055  16.8143921  75.2128906 171.6302643  18.4240818
  73.8347321 172.0985260  18.9457207  73.0799332 172.1477814  18.1608906
  73.8500290 173.1540222  19.2173424  73.5160370 171.2221069  20.1014957
  73.0446701 170.3256683  19.6986446  72.8779984 171.6696472  20.8635445
  74.8719101 170.8527069  20.6251106  74.7708511 169.9383545  21.2097912
  75.2765503 171.7145386  21.1557808  75.7416687 170.7029419  19.4030113
  76.7607117 170.9616241  19.6906509  75.9127274 169.2564240  18.8922825
  76.6350708 168.4310150  19.4731255  75.2227249 168.8379669  17.8585224
  74.6083145 169.5396271  17.4708557  74.9612427 167.4884949  17.4019909
  75.8345947 166.8642578  17.5908642  73.7752533 166.9160614  18.1580200
  73.9682541 167.0522614  19.2221165  72.8921127 167.4509888  17.8086948
  73.5699844 165.4022675  18.0573902  73.4754410 164.9492950  17.0704880
  74.3804779 164.9294128  18.6120071  72.1155930 164.9637756  18.8688755
  70.8479156 165.2859650  17.6379471  70.9709854 164.5459137  16.8472042
  69.8436356 165.1655121  18.0441494  70.9885254 166.3099213  17.2917671
  74.6955948 167.5059509  15.9192543  74.3008118 168.5101624  15.2472582
  75.0253067 166.4255219  15.2847853  75.6402588 165.7454529  15.7083902
  74.8960724 166.2467804  13.7906027  73.9307327 166.6234741  13.4524660
  75.9597549 167.0594482  13.0602627  76.9555969 166.6781769  13.2861738
  75.9404526 166.9456329  11.9763937  75.9322586 168.0866089  13.4239864
  74.9443359 164.7286224  13.4816751  74.8725433 163.8682861  14.3756123
  74.9870987 164.3305054  12.2080336  75.0124817 165.0210876  11.4714565
  74.9648209 162.9185944  11.7690439  74.9383392 162.2741241  12.6477108
  73.5739517 162.6560364  11.0700836  73.5469131 163.2373962  10.1484623
  73.4167404 161.6047974  10.8286676  72.7292099 162.9489288  11.6935635
  76.1182404 162.6593018  10.8053675  76.4023590 163.4926605   9.9509735
  76.7827377 161.5283813  10.9773521  76.6069717 160.9977875  11.8185978
  77.9861984 161.0538483  10.3072720  78.0810242 161.6316528   9.3878975
  79.2548370 161.4083862  11.1493349  79.2977371 160.6992493  11.9760151
  80.0981598 161.2583923  10.4752417  79.3083420 162.8208008  11.7276907
  79.3984222 163.9762115  10.8930578  79.5460892 163.8675995   9.8287268
  79.5135498 165.2600708  11.4124565  79.6320267 166.1098175  10.7564859
  79.4432907 165.4867859  12.7647743  79.5662003 166.7674866  13.2516718
  80.0286560 167.2946167  12.5960236  79.1057587 164.3680115  13.6408072
  78.9792557 164.5220642  14.7022524  79.0573120 163.0598907  13.1151257
  78.7692642 162.2634888  13.7853241  77.9288483 159.5200653  10.0792971
  76.9957123 158.8530273  10.5193205  78.9044037 158.9207764   9.3310986
  79.6862183 159.4795685   9.0202799  79.0037003 157.4631958   9.1260014
  78.4131775 156.8726807   9.8264904  78.4980698 157.0171509   7.7395101
  78.7629395 155.9736786   7.5688796  76.9816895 157.0577393   7.5992479
  76.6163177 158.0746460   7.4560542  76.5893173 156.4206696   6.8066010
  76.5007935 156.7151947   8.5154915  79.0486450 157.8495789   6.5561004
  80.1098328 157.6167603   6.4679279  78.5323410 157.5078125   5.6590314
  78.7894516 158.8820190   6.7905569  80.3606644 156.7885590   9.3176889
  81.3976898 157.3676758   9.0161314  80.4166641 155.5527039   9.8513575
  79.5631256 155.2211304  10.2775545  81.6547928 154.7103424   9.9505978
  82.4294434 155.4275513  10.2219553  81.5841980 153.7602234  11.1145487
  82.5879364 153.4038086  11.3459940  81.1576080 154.2432098  11.9936628
  80.7062302 152.4842224  10.8013391  80.1601028 152.3507843   9.6664972
  80.6276779 151.5275726  11.6917324  80.0851135 150.6893005  11.5399437
  81.0905457 151.6607666  12.5794945  82.0052795 154.0787811   8.5972404
  81.1361237 154.1339569   7.6696296  83.1269684 153.2837372   8.4674044
  84.2904358 153.2822418   9.3511610  84.3298035 152.4431915  10.0458231
  84.4687576 154.2310028   9.8572826  85.4693375 152.9191437   8.4831161
  86.3369522 152.4665527   8.9632158  85.8848495 153.7859650   7.9692335
  84.8408661 151.8923187   7.5030975  84.7996521 150.9100647   7.9738278
  85.3540726 151.7459412   6.5526743  83.4895096 152.5378113   7.2486186
  83.5819092 153.3136444   6.4885969  82.4091034 151.5823364   6.7616658
  82.2820053 151.3389435   5.5471549  81.7246857 150.8903503   7.6104932
  82.0086288 151.0014343   8.5733747  80.5650406 150.0079041   7.2716632
  80.8177643 149.6091156   6.2892141  80.4676361 148.7716675   8.1988678
  80.0448151 149.1455231   9.1313667  79.8819656 147.9944153   7.7079816
  81.8657303 148.1477051   8.4730749  82.9037933 148.6742249   9.2737083
  83.9084549 147.8388367   9.0833950  84.8800659 147.8895721   9.5522289
  83.5880966 146.8594971   8.2028160  84.2475357 146.1378326   7.9489684
  82.3105545 147.0654449   7.7988133  81.7820740 146.5540771   7.0078564
  79.1986847 150.7157288   7.0844107  78.1379089 150.1334381   7.2745996
  79.2186203 151.9818573   6.7131443  80.1060944 152.4640045   6.7183681
  78.0260620 152.8063354   6.4736118  78.3448563 153.7698059   6.0758853
  77.4426651 152.3424225   5.6782818  76.9683685 153.0566254   7.5909114
  76.0335617 153.7847595   7.3402085  77.1666870 152.5861206   8.8367348
  78.1023026 152.2850342   9.0692472  76.2186203 152.7490082   9.9249964
  75.2117920 152.4656372   9.6182394  76.6429367 151.8765717  11.1160126
  76.8136673 150.8703461  10.7333336  77.6055222 152.2326050  11.4831171
  75.6072617 151.8585052  12.2606525  74.5267105 151.0113983  12.2027769
  74.5128326 150.2088318  11.4802017  73.4533157 151.0218811  13.1059427
  72.6328964 150.3209991  13.0603037  73.4968719 152.0106964  14.1201448
  72.5402451 151.9767914  15.0822086  71.9868774 151.1925049  15.0986328
  74.5946884 152.8870392  14.1579657  74.7612152 153.5448761  14.9981642
  75.6367722 152.8215485  13.2258759  76.4031525 153.5825043  13.2239933
  76.1873169 154.1713562  10.4307604  77.2766037 154.8211517  10.5242329
  75.0124893 154.7758484  10.7053442  74.1950073 154.1829987  10.7240753
  74.8439484 156.2470703  10.9382534  75.7064209 156.7146912  10.4633093
  73.6325684 156.8519897  10.1662731  72.7436371 156.5015869  10.6907911
  73.8043442 158.3826752  10.2484951  74.6682281 158.6177826   9.6267872
  72.9171982 158.9385376   9.9450350  73.9711914 158.5883179  11.3058348
  73.5291443 156.3940735   8.7340870  74.1264725 157.0034637   8.0558929
  73.8553848 155.3664093   8.5741940  72.0717087 156.3269196   8.2355604
  71.6763382 157.3222198   8.4384632  72.0771179 155.9603424   7.2090688
  71.4700546 155.5935669   8.7725000  74.8126450 156.5616302  12.4294109
  73.8696442 156.2073517  13.1334953  75.9767914 157.0937195  12.9502182
  76.6760406 157.2766724  12.2447624  76.1901398 157.5360260  14.3250990
  75.5480652 157.0048676  15.0277405  77.6450729 157.1996765  14.6876421
  78.3389359 157.8015289  14.1007557  77.8270340 157.4805908  15.7249842
  77.9048462 155.7193451  14.6499119  77.6863861 154.8300934  15.7465639
  78.2175064 153.6599274  15.3733397  78.1977158 152.6937561  15.8555498
  78.8879929 153.8116455  14.2027321  79.4927597 153.1189728  13.7849312
  78.6949081 155.0788269  13.7303219  79.0335464 155.4919434  12.7916765
  75.9099350 159.0195618  14.3548889  76.6594620 159.8223724  13.7976627
  74.7749405 159.4022064  14.9323483  74.0738220 158.7352600  15.2216854
  74.4654541 160.7214508  15.4137583  74.7599258 161.4409332  14.6497374
  72.9373016 160.9102173  15.5624199  72.5024338 160.1073914  16.1577930
  72.8746643 161.7992859  16.1898994  72.1955338 161.0885773  14.1825790
  72.6863098 161.8293152  13.5512762  72.1672668 160.1129608  13.6973391
  70.7176743 161.4147339  14.4454298  70.1848450 161.0802612  15.5118780
  70.0267029 162.0260773  13.6150122  75.1492004 161.0382233  16.7571049
  74.7645493 160.5543518  17.8177528  76.1966324 161.8325348  16.7132988
  76.4360733 162.2046814  15.8054008  77.0845261 162.0935669  17.8791428
  76.7263031 161.4592896  18.6899891  78.5852737 161.7643433  17.7033749
  79.1640854 162.2272644  18.5026207  78.7766647 160.2577972  17.6235256
  78.3727646 159.8186951  16.7112961  79.8498077 160.0789642  17.5565815
  78.3587799 159.6701660  18.4409389  79.0502548 162.3079987  16.5281124
  79.5299149 163.1002197  16.7809372  76.9061966 163.4897003  18.3899002
  76.7245865 164.3500519  17.5460014  76.8354187 163.6641693  19.7289143
  76.8037872 162.8883514  20.3748341  76.7932663 164.9495544  20.3904781
  76.4813766 165.7769012  19.7530384  75.8028946 164.7783356  21.5731964
  74.8117905 164.7999268  21.1200447  76.0833817 163.8072357  21.9810772
  75.8279572 165.7254181  22.7696953  76.8789749 165.8397369  23.0350227
  75.2542114 167.0806274  22.3386803  74.2175522 166.9598694  22.0242519
  75.3521576 167.7910919  23.1594944  75.6571045 167.5661774  21.4498501
  75.0370102 165.2164612  24.0191174  75.5118332 164.2764587  24.3002415
  75.0888214 165.9208984  24.8492966  74.0201111 165.0077972  23.6867580
  78.1900406 165.2487640  20.9744358  78.9219360 164.4252319  21.5090904
  78.5917664 166.5347900  20.8020382  77.9689713 167.2622070  20.4809532
  79.8863449 167.0199432  21.3233929  80.4246979 166.0764160  21.4129238
  80.6762466 167.7484436  20.1807861  81.6537704 168.0234833  20.5768795
  80.9565125 166.7561951  19.0010948  80.0251999 166.4225769  18.5434513
  81.5828323 167.3393250  18.3259735  81.5430450 165.9583588  19.4566536
  80.0277786 168.8553619  19.6565342  79.0714264 168.7725983  19.6443672
  79.9020309 167.7923584  22.6971149  79.0651779 168.6406097  22.9335327
  80.8525009 167.4566956  23.5249214  81.5233765 166.7388763  23.2909107
  80.8999329 167.9438324  24.9590931  80.5581360 168.9775238  25.0115261
  80.0001831 167.0608978  25.9375591  80.2552719 167.3919525  26.9442539
  78.4570541 167.1636047  25.7731552  78.2223053 166.8166962  24.7668476
  77.9083405 166.5352936  26.4747601  78.2180939 168.2194519  25.9002743
  80.2404251 165.5440826  25.8930607  81.2986145 165.2830658  25.9074898
  79.8355255 165.0796967  26.7922306  79.7357788 165.0333252  25.0729580
  82.3407364 167.9191284  25.5313854  83.1305008 167.0539246  25.1591702
  82.6849670 168.9284058  26.2888374  82.0030518 169.5508118  26.6983566
  84.1152878 169.1136322  26.7637463  84.7569351 169.0344238  25.8861809
  84.2080307 170.4724731  27.4813251  83.4664230 170.6290894  28.2646427
  85.1827850 170.5485535  27.9631653  84.0842896 171.6657715  26.5314178
  85.2632904 172.1210022  25.9246159  86.1589279 171.5328674  26.0600300
  85.2209320 173.2481232  25.0227699  86.0652237 173.5213776  24.4072170
  83.9806137 173.9250336  24.9364166  83.8326187 175.0286713  24.1675205
  84.4488602 175.1386871  23.4396801  82.8379974 173.4808960  25.6104126
  81.9838562 174.1061554  25.3961678  82.8482361 172.3378601  26.4040356
  82.0324707 171.9636688  27.0047989  84.5523224 168.0244751  27.7533531
  85.6389923 167.4265900  27.6337414  83.7408752 167.7711487  28.7609921
  82.9177780 168.3516083  28.8362961  83.9807281 166.8562622  29.8459282
  84.9642105 166.4106140  29.6967697  84.1668472 167.8082275  31.0343914
  84.8577499 168.5749054  30.6837597  83.2227020 168.2834778  31.3005009
  84.7770157 167.2213898  32.3428802  84.1421890 166.3799286  32.6203918
  85.7608871 166.9047394  31.9967308  84.9535446 168.2900085  33.4767151
  85.6848068 169.0187531  33.1270218  84.0299683 168.8598022  33.5788727
  85.3145218 167.5765991  34.8462486  85.2345352 168.3007050  35.6570396
  84.4604187 166.8999023  34.8726044  86.6703949 167.0418701  34.9603271
  87.2885895 167.7066345  34.5175819  86.9309006 166.9884949  35.9346962
  86.7717972 166.1818695  34.4404984  82.8723068 165.8279724  30.0088615
  81.6976471 166.1560364  29.8678741  83.2834854 164.6163177  30.2803535
  84.2787552 164.5749664  30.4471493  82.4596252 163.4441071  30.5906334
  81.4656982 163.8080750  30.8509045  82.2185593 162.6863403  29.2335148
  83.1255493 162.4467621  28.6784706  81.5018692 161.8788910  29.3833771
  81.7096252 163.4267426  28.6163406  82.9629822 162.5660858  31.7278099
  84.1513901 162.4650879  32.0355835  81.9505386 161.9965363  32.4702225
  80.9904175 162.0372467  32.1594009  82.1823654 161.5602417  33.8624687
  83.1219940 161.9876709  34.2124519  81.1049805 162.1902008  34.7252083
  80.1367111 161.7722015  34.4498405  81.2399139 162.0910797  35.8022728
  81.0901718 164.0176239  34.4858017  80.7889633 163.9192657  33.1879196
  82.3311386 160.0605316  34.0374718  83.4457092 159.6661224  34.4181519
  81.3198624 159.2427979  33.7840195  80.4909973 159.6441193  33.3692741
  81.3038254 157.8377533  34.0315018  82.1131897 157.6552734  34.7384262
  80.0143127 157.4183044  34.7336388  79.1430969 157.6845093  34.1351357
  80.1018372 156.3488464  34.9252090  80.0015564 157.9303131  36.1357651
  80.7116241 157.5418243  37.0433807  79.0856094 158.8343811  36.3912506
  78.9893951 159.1338806  37.3510170  78.4933853 159.2610779  35.6931839
  81.4491882 157.0840149  32.7010651  80.5992355 156.2480774  32.2418365
  82.6456985 157.2104340  32.0994301  83.3216553 157.8147736  32.5443573
  83.0762024 156.5557251  30.8617916  82.3354416 155.8126373  30.5665321
  83.1349182 157.5844269  29.6680603  83.9136505 158.2985229  29.9359493
  83.3957062 157.1047974  28.7246380  81.8281021 158.2635651  29.3341999
  81.4145737 158.7033234  30.2417831  82.1339951 159.3362122  28.3707008
  82.5213013 158.8478699  27.4764805  81.2083664 159.8163300  28.0532360
  82.9269714 160.0096588  28.6959000  80.8201447 157.2579193  28.6690178
  80.5071335 156.4901733  29.3766041  79.9214172 157.7693329  28.3242741
  81.2011566 156.8565826  27.7299480  84.4024200 155.9586334  31.0465183
  85.2588577 156.5275726  31.7469063  84.6716919 154.7716370  30.4598160
  83.9325485 154.4518280  29.8503208  86.0519791 154.1720276  30.3348064
  86.7856445 154.7082977  30.9366817  86.0157394 152.7360535  30.8352261
  85.3116837 152.1851349  30.2116013  86.9930801 152.2779388  30.6834488
  85.6336594 152.5738678  32.2971191  85.2866669 153.4793549  33.0811768
  85.7729645 151.3230743  32.8108292  85.6565704 151.2019806  33.8067627
  86.1696472 150.6253510  32.1977119  86.5474777 154.2929535  28.8457737
  85.7444763 154.1571503  27.8862019  87.8214188 154.4232941  28.7218533
  88.3804245 154.3235016  29.5571136  88.5401688 154.2310333  27.4713821
  87.9290695 154.5879822  26.6423779  89.8361740 155.0196533  27.4720078
  90.5088959 154.4977112  28.1525364  90.3573074 154.9845428  26.5153008
  89.7223434 156.4821472  27.9303989  89.5376663 156.5407410  29.0030441
  90.9987106 157.1640320  27.5674286  91.2432251 157.2939606  26.5131817
  91.0995560 158.1673584  27.9813004  91.8651428 156.6985779  28.0372601
  88.6188507 157.1466370  27.0821533  87.6286392 156.7071838  27.2024555
  88.3968582 158.1446381  27.4600277  88.8845978 157.2665253  26.0318661
  88.8893738 152.7863922  27.1059170  89.3107605 151.9502411  27.9314156
  88.8222275 152.4578400  25.8423500  88.4099655 153.1501160  25.2333469
  89.4785461 151.2715454  25.2462845  90.2911453 150.9199219  25.8820038
  88.5462189 150.0600128  25.1881351  89.0452423 149.2188721  24.7069283
  88.3140793 149.7874146  26.2176552  87.3655396 150.4282837  24.4947815
  86.6522141 149.8169250  24.6922836  90.0918884 151.6511230  23.9021378
  90.1358795 152.8053131  23.5854931  90.6092148 150.6852417  23.1023426
  90.6207886 149.7257385  23.4175053  91.2618256 150.9224243  21.8973827
  91.5329590 149.9627686  21.4573288  90.5820236 151.3443756  21.1571560
  92.5131683 151.8487549  22.0650043  93.0674362 151.9946594  23.1683960
  92.9750748 152.2904816  20.9075947  92.4321442 152.0326843  20.0958920
  93.9818115 153.3796844  20.9097061  93.9454803 153.8334198  21.9001160
  95.3942947 152.7994690  20.5406513  95.3148651 152.2470398  19.6043777
  96.2221146 153.4805756  20.3433933  95.9227142 151.7553711  21.5738335
  95.1645737 150.9916077  21.7469864  96.7227859 151.1896057  21.0964355
  96.4242783 152.3005066  22.7994347  97.2048569 153.0342865  22.5985394
  95.5934067 152.7205658  23.3662834  96.9813004 151.2559814  23.6892376
  97.9712067 151.0743408  23.6043816  96.3199387 150.4811859  24.5553036
  95.0708237 150.7287292  24.9698620  94.6808319 151.5437469  24.5184631
  94.4729309 150.1357117  25.5274982  96.9215012 149.4546509  25.0943565
  97.8821335 149.1983185  24.9166050  96.5052643 148.9673920  25.8750114
  93.5926971 154.5254669  19.9147720  92.7863159 154.2554016  19.0401554
  94.1205902 155.7714386  20.1394405  95.0231247 156.1735687  21.2463951
  96.0915680 156.0630646  21.0611591  94.6981964 155.6112213  22.1217766
  94.7742386 157.6468506  21.4307766  95.6403656 158.2325439  21.7387886
  93.9839325 157.7759552  22.1702747  94.3511200 158.0895386  20.0273743
  95.1864777 158.4270935  19.4139023  93.7551422 158.9944153  20.1461620
  93.6737366 156.8600006  19.3572922  92.5923233 156.9816895  19.2953033
  94.0292969 156.6516113  17.8540726  95.2043457 156.4053497  17.4392681
  93.0643234 156.7842712  16.9663277  92.1104355 156.7454834  17.2960110
  93.2325974 156.7861938  15.5060234  94.2857971 156.9488373  15.2770519
  92.7969818 155.4152985  15.0419865  93.2395172 154.6497955  15.6793776
  91.7108917 155.3973999  15.1324739  93.1689453 155.2042542  13.6866312
  92.9032440 154.3150482  13.4410019  92.4473114 157.8657990  14.7548313
  91.3955154 158.2924805  15.1537790  92.9963379 158.2765503  13.6132431
  93.9502563 158.0254059  13.3962955  92.4181900 159.2571106  12.7542448
  91.7956009 159.9140930  13.3615894  93.5017776 160.1157227  12.0757046
  93.1361008 160.8145905  11.3234015  94.2603760 160.9838867  13.0836954
  94.8758392 160.3599854  13.7318001  94.9363861 161.6416779  12.5374079
  93.6610260 161.7177277  13.6225538  94.4744186 159.2262573  11.4598427
  95.1026917 159.8379822  11.0691252  91.6341400 158.6052246  11.5662374
  90.8624191 159.3331909  10.9471693  91.7384872 157.2970428  11.3426704
  92.2259445 156.6920166  11.9879885  91.0864868 156.7060852  10.1382675
  91.5369797 157.1821594   9.2673416  91.2150116 155.1893158  10.0983295
  90.6525726 154.7540741  10.9243574  90.7854462 154.7987823   9.1757975
  92.6590042 154.7006378  10.1809845  93.1749191 155.1527405  11.0280600
  92.6493912 153.6723022  10.5422916  93.4358215 154.7236176   8.8583384
  93.2012711 155.5890198   7.9935403  94.4179993 153.9558258   8.6721706
  89.5811005 156.9867249  10.0666857  88.8168106 156.6515350  10.9818153
  89.2233047 157.7129974   8.9312420  89.9487457 157.9268799   8.2618504
  87.8687363 158.1177216   8.6148605  87.8511429 158.6137390   7.6444211
  87.0886688 156.7700653   8.4887466  87.7448578 155.9348602   8.2439070
  86.7294846 156.4121857   9.4536324  85.9901276 156.7346802   7.5116434
  84.6764145 156.2968292   7.9174643  83.9172592 156.1198273   6.8153286
  82.9263840 155.6909485   6.7901030  84.7486649 156.3671112   5.7308617
  84.3960953 156.2507935   4.7915735  86.0207672 156.7556152   6.1091509
  86.8901291 156.8314819   5.4728742  87.2981567 159.1222382   9.6890268
  86.0617676 159.2733917   9.7799835  88.1351852 159.7187653  10.6162109
  89.0768356 159.3604126  10.6868982  87.6447754 160.6243744  11.6738806
  87.0440063 160.1005859  12.4173975  88.7826004 161.2653961  12.4874554
  89.3531113 160.5499878  13.0797501  89.4673309 161.8391113  11.8628750
  88.2336884 162.3175659  13.3042498  88.8834076 162.7227631  13.8832912
  86.8618088 161.8505402  11.1216564  87.2768326 162.5932007  10.2372370
  85.6880798 162.0460358  11.6742420  85.5759201 161.5621796  12.5536737
  84.6657639 163.0685577  11.3881903  84.4435730 163.0850067  10.3212032
  83.3821335 162.6309204  12.0738840  83.5250320 162.6497955  13.1543112
  82.6553650 163.4205933  11.8832941  82.7560272 161.2512665  11.7550936
  82.8852921 160.4920654  10.6499901  83.3743515 160.7380676   9.7190218
  82.3438644 159.2350159  10.8479738  82.3624268 158.5151062  10.1398182
  81.8260727 159.1050873  12.1178083  81.3585892 158.0186310  12.8175631
  81.2800369 157.0160370  12.4238205  81.0386963 158.2060852  14.1938610
  80.8996201 157.3395538  14.8232851  81.1920624 159.4718781  14.8774929
  81.0873489 159.5850983  15.9464302  81.7176895 160.4714203  14.0696049
  81.9471893 161.4358826  14.4980211  82.0926819 160.3635101  12.7177792
  85.0243378 164.5205994  11.8050938  84.3678436 165.4473724  11.3648806
  86.1035995 164.5822296  12.4947033  86.5838242 163.7040710  12.6300745
  86.6190720 165.7951660  13.2280998  86.0988159 166.6831970  12.8691759
  86.3400345 165.6783295  14.7514849  86.7966690 164.7915344  15.1910295
  86.7858734 166.5386963  15.2505569  84.9085541 165.7503967  15.0796499
  84.1631393 166.9499969  14.8630228  84.5685196 167.8831482  14.5006800
  82.7998276 166.9482422  15.1717157  82.2213669 167.8500671  15.0357122
  82.1444702 165.8263245  15.6886950  81.1222153 165.8288727  16.0371017
  82.7786255 164.5924988  15.7724485  82.3174210 163.7404480  16.2496414
  84.1809769 164.5813446  15.5475683  84.6623230 163.6187134  15.6373711
  88.1530609 165.9594574  12.8893795  89.0140305 165.5627136  13.7065639
  88.5544510 166.5897064  11.7549753  87.7100906 167.0983887  10.7176819
  87.6888123 168.1675720  10.9286528  86.7448883 166.6201019  10.5511160
  88.4192352 166.8942566   9.3598852  88.1756287 167.5255127   8.5053215
  88.3079758 165.8381500   9.1141758  89.8612595 167.0974884   9.8185043
  90.0778427 168.1656647   9.8041048  90.5786591 166.5752258   9.1855173
  89.9294434 166.5316772  11.2541342  90.1280289 165.4605103  11.2898426
  90.8648605 167.2448273  12.1996279  90.6025543 168.2785645  12.8300934
  92.0431366 166.6678009  12.3389969  92.3391495 165.9452515  11.6983671
  93.0211411 167.0574646  13.3681355  93.9085159 166.4913330  13.0849981
  93.1757202 168.1362762  13.3490076  92.7468567 166.5780487  14.7656069
  93.5470276 166.9007721  15.6823387  91.7110748 165.7895050  14.9649734
  90.9905319 165.6100922  14.2803364  91.4659195 164.9677887  16.1891994
  92.2174988 165.2512207  16.9260197  90.1752930 165.3224487  16.9603081
  89.3586655 165.0525818  16.2906895  90.0945129 164.6856689  17.8412666
  89.9906921 166.7853546  17.4010944  90.3199539 167.1312256  18.7340393
  90.5532608 166.3428192  19.4343185  90.1268616 168.3971710  19.2036743
  90.3761902 168.5299988  20.2460728  89.5715332 169.3946686  18.3741131
  89.5732956 170.7534332  18.7677841  89.7547684 170.8873749  19.7009106
  89.2525787 169.0797882  17.0592651  88.6601562 169.7822571  16.4918175
  89.5136490 167.7678680  16.5238800  89.1372681 167.4490051  15.5631161
  91.5660172 163.4891052  15.9066038  91.1397171 162.9194794  14.8895359
  92.1744156 162.7601624  16.8667927  92.5688705 163.2471161  17.6588650
  92.0793228 161.2685089  16.9316845  92.0357742 160.7987518  15.9490728
  93.3054428 160.6939240  17.5662708  93.4642868 161.1256866  18.5544319
  93.1165237 159.6241455  17.6556034  94.2210312 160.8771667  17.0039215
  90.8298798 160.8543701  17.6922970  90.5576706 161.4587097  18.7310905
  90.1455383 159.7900543  17.2018509  90.4389114 159.4033203  16.3161469
  88.9937820 159.0814667  17.9233246  88.4567947 159.7737427  18.5717793
  87.8909760 158.6447754  16.9873066  87.0644989 158.2252197  17.5608978
  87.5534592 159.5409698  16.4667015  88.1983414 157.6622467  15.9344578
  88.2681274 157.9348602  14.6068058  88.2880325 158.9194031  14.1632948
  88.6830978 156.8289490  13.9633408  88.9251404 156.7465057  12.9862442
  88.7729187 155.6987610  14.7840195  89.2493134 154.3923035  14.5498171
  89.5564804 154.0212708  13.5831766  89.2192230 153.4604950  15.6284685
  89.5348282 152.4567566  15.3849516  88.7415695 153.8562164  16.9099865
  88.7875214 153.1985016  17.7653790  88.4703598 155.2492218  17.1100349
  88.3275452 155.6192932  18.1145535  88.4005051 156.1948090  16.0672283
  89.5182648 157.9079895  18.7927704  90.5037308 157.2732697  18.3883381
  88.8440247 157.6443481  19.9094429  88.2102280 158.3500671  20.2563820
  89.3129044 156.5682983  20.8098278  89.6135712 155.7461548  20.1603661
  90.5742569 156.9210052  21.6701221  91.3344650 157.2238464  20.9500675
  90.4741364 157.8833008  22.8239460  89.6823959 157.5708618  23.5048409
  91.4403076 157.8694916  23.3283463  90.1917725 158.8703918  22.4578533
  90.9415817 155.6933746  22.2093067  91.7985153 155.7672424  22.6357021
  88.0966644 156.0752563  21.6203403  87.3482056 156.9344788  22.1220856
  87.7246475 154.7598114  21.6046543  88.4286423 154.0857086  21.3399334
  86.4131088 154.2927399  22.0025349  85.7748718 154.7697754  21.2587681
  86.3246536 152.7442474  21.9033909  86.6494522 152.2799835  22.8345509
  84.8474426 152.2716370  21.8042583  84.5454559 152.5789948  20.8030376
  84.7724991 151.2031097  22.0060844  84.2442551 152.6923065  22.6088085
  87.1071396 152.0304871  20.7635517  86.6831818 152.2359467  19.7806225
  88.1096802 152.4582672  20.7585716  87.3433762 150.4953003  20.9500771
  86.3669434 150.0370178  20.7930889  88.0864410 150.0521851  20.2870426
  87.7060776 150.3461456  21.9670830  85.9973755 154.7135925  23.4307613
  86.7717133 154.5198059  24.3816147  84.8354340 155.2939758  23.5853329
  84.2251587 155.3961182  22.7870655  84.1574402 155.3857117  24.9138241
  84.8934021 155.3021240  25.7134933  83.5091858 156.7328796  25.0286121
  82.7755280 156.8812408  24.2362595  83.0060501 156.7711639  25.9947834
  84.2472839 157.5177917  24.8636398  83.2173462 154.2479095  25.1235809
  82.4409027 153.9630737  24.2104034  83.1487808 153.6973724  26.3186531
  83.8670273 153.9169617  26.9939289  82.1067505 152.7746124  26.8833637
  81.2562256 152.8147125  26.2028503  82.6688080 151.3365021  26.8089371
  83.5893784 151.2757416  27.3894215  81.9259796 150.6768341  27.2574310
  83.0767288 150.8034363  25.4291611  82.2020340 150.7131958  24.7850628
  83.7093430 151.5068970  24.8878231  83.8440399 149.4894562  25.5618362
  85.0379562 149.3669128  25.5893497  83.1407089 148.4292145  25.7982483
  83.5048370 147.4927216  25.9006310  82.1762161 148.5409088  26.0764332
  81.6483078 153.2456360  28.2293148  82.3676376 153.9837036  28.9511490
  80.4751892 152.7938538  28.6488743  79.9707565 152.2357635  27.9749489
  79.8904419 153.0314636  29.9965363  79.9147491 154.0994110  30.2132912
  78.4167709 152.6305084  30.0315723  77.8714676 153.1035614  29.2148895
  78.2728958 151.5531921  29.9491367  77.5790558 153.1445618  31.6099148
  76.3307495 152.7090912  31.4175663  80.6673050 152.3541260  31.1693649
  80.9039230 151.1849823  31.0673065  80.9610596 152.9510498  32.3116341
  80.7365112 153.9355621  32.2918472  81.8017731 152.3947449  33.4316902
  82.7559891 151.9621429  33.1309967  82.2286530 153.5427246  34.2828789
  82.7750320 154.2847748  33.7007027  81.3471069 154.0025024  34.7296257
  83.1803055 153.1729126  35.4177818  82.7514877 152.4344177  36.0951500
  84.0839767 152.6343536  35.1324310  83.6898804 154.4312439  36.1304817
  82.8140945 154.9842224  36.4700317  84.2924576 154.1890869  37.0059090
  84.5826035 155.2490692  35.2543678  84.8507233 154.7965546  34.3921318
  85.0804596 156.4593048  35.4567108  85.1150665 157.0438995  36.6380043
  84.5808716 156.4897003  37.2919159  85.5815582 157.9158783  36.8433075
  85.6167221 157.1745911  34.4591827  85.5671997 156.9819641  33.4689598
  85.8815231 158.1488037  34.4889221  81.0479050 151.2668610  34.1135902
  81.6559219 150.2436676  34.4408150  79.7311020 151.4800720  34.4006691
  79.3637161 152.3800964  34.1266441  78.8632812 150.5118713  35.1329346
  79.4388199 150.1322784  35.9771881  77.6015244 151.2344971  35.6443672
  77.2385025 151.9141693  34.8734169  76.4797440 150.3789520  36.1252556
  76.8793488 149.5364532  36.6897278  75.8086929 150.9728851  36.7457504
  75.8192749 150.0138855  35.3387413  78.0590286 152.2503815  36.8019447
  78.6667099 153.0735321  36.4261322  77.1920319 152.7107697  37.2757187
  78.7728043 151.5341644  37.9323120  79.7570419 151.1625671  37.6472168
  78.8687210 152.2222900  38.7721863  78.1141663 150.7410889  38.2863274
  78.5426483 149.2836304  34.3082085  78.2833252 148.2140961  34.9083023
  78.6285172 149.3338470  32.9434052  78.9266434 150.2115173  32.5422554
  78.1089478 148.2328491  32.1343689  78.2420349 147.3047180  32.6901894
  76.5738220 148.4038086  31.8740940  76.1226196 147.4554138  31.5824356
  76.0599670 148.6916046  32.7912788  76.2818985 149.7330170  30.7042885
  74.9909058 149.5699463  31.0070190  78.8663788 147.8617554  30.8435230
  78.5985184 146.7590637  30.3450565  79.8210754 148.6338654  30.3193398
  80.1345978 149.4238892  30.8649082  80.5010986 148.2966003  29.0733223
  81.5166550 148.6913757  29.0435066  80.5985413 147.2112427  29.0491886
  79.7263870 148.7583923  27.7597160  80.2966309 148.5172424  26.7235813
  78.4831848 149.3542633  27.8823986  77.9311676 149.2612000  28.7230644
  77.7433319 149.7199097  26.6337776  77.7361832 148.8316345  26.0020981
  76.3419266 150.2058258  27.0061817  75.8969803 149.5934906  27.7905045
  76.4254913 151.2201233  27.3964500  75.4803009 150.0961914  25.8045635
  75.5007248 149.1590118  25.0192757  74.8165817 151.1718903  25.5620899
  74.2328720 151.1352081  24.7386608  74.8071594 151.9529419  26.2023659
  78.5091705 150.7384491  25.7975922  79.1640015 151.6167297  26.3316479
  78.5326920 150.6328125  24.4883976  78.0201263 149.8769531  24.0570335
  79.2409744 151.5400848  23.5949478  80.2846146 151.5590363  23.9089146
  79.2660904 150.9015045  22.1592255  79.8004379 149.9555054  22.2468319
  78.2383118 150.7137604  21.8485336  79.8839645 151.7298279  21.1365604
  79.3173828 151.9709473  19.8666420  80.1493912 152.9140930  19.3750706
  79.9615402 153.4256897  18.4426594  81.2315750 153.1269531  20.1731358
  82.0521011 153.6909637  20.0036526  81.0805054 152.3686829  21.2754726
  81.8050690 152.2941132  22.0728703  78.5874939 152.9381561  23.5954800
  77.4099579 153.0696716  23.3206406  79.3658676 154.0351105  23.8146820
  80.3682556 153.9692383  23.9194736  78.8517227 155.4228058  23.9864349
  77.7645416 155.3868103  23.9168053  79.0993729 155.8751984  25.4034290
  80.1823883 155.9262085  25.5155373  78.6660538 156.8676605  25.5274258
  78.5149002 154.9727020  26.5395374  79.0730591 154.0370178  26.5069656
  78.6945419 155.4773254  27.4888458  76.7709503 154.4703979  26.4376221
  76.0383835 156.0491028  26.8838577  76.1894073 156.8021698  26.1104240
  74.9543304 155.9549103  26.9476490  76.5582581 156.3915405  27.7786026
  79.4120331 156.4211884  22.9778824  79.2706146 157.6140747  23.1842289
  79.9807510 155.9474182  21.8609467  79.8798981 154.9588623  21.6801758
  80.7105255 156.7514648  20.8838902  80.6516037 156.2083740  19.9406548
  80.1950684 157.7032776  20.7556438  82.1639404 156.9476166  21.2751637
  82.8618774 155.9777069  21.5471535  82.7108307 158.1790771  21.1571674
  82.0773926 158.8815460  20.8030396  84.2095947 158.3626251  21.1876545
  84.7803650 157.5203400  21.5786343  84.7851410 158.4111938  19.7576427
  84.5012360 159.3033905  19.1995316  85.8597183 158.5749512  19.8386555
  84.4624023 157.2599030  18.8753757  85.2178116 156.1601257  18.7853565
  86.1603928 155.9604034  19.2732506  84.4774399 155.1813812  18.1594906
  84.7903748 154.2306061  18.0245228  83.2260818 155.6217804  17.8340530
  82.0637894 154.9968109  17.3089714  82.0306320 153.9437561  17.0715294
  80.9076157 155.7748718  17.0322323  80.0390930 155.3512878  16.5499077
  80.8145218 157.1351166  17.4717159  79.8707962 157.6396332  17.3259697
  81.9567337 157.7629700  18.0066929  81.9808578 158.8140259  18.2538891
  83.1991501 157.0359650  18.1620216  84.7265015 159.5519409  21.9537907
  84.0857239 160.6212463  21.8515053  85.8726959 159.3475342  22.6055641
  86.2957306 158.4326935  22.6704292  86.7742615 160.4167023  23.0963020
  86.1861115 161.2375183  23.5066853  87.6701202 159.9116516  24.1779671
  87.1588669 159.4577026  25.0268803  88.3280945 159.1520233  23.7559166
  88.4814911 161.0902557  24.7721100  89.2003098 161.4115753  24.0183525
  87.7032394 161.8228607  24.9859810  89.1829834 160.8061829  26.1262093
  88.4669266 160.5366516  26.9025555  89.8152161 159.9299622  25.9826584
  90.0331497 162.0295868  26.5685463  90.8649445 162.1422272  25.8731804
  89.4221878 162.9279175  26.4800453  90.6592102 161.8381653  27.9207268
  91.1572113 160.9604034  27.9613094  91.4231033 162.4753418  28.0955353
  90.0224991 161.8375549  28.7047577  87.6019592 160.9050293  21.9279385
  88.2495804 160.1055908  21.2700291  87.7836533 162.2059631  21.8913002
  87.3522873 162.8510132  22.5377674  88.6092300 162.9032745  20.9321880
  88.9298782 162.1428375  20.2201233  87.6645279 163.8011169  20.1470680
  87.0603104 164.4708557  20.7590065  88.2942581 164.3710632  19.4638958
  86.8264465 162.9923401  19.1864777  87.2958832 162.7284088  17.8673458
  88.2073593 163.1012573  17.4239578  86.4705200 162.1267548  16.9413815
  86.8150711 162.0337219  15.9220552  85.2204437 161.6133423  17.3579540
  84.5736694 161.0784454  16.6782742  84.7007904 161.8445892  18.6321659
  83.7117004 161.5185242  18.9181480  85.5269089 162.5170441  19.5465279
  85.1100159 162.8630219  20.4808178  89.8240814 163.6427460  21.5895424
  89.7054367 164.3193665  22.5903244  90.9539261 163.6985779  20.9150925
  91.0656509 163.0984802  20.1104164  92.1928635 164.3081055  21.4653511
  91.9457855 165.1439209  22.1199322  93.1396255 163.3411713  22.2001171
  94.0409546 163.9011688  22.4493523  92.4849777 162.9981842  23.5642223
  91.5528641 162.4586487  23.3964577  93.1389160 162.3596954  24.1581993
  92.1547241 163.8898468  24.0971279  93.4308090 162.1040497  21.4844074
  94.1927185 162.3826447  20.9711056  92.9604721 164.9208221  20.2486362
  93.0300217 164.3036041  19.2086334  93.5736313 166.1078033  20.4188480
  93.6512527 166.6172943  21.2874680  94.1267242 166.9588470  19.3794174
  93.5222931 166.9590302  18.4723587  94.2506104 168.3989868  19.9327049
  94.8508759 168.2505035  20.8303337  94.6650391 169.0563202  19.1683254
  93.2584610 168.7977600  20.1441746  95.5249100 166.4541931  18.9389324
  96.3741684 166.2515259  19.8376923  95.8132172 166.2034607  17.6399136
  95.0807724 166.2739716  16.9480705  97.1220779 165.5698090  17.2361183
  97.4230042 164.8172150  17.9649239  96.9513168 164.8222198  15.9081440
  97.9746170 164.6136627  15.5959625  96.0936203 163.5357208  16.0768490
  95.0499954 163.7676392  15.8643456  96.3711243 162.7979126  15.3240376
  96.1587982 163.0877686  17.0684109  96.4811935 165.6818695  14.9438438
  96.6999359 165.2792816  14.1002359  98.2130814 166.5811768  17.0309010
  99.3629837 166.2575531  17.2853527  97.8801575 167.8795624  16.7501202
  96.8989792 167.9973602  16.5415382  98.7471542 169.0484314  16.8761177
  99.8179779 168.8489380  16.8356628  98.3795319 169.9142456  15.6622810
  97.3035126 169.9046783  15.4884977  98.6859665 170.9335938  15.8971033
  99.0831985 169.3838654  14.3960209 100.1445465 169.4222565  14.6412830
  98.9046097 168.3106842  14.3290777  98.7583160 170.0249939  13.0587521
  99.2084503 171.0177002  13.0618963  99.1832352 169.4190674  12.2584944
  97.1614838 169.9379730  12.8094463  96.8569641 168.8983917  12.6883144
  96.6325302 170.4161682  13.6338406  96.7558594 170.6743622  11.5982924
  97.2283859 170.2317047  10.8231297  95.7629471 170.6379700  11.4168968
  96.9643173 171.6599274  11.6711540  98.6180649 169.7621460  18.2504139
  97.5678940 169.6841278  18.9224014  99.6986389 170.5066681  18.5654907
 100.4984283 170.5463562  17.9499722  99.9417953 171.0043182  19.9223690
  99.6408920 170.1651764  20.5495815 101.4755783 171.0124817  20.1316414
 101.7596436 171.2012939  21.1668987 102.0979156 170.1526947  19.8835297
 102.0550079 172.2216034  19.3130226 102.0960312 172.0003815  18.2464962
 101.4362259 173.1082764  19.4509430 103.4904099 172.5360260  19.7900963
 103.5060425 172.6320190  20.8757496 104.0984344 171.6928558  19.4622574
 103.9674530 173.8589478  19.2089500 103.1728058 174.5841980  19.3840179
 104.8696136 174.2534180  19.6764927 104.2522202 173.8322754  17.7157307
 103.6386871 173.2443085  17.1698418 104.2326889 174.7718811  17.3457832
 105.1367264 173.3872528  17.5164680  99.2291565 172.2587891  20.3224602
  99.4728775 172.7032013  21.4479809  98.4835968 172.9048309  19.4340343
  98.4294662 172.5933380  18.4747944  97.9570007 174.2295990  19.7036209
  98.0015793 174.4873047  20.7617798  98.8356857 175.2673340  18.9673634
  98.3463898 176.2409210  18.9956532  99.7620392 175.4150391  19.5224743
  99.1835938 174.9758301  17.4898796  98.7095642 173.9877777  16.9167213
  99.8011703 175.8609314  16.8432064  96.4926224 174.4362640  19.3553295
  95.9320374 175.5738068  19.5128975  95.8100204 173.4175262  18.8966122
  96.1928787 172.5132294  18.6604538  94.3286362 173.4887085  18.6857243
  94.0252228 174.3401031  18.0764732  93.8237305 172.2098083  18.0404739
  93.8987427 171.4217224  18.7897320  92.7403564 172.3154907  17.9836979
  94.4578705 171.9354706  16.6483879  94.0893784 172.7065735  15.9718447
  95.5355453 171.9544373  16.8107834  94.0272827 170.3840179  15.8040972
  92.2510605 170.4715729  15.6082201  92.0225220 171.0940857  14.7431517
  91.7798233 169.5234375  15.3492174  91.9269791 170.9126129  16.5508499
  93.6469421 173.5922089  20.0401516  94.2233124 173.1753540  21.0522137
  92.4325943 174.0764923  20.0508633  92.0634613 174.5216064  19.2227821
  91.5431290 174.2821045  21.1535912  91.8501511 173.5617981  21.9118729
  91.6807861 175.6759338  21.7745476  92.7514038 175.7839813  21.9483452
  91.4398270 176.4029999  20.9990387  90.8894653 175.7863617  22.9881020
  91.4026489 175.6615448  23.7897682  90.0848846 174.1479645  20.7123642
  89.7593842 174.8843689  19.7442436  89.2617188 173.2437897  21.2723141
  87.8461609 172.9920654  20.8693790  87.8648758 172.8730469  19.7860584
  87.1426315 173.7316437  21.2517033  87.4618378 171.6381073  21.4307423
  87.8195724 170.8734894  20.7411785  86.3980942 171.5903168  21.6636753
  88.3010406 171.6217346  22.7258224  88.5525208 170.5901794  22.9722958
  87.7773285 172.1451874  23.5257168  89.5791092 172.4297485  22.4747086
  89.8147964 173.0749817  23.3210049  90.7543259 171.4487152  22.3214417
  91.0220413 170.9332123  21.2006893  91.5042877 171.2040863  23.3775234
  91.2807922 171.7817688  24.1752968  92.5413513 170.1408234  23.4424057
  93.0948181 170.2980652  22.5166378  93.4995880 170.4336090  24.6091690
  93.9766464 171.3564606  24.2792110  92.9134521 170.7599792  25.4682522
  94.4375916 169.3275909  25.0351086  94.9322586 169.7445679  25.9123459
  93.8927307 168.4091187  25.2533398  95.5150909 169.0694427  24.0035973
  95.5260010 169.5777893  22.8960323  96.4586792 168.2424011  24.3889980
  97.0922699 167.9411774  23.6624107  96.5397491 167.8052368  25.2958622
  91.8946304 168.7485809  23.5467052  92.4354401 167.7195892  23.0889111
  90.7443924 168.6524963  24.2223225  90.3632736 169.5047455  24.6077023
  90.0475998 167.3478241  24.5422325  90.2144699 166.6557007  23.7168789
  90.5608063 166.7800751  25.9250393  90.0937500 165.8192444  26.1412392
  91.5988998 166.4939880  25.7558632  90.4302521 167.6659546  27.1324406
  90.7242661 168.6926117  26.9142017  89.3822632 167.6666260  27.4321480
  91.3369217 167.2011414  28.3034248  90.9978714 167.6611023  29.2316399
  91.2908478 166.1148071  28.3799591  92.7778397 167.6387329  28.1536827
  93.1164246 167.3551636  27.1571598  92.7370834 168.7210388  28.2763157
  93.7462769 167.0942078  29.1291561  93.7333755 166.0842896  29.1318722
  94.6532898 167.3502350  28.7660007  93.6646957 167.4758606  30.0607090
  88.5242310 167.5060120  24.4822979  87.9901199 168.4124756  25.1241360
  87.7952118 166.5462952  23.8643742  88.2743835 165.7906799  23.3958397
  86.3073883 166.5348663  23.8974037  85.9678955 166.7958984  24.8997555
  85.7771835 167.5969086  22.8643379  84.7952499 167.9197235  23.2103233
  86.3667450 168.5112457  22.9315948  85.7011490 167.1690674  21.3977680
  86.7689896 167.3954926  20.5088558  87.6459656 167.9196777  20.8589172
  86.6663208 166.9792938  19.1499367  87.3916092 167.2604065  18.4007130
  85.5596161 166.2453766  18.7097778  85.6047440 165.9486389  17.6723251
  84.4757233 166.0947418  19.5575695  83.6176682 165.5373383  19.2119637
  84.5184250 166.6374359  20.8690071  83.6950302 166.5587769  21.5634422
  85.7656250 165.0849457  23.6909008  86.5127640 164.1548309  23.4122009
  84.4433289 164.8792725  23.6782837  83.8905640 165.6111755  24.1011887
  83.7391510 163.6384583  23.4305649  84.4155273 162.9220123  22.9643707
  83.2299042 162.9500122  24.6754112  82.3910446 163.5073547  25.0922794
  82.9256210 161.9248352  24.4643478  84.2326813 162.8007660  25.7861328
  84.5931015 163.8315735  26.5681915  84.1110611 164.7931671  26.4713154
  85.3859634 163.4384918  27.5891018  85.9079514 164.0390167  28.2111835
  85.4630280 162.0628967  27.6296291  86.0446091 161.1671600  28.5607471
  86.4091873 161.5610199  29.4979534  86.0217590 159.7551575  28.2563591
  86.4540787 159.0244904  28.9239140  85.4147034 159.3382721  27.0609474
  85.4239807 158.2962341  26.7772579  84.8545990 160.2615662  26.1519146
  84.4127731 159.8049774  25.2785854  84.9303436 161.6533356  26.3769398
  82.6388016 163.8119049  22.4039364  81.9709015 164.8094177  22.5547523
  82.5812073 162.9442749  21.4172726  83.2411652 162.1799774  21.4375610
  81.5257187 162.7953644  20.4218178  80.8466339 163.6478271  20.4377670
  81.9783096 162.7093201  19.4339638  80.6661224 161.5220490  20.7014866
  80.9366531 160.4312439  20.2136917  79.7274323 161.6344910  21.6475220
  79.4996414 162.5803528  21.9187164  78.9213867 160.5556335  22.2425804
  79.5781937 159.6878052  22.1827545  78.6615753 160.8857574  23.7188263
  77.9501038 161.7115326  23.7190952  78.2378616 160.0094604  24.2094097
  79.9262466 161.1991425  24.5767021  80.4507904 162.0292053  24.1034794
  79.4306335 161.7015076  25.9653282  79.1460495 160.8508606  26.5846081
  80.2553711 162.2133789  26.4612103  78.6082458 162.4022369  25.8213081
  80.8617859 160.0422821  24.7714329  81.2687073 159.6495056  23.8396416
  81.7166672 160.2732544  25.4069901  80.3872910 159.1831055  25.2455368
  77.5538406 160.2842255  21.5566864  76.8768921 161.2738190  21.2623711
  77.1565857 159.0455933  21.4544563  77.7362518 158.3449707  21.8940220
  76.0646515 158.6297913  20.5974636  76.1073303 159.1926117  19.6649895
  76.2415390 157.1365204  20.2481556  75.2509003 156.8385315  19.9047356
  77.1405869 156.8684845  19.0296497  78.1473923 157.1416321  19.3456345
  77.0778427 155.8197021  18.7394791  76.9333572 157.5008698  18.1663685
  76.6786880 156.3957520  21.3574162  76.7450714 155.4600220  21.1534672
  74.7143326 158.9440765  21.1999836  74.3690414 158.3270111  22.1985779
  73.9104614 159.8433228  20.6075726  74.2299042 160.0929108  19.6824989
  72.5974350 160.2309875  21.2134991  72.7376480 160.5355377  22.2506561
  71.9723587 161.5122223  20.5542316  71.0028381 161.6685486  21.0272007
  72.6828995 162.3249054  20.7052135  71.7001343 161.3435974  19.0742569
  72.5077057 161.8357239  18.5322838  71.6680069 160.2864685  18.8105164
  70.4248734 161.9517975  18.6196709  70.4372635 162.9962463  18.9312363
  70.5010681 161.9330139  17.5324993  69.1880264 161.2894592  19.1666813
  68.7496643 161.6057434  20.0198555  68.6249008 160.2242432  18.5924187
  68.9786072 159.6518860  17.4808292  69.4425888 160.2248230  16.7904930
  68.4987717 158.8121643  17.1897717  67.6126785 159.6849060  19.0969143
  67.1803741 160.0750122  19.9221535  67.0613174 159.0957947  18.4894218
  71.6058197 159.0342407  21.2803516  70.7973022 158.9263458  22.1974106
  71.7638931 158.0026093  20.3924637  72.4320908 158.2182159  19.6664219
  71.0696564 156.6874237  20.5157223  70.0014877 156.9043274  20.5072021
  71.5234756 155.8849335  19.3545456  70.9512939 154.9633179  19.2480278
  71.2281876 156.3855743  18.4324532  72.9562607 155.5903778  19.2355385
  73.1612091 154.7892151  19.7231026  71.4110641 155.8640289  21.7525978
  70.5267715 155.1647644  22.1378880  72.5551224 156.0043945  22.3901711
  73.2930603 156.5507660  21.9694252  72.8665314 155.3484192  23.6719074
  72.1593857 154.5205841  23.7242489  74.1942368 154.6334076  23.6073895
  75.0808029 155.2261658  23.3821220  74.4073868 154.1255646  24.5480061
  74.1521606 153.8346558  22.8669014  72.6238403 156.2925110  24.9069481
  72.6799774 155.8650818  26.0131702  72.2718353 157.5664215  24.7327099
  72.1609192 157.8955994  23.7843189  72.0138626 158.6090698  25.8074760
  72.5539627 158.2794189  26.6950111  72.6559067 159.9943085  25.4569397
  72.2987366 160.2901917  24.4705410  72.3515244 160.6721802  26.2543926
  74.1687088 160.0401001  25.4205608  74.5772476 159.2869720  24.7467594
  74.5408478 161.4305115  24.8681927  74.2272949 162.2447052  25.5215416
  75.6236343 161.5523224  24.8391228  74.1557312 161.4940186  23.8504734
  74.7703934 159.9452667  26.8422298  74.6299210 158.9668732  27.3017120
  75.8527451 160.0682220  26.8034382  74.3341751 160.7130127  27.4812698
  70.5463638 158.7741852  26.2306805  69.6741791 158.5742798  25.3919468
  70.2462006 159.0452728  27.5292416  71.0166397 158.9709473  28.1780872
  68.8649597 159.2158508  28.0477524  68.0789108 159.2465515  27.2932377
  68.5159836 157.9379730  28.8655720  68.7584152 157.1349792  28.1695042
  69.2441864 157.8053894  29.6657352  67.1375275 157.6662598  29.2327366
  66.8452072 158.4918213  29.8816490  66.0433578 157.4818420  28.1946678
  66.1753159 156.5798340  27.5970974  65.0640793 157.3853912  28.6634998
  65.9356384 158.3445587  27.5372486  67.1041260 156.4936066  30.2397118
  67.8450241 156.7249603  31.0049839  66.1391754 156.4301147  30.7426414
  67.2071991 155.5150146  29.7708473  68.7370453 160.3958130  29.0566158
  69.2964020 160.3507538  30.1761818  67.9279861 161.4459839  28.7582741
  67.1460876 161.6166992  27.5644703  66.1321182 161.2386475  27.6949997
  67.5953522 161.1259308  26.7010975  67.1337891 163.1425323  27.2969093
  66.1442947 163.2815857  26.8614082  67.9467926 163.3879700  26.6136189
  67.3333588 163.7611389  28.6767483  66.3898010 164.2664795  28.8827496
  68.1375046 164.4906006  28.7733746  67.7393875 162.6229248  29.5697079
  68.5673065 162.9634857  30.1915417  66.7059708 162.3195648  30.6840553
  65.6884613 162.9956512  30.7350864  67.1018448 161.5054016  31.7187996
  67.9656830 161.0132446  31.5408440  66.4515533 161.1724854  32.9563866
  65.3826904 161.0951691  32.7572517  67.0446625 159.8721619  33.5154686
  66.6886444 159.1257172  32.8054314  68.1317215 159.9416046  33.4756813
  66.5719376 159.5765228  34.9770164  67.0235443 160.3650360  35.5790138
  65.4911880 159.7180023  34.9858780  67.0574493 158.2305603  35.3963356
  68.0864944 158.0576935  35.0812378  67.1576538 158.2408752  36.4816780
  66.1676102 157.0679626  34.9994049  65.7329254 157.1584625  34.0922356
  65.9154358 156.0482941  35.8016357  66.2902908 155.8755035  37.0191383
  66.9566269 156.5134125  37.4304581  65.9236908 155.1604156  37.6309700
  65.2252197 155.0217438  35.2410507  64.8642044 155.0604706  34.2985687
  65.0276718 154.2330780  35.8402901  66.5739670 162.3492737  33.9643250
  65.5695877 162.6331482  34.6519928  67.6566925 162.9954681  34.0205078
  84.2787628 154.6729736  13.8035593  85.3611450 153.8132324  13.5261850
  83.3242188 153.9449768  14.3416967  85.1348267 152.4290009  13.8414993
  82.9614639 152.8608704  14.7377615  83.8433151 152.1101074  14.4109020
  84.8012772 156.3345642  11.3643341  84.6824417 156.8515167  12.4806776
  84.3557663 156.0753479  13.6936131  85.0363922 158.3089142  12.6587505
  84.4447708 156.8903503  14.7334404  85.0665207 159.0259552  13.9028025
  84.6390228 158.0088196  14.9294300  85.2851486 160.2141724  14.0239363
  85.2462463 158.9257355  11.8828268  86.5700989 154.3704681  12.9963789
  86.9173126 153.9288177  11.8244352  86.0135727 151.3365631  13.5960760
  87.0302048 150.6702881  14.1832848  86.7465134 149.4432678  14.8884525
  87.1781082 150.3063354  12.9114885  86.6876373 148.1639252  14.3022966
  87.3114929 149.5439301  11.9883957  87.2108612 147.2776489  13.3474627
  87.1988449 148.4383698  12.5463924  86.5032272 146.6172791  13.0272179
  86.4985275 149.4344025  16.3538952  86.7569580 148.4607391  17.0446873
  86.0768127 150.5099487  17.0597210  86.1435242 151.2848816  16.4759426
