Cpptraj Generated Restart                                                       
 6188  4.0000001E-01
  90.6192474 180.3430176  24.5891914  91.5732651 180.4478149  24.2746124
  90.5444794 179.3805084  24.8859882  90.3980942 180.9210663  25.3873463
  89.6303329 180.5329895  23.4187737  88.6444626 180.3478851  23.8452816
  89.6750259 181.9808655  22.8978081  90.6417542 182.1411896  22.4204941
  88.9384079 182.1455841  22.1114464  89.4062729 183.0394745  23.9576759
  88.4410095 182.8133698  24.4107151  90.1219406 182.9762726  24.7773838
  89.5131302 184.7750092  23.3378296  87.8193741 184.9156189  22.5395947
  87.0447311 185.1627045  23.2655315  87.8383865 185.7664795  21.8585777
  87.5803299 183.9913330  22.0136127  89.7014999 179.4548340  22.3334579
  90.7879410 178.9540253  22.0422802  88.5872116 178.9709015  21.8175526
  87.7363968 179.4739685  22.0253105  88.5124588 178.0056000  20.6798649
  89.1014328 177.1502380  21.0108624  87.0558548 177.4467621  20.5158844
  86.4722824 178.3368225  20.2806168  87.0231400 176.5362854  19.2874203
  87.6451950 175.6576996  19.4583588  85.9768295 176.3287201  19.0632343
  87.3516846 177.1266479  18.4320717  86.6185379 176.7994080  21.8043728
  85.9199753 176.0183716  21.5042248  87.4877853 176.3233337  22.2580910
  85.9540710 177.6370392  22.8844013  85.0321732 177.9404907  22.3882885
  85.8031387 176.9865112  23.7458820  86.6420135 178.4679108  23.0408077
  89.2166595 178.5033569  19.4196339  89.3006821 179.6827393  19.2627563
  89.8633728 177.6464996  18.6322975  89.9406586 176.6910858  18.9505539
  90.4925919 178.1039581  17.3711224  90.0667877 179.0594177  17.0647488
  91.9723816 178.5191040  17.6636143  92.3985825 179.0452423  16.8094273
  91.9053345 179.1454315  18.5531750  92.9512482 177.3568115  17.9355202
  92.5919037 176.2183075  17.8651810  94.1542435 177.6323242  18.4280262
  94.7747955 176.8514404  18.5869236  94.4689713 178.5839539  18.5523682
  90.2643509 177.1624603  16.1795349  90.6471634 177.4228058  15.0371809
  89.5105743 176.0853882  16.3975754  89.2034836 175.8931427  17.3403606
  88.8704758 175.1841736  15.3840733  89.6573410 174.9967651  14.6534452
  88.4064026 173.8823547  16.0372467  89.2443161 173.4246979  16.5631332
  87.5892487 174.0667267  16.7346420  87.8934937 172.8197174  15.0952110
  88.7749252 171.8188171  14.6797943  89.8114319 171.8405609  14.9824400
  88.2898941 170.7447357  13.8503361  88.8806076 169.8943634  13.5432110
  86.9520645 170.7371063  13.5022202  86.4889297 169.9005737  13.0001106
  86.0784302 171.7217407  13.9752226  85.0389099 171.5590515  13.7316551
  86.5523987 172.8281708  14.6521120  85.9183426 173.6569366  14.9305210
  87.6718903 175.9068451  14.6626015  86.8829575 176.6335144  15.2446880
  87.7596893 175.8856354  13.3165436  88.4473572 175.2518616  12.9350348
  86.8551178 176.5343781  12.3468342  86.5486755 177.5180359  12.7026501
  87.5814972 176.6823425  11.0064449  88.4529114 177.3368225  11.0261755
  87.8553085 175.6665955  10.7211275  86.6442032 177.2650909   9.9244785
  85.3987885 177.1649628  10.0261936  87.1498032 177.9660492   9.0451107
  85.5953674 175.6282196  12.2659998  85.6194153 174.5044403  11.7119246
  84.4213715 176.0557251  12.7422361  84.4475479 177.0247650  13.0257282
  83.1245651 175.2929993  12.8416557  83.2048798 174.4426270  13.5188084
  82.0829620 176.1438599  13.5838919  81.0864792 175.7084808  13.5092297
  82.4997482 176.2400360  15.0531282  83.4313049 176.7649689  15.2646713
  81.7053070 176.7016296  15.6395493  82.6199112 175.2019653  15.3631048
  82.1478424 177.4509735  13.0018053  81.4953384 178.0071259  13.4337053
  82.6358109 174.8621368  11.4524965  81.7326508 174.0464630  11.3913059
  83.2395020 175.3276215  10.3363209  84.0411606 175.9237671  10.4848394
  82.9096985 174.8498383   8.9987803  81.8235626 174.8210907   8.9117823
  83.4656601 175.8368988   7.9626846  83.1003494 175.5193176   6.9860616
  83.1301422 176.8256226   8.2756815  84.8430710 175.7395935   8.0279655
  85.0916901 176.1644135   8.8521748  83.3474045 173.4050598   8.7030792
  82.7230682 172.7248230   7.9201655  84.4362564 172.8979034   9.3611937
  84.9759369 173.5880127   9.8637695  85.1257324 171.6327057   8.9323893
  85.4374084 171.7467346   7.8941431  86.4261703 171.5383606   9.6618891
  86.0898132 171.4656525  10.6961403  86.9838028 170.6256104   9.4520407
  87.3442459 172.8049469   9.4715471  86.8886871 173.7027588   9.8892851
  88.6026154 172.5519409  10.3061028  88.9374084 171.5484009  10.0435619
  89.3767319 173.2473602   9.9817142  88.4795380 172.5865173  11.3885813
  87.6510468 173.1068268   8.0424862  86.6982956 173.3376770   7.5659475
  88.3063583 173.9729004   7.9498887  88.1384354 172.2589722   7.5611444
  84.2460098 170.3557739   9.1521206  84.4311600 169.3743591   8.3849468
  83.2961884 170.2088470  10.1172771  83.1394272 170.9346619  11.3338327
  82.3592148 171.6873474  11.2205248  84.0902176 171.4285431  11.5343075
  82.7754288 169.9630890  12.4761906  82.2545776 170.4311066  13.3115215
  83.7125015 169.4505463  12.6936655  81.9167862 169.0038147  11.6290121
  80.9436417 169.4871826  11.5427084  81.7169495 168.0520477  12.1212626
  82.5464249 168.9384766  10.2480164  83.2066956 168.0747070  10.1702261
  81.4814148 168.7885437   9.1492701  81.3221970 167.7373047   8.5411577
  80.7417374 169.8986969   8.9522562  80.9214630 170.7368927   9.4863234
  79.6004028 170.1388855   8.0479956  78.8994522 169.3675537   8.3670912
  78.8897629 171.4710541   8.2248144  78.1640091 171.6502228   7.4315424
  78.3598251 171.6527710   9.6261616  79.2320557 171.7273102  10.2755899
  77.7840500 172.5761566   9.6888599  77.7184219 170.8666229  10.0244970
  79.8235931 172.5816498   8.1263075  79.9622726 172.7417450   7.1899638
  79.9105988 169.8628998   6.4908404  79.0015717 169.5558777   5.7179475
  81.2009811 170.0211487   6.1087389  81.8850555 170.3295898   6.7847600
  81.7498703 169.6284485   4.7909274  80.9557571 169.8560181   4.0798030
  82.9501572 170.5087585   4.4751096  83.2373276 170.4689026   3.4243741
  82.6140976 171.5347443   4.6252236  83.9900665 170.2982025   5.3593330
  84.7667236 170.8245850   5.1560793  82.0144958 168.1304932   4.6553144
  82.1316757 167.6661224   3.5312955  81.8704224 167.3471985   5.7358055
  81.6403656 167.8112030   6.6029172  82.0722961 165.8742218   5.7575183
  82.2669830 165.5749512   6.7873912  80.8048935 165.1613464   5.3465428
  80.5786972 165.2978821   4.2890482  80.9765320 164.1103516   5.5790286
  79.6330109 165.5169220   6.1851630  79.3782349 164.8084259   7.3608923
  78.3638687 165.4914246   7.8845963  77.9221344 165.1648254   8.8144321
  77.9126816 166.4481354   7.0490580  77.0428314 166.9117432   7.2693329
  78.7464752 166.5788574   6.0244951  78.7186050 167.2662811   5.1919851
  83.3041611 165.3397369   4.9493299  83.2583542 164.3200684   4.2740483
  84.4374466 166.0337830   5.0783281  84.4369812 166.8489838   5.6746197
  85.6388779 165.6612244   4.3540282  85.5215378 165.7647400   3.2753162
  86.7484741 166.6105347   4.8205943  86.9362640 166.3963470   5.8727155
  87.6485977 166.3964233   4.2443652  86.4925919 168.1316681   4.5625577
  86.6604309 168.2678375   3.4941995  85.4661560 168.2943115   4.8913174
  87.5120087 169.4376984   5.4716692  88.9104691 169.4522247   4.3473029
  88.4934769 169.4217377   3.3406801  89.5974274 170.2914124   4.4565763
  89.4908905 168.5478668   4.5299115  86.0976639 164.1419525   4.4867620
  86.6563416 163.5525970   3.5538442  85.7804184 163.4805298   5.6099968
  85.2447205 163.9359589   6.3350620  86.0576019 162.0694885   5.8211827
  87.1381760 161.9318542   5.7822771  85.5511856 161.6866760   7.1936226
  85.8179092 160.6842194   7.5283294  85.9962006 162.3292694   7.9533110
  84.0090179 161.6810608   7.3687043  83.4756393 162.8936920   7.8628788
  84.1337738 163.7424622   7.9762506  82.0803909 162.9824677   8.1247377
  81.6968689 163.8966522   8.5532017  81.1875229 161.9403534   7.8153338
  79.8657150 162.0300293   7.8701711  79.6945953 162.9731903   7.9226294
  81.7546997 160.7538147   7.3190289  81.1442642 159.9454651   6.9444079
  83.1572037 160.5739594   7.1797671  83.5806274 159.6836548   6.7387929
  85.4705124 161.0504913   4.8086042  86.0562820 159.9645233   4.6350007
  84.4418640 161.4600372   4.0313730  84.0649490 162.3591309   4.2953200
  83.7577515 160.8224182   2.9248648  83.6672668 159.7477875   3.0832458
  82.3981857 161.5540161   2.8724873  81.9302368 161.6851807   3.8481526
  82.6611862 162.5773010   2.6044877  81.3203125 161.0419159   1.8007418
  81.7202072 160.9751434   0.7889475  80.6996231 159.7174988   2.2377200
  80.2978363 159.8067932   3.2470307  79.8506393 159.5138702   1.5851331
  81.4063721 158.8922119   2.1511388  80.2186203 162.0977783   1.8318033
  80.6378479 163.0771027   1.6010205  79.3987885 161.9113922   1.1380904
  79.7895126 162.2499847   2.8221543  84.5317078 160.8227386   1.6109084
  84.2652740 160.0218658   0.7361692  85.4054947 161.8022308   1.4849004
  85.5575714 162.3947906   2.2885454  86.2285461 161.9958344   0.2919147
  87.2366104 162.2084808   0.6478617  86.2003250 161.1338806  -0.3746727
  85.8786545 163.1953430  -0.5720283  84.6666260 163.4706116  -0.7919838
  86.8879089 163.8685760  -1.0553387  87.8199997 163.6592560  -0.7274579
  86.8419571 165.1240997  -1.8446308  86.1381302 165.8255768  -1.3966955
  88.2783890 165.7334595  -1.9025267  88.1210175 166.7895660  -2.1215711
  88.7202148 165.6165771  -0.9129648  89.1511459 165.1247559  -2.8233037
  90.0097046 165.5463409  -2.7411647  86.3406296 164.8443909  -3.2778943
  86.1644821 163.6882782  -3.6387644  86.1676712 165.8690338  -4.1173019
  86.2073898 166.8393707  -3.8398833  85.9220963 165.7001953  -5.5262179
  85.6245956 166.6818695  -5.8948860  87.2898331 165.2895355  -6.2131634
  88.0490189 165.9486084  -5.7920384  87.6438675 164.2929382  -5.9494414
  87.2381973 165.5028992  -7.7562122  86.7558441 166.5512085  -8.2049351
  87.7855148 164.6370087  -8.5074396  84.6573257 164.8302917  -5.8896208
  84.7164612 163.7595520  -6.5285344  83.5520477 165.1971436  -5.3018289
  83.5994263 165.9625549  -4.6445627  82.2294769 164.6959381  -5.6052876
  82.2794266 163.6348724  -5.8496962  81.3410568 164.8503113  -4.4331031
  81.0360718 165.8859863  -4.2831826  80.3852310 164.3855438  -4.6749487
  81.8347244 164.0861359  -3.1745238  82.0962296 163.0496674  -3.3876879
  82.6887665 164.6044922  -2.7386131  80.6536560 164.0731964  -1.7797225
  79.7355576 162.5883484  -2.2140479  80.3576584 161.6997986  -2.1064935
  78.8459625 162.4593658  -1.5975339  79.3027191 162.7027893  -3.2078569
  81.6310959 165.4450989  -6.7973309  82.0203934 166.5552521  -7.2200570
  80.6126938 164.8374023  -7.4584246  80.2979431 163.9461517  -7.1024756
  79.6397476 165.5663910  -8.2480659  80.2642365 166.1924744  -8.8853598
  78.9525223 164.5293579  -9.1148472  79.6796875 163.9531708  -9.6869841
  78.3701019 163.8730011  -8.4682608  77.8738632 165.1295929 -10.0398026
  77.0280838 165.4099731  -9.4119987  78.2391739 166.0566101 -10.4816895
  77.4902649 164.1263275 -11.1781874  77.3161011 162.8926849 -10.9218941
  77.1777115 164.6037750 -12.2876501  78.6266479 166.4508514  -7.3921103
  78.5376053 166.1942749  -6.1841359  77.9804153 167.4932404  -7.9558501
  78.1096039 167.7022705  -8.9355040  76.8932495 168.1846161  -7.2826047
  76.4521790 167.6434479  -6.4455242  77.4596558 169.4954987  -6.7566996
  78.0382996 170.0540009  -7.4924612  76.6751556 170.1928711  -6.4628778
  78.4954758 169.2184753  -5.6089377  78.0652084 168.5479126  -4.8650827
  79.4261246 168.8475647  -6.0383558  78.8616333 170.5366364  -4.8651299
  77.9608841 171.2154694  -4.2443419  80.0650864 170.9195404  -4.9026103
  75.6660080 168.5214539  -8.0958080  75.8157349 168.6775818  -9.3129950
  74.4750824 168.6721954  -7.4070964  74.5373993 168.6993561  -6.3993869
  73.1612854 169.0605774  -8.0096092  73.2919235 169.0997467  -9.0910444
  72.1429214 167.9308624  -7.8458495  71.9180984 167.9820709  -6.7805166
  71.2324524 168.1618652  -8.3988409  72.5996857 166.5310211  -8.1445379
  72.5662994 166.0048370  -9.4553919  72.1764145 166.5830231 -10.2800713
  72.9750290 164.6979828  -9.7058210  72.8848343 164.2725220 -10.6943798
  73.6271210 164.0184937  -8.6596088  74.0534668 163.0417480  -8.8345518
  73.5733566 164.4897766  -7.2973866  73.9427261 163.9458160  -6.4406004
  73.0524673 165.7167358  -7.0850101  72.9303665 165.9944916  -6.0485048
  72.5936127 170.4283600  -7.4844618  72.3067169 170.6518555  -6.3317556
  72.2937241 171.3032684  -8.4093971  72.5232391 171.0438538  -9.3581514
  71.9323730 172.7335510  -8.1587372  72.2673111 173.0812836  -7.1814971
  72.6783829 173.6873932  -9.1097441  72.3049927 174.6792908  -8.8551226
  73.7552261 173.6311493  -8.9505072  72.5531998 173.3571777 -10.5804434
  73.3626404 172.4600677 -11.2693958  72.9221725 172.6060028 -12.5236235
  73.3145523 172.0262604 -13.3460112  71.7827988 173.3871765 -12.6041632
  71.2811203 173.6035767 -13.4536295  71.5189362 173.8373108 -11.3542814
  70.7077942 174.4873047 -11.0610733  70.4179764 172.9647369  -8.2498960
  69.9686432 174.0100861  -7.8391314  69.5673599 172.0270844  -8.7537165
  69.9628067 171.2174072  -9.2099705  68.1124878 172.1298065  -8.7238216
  67.8435593 173.1804962  -8.8325710  67.7402802 171.7182312  -9.6620007
  67.5096436 171.3309479  -7.5988617  68.1176453 170.4210968  -7.0531545
  66.2897339 171.7126312  -7.2261944  65.9497986 172.4763641  -7.7929883
  65.5057602 171.4712830  -5.9748464  66.0193634 170.7680969  -5.3192205
  65.5285873 172.7821198  -5.1548414  64.9084320 173.5504303  -5.6165819
  65.0943527 172.4987946  -4.1960564  66.9350204 173.4089813  -4.8368177
  67.4451904 173.6172333  -5.7772727  66.6947479 174.2919006  -4.2444849
  67.8292847 172.4788361  -4.0221405  67.3479996 172.0056000  -3.1662714
  68.0082932 171.6588135  -4.7175727  69.2425385 172.9692993  -3.8227756
  69.8917465 172.3425598  -4.2764707  69.7137527 174.0380707  -3.1807323
  69.0317764 174.9739075  -2.5651467  68.0351791 174.8239594  -2.4988329
  69.4445648 175.6979675  -1.9946643  71.0092239 174.2854309  -3.2125423
  71.5531769 173.7549591  -3.8779850  71.4456635 175.0448151  -2.7095754
  64.0732574 170.9864807  -6.1684928  63.1854439 171.7174835  -6.6700573
  63.8337059 169.7205505  -5.7807579  64.5171585 169.1951141  -5.2545390
  62.5147705 169.1267853  -5.7983117  62.0438957 169.3571167  -6.7539930
  62.7106743 167.5400543  -5.6860619  63.3677826 167.3287048  -4.8424754
  61.4255066 166.7570496  -5.5156531  60.8382797 166.9470673  -6.4140716
  61.5531387 165.6751404  -5.4793997  61.0150528 166.9910431  -4.5333710
  63.3244209 167.0428925  -6.8669124  63.5595284 166.1189575  -6.7543492
  61.6680756 169.6351166  -4.5995698  62.1578979 169.6522980  -3.4626389
  60.4584503 170.0966492  -4.8671665  60.1761284 170.1721344  -5.8339639
  59.3474770 170.1686859  -3.8901281  59.5955467 169.4086456  -3.1492600
  59.1619987 171.6006927  -3.3175404  59.1588936 172.1867523  -4.2365789
  58.1576500 171.7404633  -2.9177277  60.1276093 171.9999237  -2.2360594
  61.1481361 172.0537720  -2.6151712  59.8282585 173.4044495  -1.7389935
  59.0102921 173.3862305  -1.0187843  60.6742439 173.8326569  -1.2013615
  59.5772095 174.1077118  -2.5330279  60.1755943 171.0457458  -0.9768294
  60.3181686 170.0046692  -1.2665447  60.9969864 171.4215393  -0.3667574
  59.2352676 171.2159271  -0.4524975  58.0210953 169.7514801  -4.5788798
  57.7030563 170.2884979  -5.6377935  57.2528687 168.8506927  -3.9785898
  57.4992371 168.4660187  -3.0777924  55.8473244 168.4965515  -4.2940578
  55.8095741 168.3988800  -5.3790164  55.6161613 167.1241608  -3.6873164
  55.4944954 167.2059174  -2.6072180  54.6771774 166.7967987  -4.1336870
  56.5422592 165.9886169  -4.0944386  57.6880531 165.5130005  -3.3475986
  58.2875023 164.7023773  -4.1925440  59.2064438 164.1578064  -4.0331540
  57.6528473 164.6137238  -5.3786688  57.8879318 163.9368591  -6.0904818
  56.5169029 165.3541107  -5.3166180  55.7307281 165.4115143  -6.0548859
  54.9140663 169.6096954  -3.8354595  55.2739677 170.4550171  -2.9590938
  53.6873894 169.6544189  -4.3914495  53.5183105 168.9731140  -5.1176200
  52.5798836 170.4559174  -3.8132663  52.7812653 171.5198975  -3.6888132
  51.3609390 170.3077393  -4.7733688  51.1812592 169.2505951  -4.9689493
  50.5011673 170.7018585  -4.2315621  51.4883308 171.0827332  -6.1219521
  51.3300972 172.3334808  -6.0582080  51.6382065 170.4662170  -7.2427816
  52.2047882 169.8868408  -2.4185617  52.1114120 168.6779327  -2.2288926
  51.8304634 170.8146515  -1.4936500  51.9705429 171.7792664  -1.7582117
  51.4024162 170.5049591  -0.1689680  52.2558212 170.0676727   0.3492771
  51.0486603 171.7643127   0.6172682  50.1296921 172.2046814   0.2303913
  50.7951241 171.4456177   1.6283320  52.1901474 172.8288269   0.7029858
  53.3686409 172.3983765   0.8142324  51.8870316 174.0075531   0.6716328
  50.2201729 169.5502014  -0.2067341  49.2304878 169.7152710  -0.9541743
  50.3174362 168.5845337   0.6941134  51.1705437 168.6275482   1.2330650
  49.3812866 167.4403839   1.0314212  49.9317665 166.7748260   1.6963335
  48.0566368 167.8311157   1.7411040  47.5395508 168.5298309   1.0834363
  47.3909836 166.9711914   1.8154879  48.3375206 168.2982025   3.1785316
  48.4993744 167.4010925   4.0409789  48.1040573 169.4997253   3.5564547
  48.9862938 166.5235748  -0.1462434  48.0440369 165.7614136  -0.1380693
  49.7050056 166.6589508  -1.2931614  50.5097771 167.2681580  -1.2567925
  49.6683083 165.6291962  -2.3411102  48.6617165 165.4068756  -2.6952817
  50.3167114 166.0806580  -3.6428514  49.9717484 165.3664856  -4.3905525
  49.9377480 167.0573273  -3.9438403  51.7288399 166.0194550  -3.6118081
  52.0202065 166.7179413  -3.0212038  50.2946434 164.2590332  -1.8229979
  51.2425575 164.2678375  -1.0238537  49.7011185 163.1206818  -2.2713873
  48.8282013 163.2085571  -2.7717841  50.1144218 161.7588806  -2.2538893
  50.4785805 161.5102539  -1.2570570  49.0228348 160.6913452  -2.4745519
  48.2123108 160.6915894  -1.7457501  48.4649086 160.8443604  -3.3983521
  49.7212524 159.0349579  -2.5899339  48.6524086 158.5566254  -3.2331061
  51.2548637 161.5767212  -3.2600543  51.1124344 161.9150391  -4.3841996
  52.2969322 160.9059143  -2.7849295  52.1803513 160.6210938  -1.8229622
  53.5425682 160.5780334  -3.5099316  53.3459473 160.5952911  -4.5819125
  54.5855103 161.6369324  -3.1334062  54.9357529 161.5099640  -2.1090472
  55.4633484 161.3561707  -3.7153642  54.1288261 163.0570374  -3.4029357
  53.2322464 163.3278351  -2.8453450  55.0027161 163.6624298  -3.1622581
  53.8002205 163.2378845  -4.8696737  54.3315315 162.5735779  -5.7736263
  52.9846420 164.1967163  -5.3138614  52.7451439 164.1007385  -6.2903490
  52.5780411 164.8610382  -4.6708498  54.0817566 159.1901855  -3.2299387
  53.8015671 158.5577240  -2.2276812  54.9014587 158.5738373  -4.0808787
  55.0936584 158.9769592  -4.9867797  55.5727921 157.2525177  -3.8786964
  55.4052429 156.9733887  -2.8384497  54.9002609 156.0941772  -4.6554518
  53.8376999 156.1255798  -4.4144316  54.8785439 156.2193298  -6.2288256
  55.9042740 156.5032806  -6.4641137  54.5237770 155.3224945  -6.7366786
  54.2196770 157.0520020  -6.4751043  55.3698997 154.6952515  -4.2766857
  55.2105026 154.5284882  -3.2113769  54.7346687 153.9884491  -4.8105559
  56.4263840 154.5158844  -4.4761262  57.0649948 157.3116913  -3.9372342
  57.5649185 157.8721466  -4.9473906  57.7668724 156.8143921  -2.9225466
  57.3179359 156.3154755  -2.1678069  59.2069740 157.0716553  -2.6999309
  59.6250916 157.3248291  -3.6741924  59.3991470 158.3301697  -1.7900146
  59.1555023 158.1657715  -0.7403909  60.8272362 158.8573151  -1.8690187
  61.1354485 159.3098297  -2.8115268  61.0408134 159.5331421  -1.0409265
  61.4835358 157.9902649  -1.7942564  58.5160103 159.5754242  -2.2694392
  58.7630844 159.7491913  -3.3167500  57.5068359 159.1951294  -2.1112087
  58.6997986 160.8847961  -1.5474417  59.6916656 161.3209686  -1.6659415
  57.9643440 161.5655823  -1.9760895  58.5150757 160.7385712  -0.4832054
  59.9381447 155.8726501  -2.1774399  59.4985542 155.2561646  -1.1837682
  61.1001282 155.4872284  -2.7573168  61.6610107 156.0130005  -3.9951098
  61.7460785 157.0996094  -4.0075388  61.0372581 155.6446686  -4.8095837
  63.0438766 155.3175507  -4.1001420  63.7407417 155.9158630  -3.5131962
  63.4117546 155.2003632  -5.1194749  62.8229485 153.9804688  -3.3556485
  63.7400284 153.4796753  -3.0453787  62.3189049 153.2723236  -4.0133448
  61.9124260 154.4006805  -2.2030811  61.2055359 153.6103516  -1.9505069
  62.7166138 154.7855835  -0.9258859  63.1604233 155.9074097  -0.7900030
  62.9342842 153.8258514  -0.0561028  62.5595932 152.9182129  -0.2925301
  63.6738510 153.9342041   1.2154673  64.0476074 154.9400330   1.4070697
  62.8453941 153.3379669   2.4103723  62.7432442 152.3026886   2.0849895
  63.5274734 153.2891083   3.8306482  63.7237015 154.2989349   4.1909814
  62.8899422 152.8068237   4.5716329  64.4156342 152.6597748   3.7740428
  61.4598808 153.9331360   2.5741727  60.7680359 153.7740326   1.7470493
  61.0562210 153.5531921   3.5126848  61.5638847 155.0057373   2.7379737
  64.9154358 153.0905762   1.0012907  64.8067551 151.9442749   0.5753716
  66.0127335 153.5584564   1.5339398  66.1124496 154.5289917   1.7950865
  67.1667099 152.7424011   1.6941705  67.1352463 152.1139832   0.8041081
  68.4010849 153.5636139   1.6915616  68.3250885 154.3453369   2.4473653
  69.2284012 152.9035034   1.9521549  68.8596344 154.2157898   0.3410501
  68.0594711 154.8259430  -0.0779543  70.0374527 155.1056824   0.5911832
  70.8284531 154.6655731   1.1984030  70.4789581 155.4177094  -0.3552886
  69.7470093 156.0606995   1.0289893  69.3247833 153.1977386  -0.7225530
  68.5390930 152.4765320  -0.9476213  69.6533432 153.6457977  -1.6603063
  70.1225204 152.5660553  -0.3317848  67.0673447 151.9462585   3.0551260
  67.1072464 152.6000824   4.0834918  66.8677521 150.6146698   3.0848951
  66.9007187 149.7702637   1.9183015  67.8711319 149.9461517   1.4541259
  66.0731506 149.9132843   1.2234796  66.9326248 148.3315735   2.5100942
  67.9384842 147.9935760   2.7592912  66.4082718 147.6798859   1.8111814
  66.1543579 148.5035553   3.8144889  66.4535141 147.7653809   4.5585995
  65.0937195 148.3756104   3.5981696  66.3826218 149.9374847   4.2603002
  65.4679260 150.4533539   4.5523815  67.4258118 149.9744110   5.4208937
  67.0257645 149.8429871   6.5758915  68.7524948 150.1084747   5.1809859
  69.0817261 150.1402435   4.2266817  69.6875000 150.3048553   6.3365898
  69.3071442 149.6216431   7.0959530  71.0851822 149.7411957   5.9147687
  71.5835419 150.4199219   5.2226214  71.7620926 149.7710266   6.7685933
  71.0871964 148.3055725   5.4532270  70.8466034 147.8894196   4.1472034
  70.9061356 146.5570221   4.2711782  70.7973099 145.8658142   3.4485097
  70.8991089 146.1679077   5.5583358  71.0524445 145.2266846   5.8910313
  71.0380096 147.2588501   6.3543506  71.2206192 147.3257751   7.4166951
  69.7852859 151.6715393   7.0604739  70.4355698 151.7727966   8.1373215
  69.1369324 152.6679688   6.5306201  68.6594391 152.5277100   5.6517410
  69.0783386 154.0368500   7.1228580  70.0425644 154.3745728   7.5027480
  68.7876663 155.0964050   6.0748358  67.8424454 154.8393097   5.5967512
  68.7144470 156.5438690   6.5694880  69.7060394 156.8547668   6.8984070
  68.5548248 157.2826080   5.7840672  68.0408325 156.7788391   7.3935828
  69.8834305 155.0269470   5.0463753  70.0079727 154.1117859   4.4675202
  69.7183609 155.8177948   4.3146634  70.7935562 155.2409058   5.6067262
  67.9773712 154.1530609   8.3142853  66.8554993 154.6379700   8.1270390
  68.4110184 153.7099609   9.4959145  69.2926788 153.2175446   9.4783268
  67.4820480 153.5175171  10.6583385  66.4489975 153.3598175  10.3484373
  67.7913284 152.2442627  11.4554920  68.7039948 152.4625397  12.0100002
  67.0173416 151.9700775  12.1723413  68.1028137 151.0860748  10.6097889
  67.4945068 151.1008301   9.7054443  69.1639938 151.0821075  10.3608027
  67.6569366 149.5919647  11.3903322  69.0277939 148.5695801  10.7893152
  69.9704971 149.0249481  11.0927000  68.9478073 147.5793304  11.2377853
  69.1430130 148.5190277   9.7066002  67.3727798 154.7684631  11.4987745
  66.4293671 154.7964020  12.3446808  68.3172531 155.7308655  11.4086933
  68.8544312 155.7945251  10.5557604  68.1801987 157.0689392  12.1748180
  68.1127167 156.7589569  13.2176323  69.4300385 157.9975433  12.0946550
  69.2229843 158.8636780  12.7231770  70.6273880 157.2933197  12.7479448
  70.7893448 156.3033905  12.3214254  71.6024399 157.7798615  12.7223845
  70.4281006 157.1113739  13.8040142  69.8650970 158.3832703  10.6372976
  69.0198441 158.8034821  10.0922480  70.6127548 159.1736450  10.5706644
  70.2657471 157.4986725  10.1422586  66.9488602 157.8993378  11.8335609
  66.4527664 157.7689667  10.7218819  66.4598770 158.7520142  12.7055349
  66.7722015 158.7940674  13.6651096  65.4298096 159.6886749  12.3773117
  64.7684479 159.2688751  11.6193733  64.5117035 159.9526215  13.5540438
  64.2713623 158.9532166  13.9167404  65.0369186 160.5808258  14.2734947
  63.2424927 160.6440887  13.0638094  63.3607368 161.5669250  12.4959259
  62.7960968 159.9259796  12.3759546  62.0258217 160.9133453  14.3386831
  62.2758255 159.4634094  15.4907789  63.2334671 159.4606781  16.0113678
  61.4395905 159.4665375  16.1899242  62.2475052 158.5463562  14.9022980
  65.9165573 161.0587006  11.8032007  66.3491287 161.9835205  12.5563202
  66.0578766 161.1591492  10.4868565  65.9913559 160.3419647   9.8970222
  66.3560867 162.4269867   9.8563194  67.3392410 162.7737274  10.1745768
  66.4523239 162.1811676   8.3349009  67.1581802 161.3796997   8.1169128
  65.5069656 161.7642670   7.9876447  66.6593018 163.4158325   7.5408912
  66.0256577 164.2629852   7.8034282  68.1666870 163.8556671   7.5328183
  68.7786102 163.0022278   7.2407875  68.3576050 164.6239014   6.7834969
  68.5232239 164.1732941   8.5126610  66.2953568 163.0910034   6.0637960
  65.2412186 162.8139648   6.0521693  66.6822357 163.8844910   5.4244194
  66.8687210 162.1935577   5.8315129  65.2260361 163.4311676  10.1793604
  64.0223389 163.0677795  10.2182846  65.5209732 164.6964264  10.3925228
  66.5145264 164.8486023  10.2934723  64.6180725 165.8754730  10.3801460
  63.5677452 165.5994568  10.2867537  64.7047348 166.5858307  11.7659283
  65.7542801 166.7899475  11.9777880  63.9966888 167.9396820  11.8936729
  62.9318504 167.7256470  11.9854107  64.4089890 168.3960724  12.7935734
  64.1399536 168.6229401  11.0565720  64.2175827 165.6857605  12.8878098
  64.8406906 164.7983856  12.7764683  64.4596710 166.0980835  13.8673363
  62.7877083 165.1950836  12.9327517  62.5549240 164.7101288  11.9847431
  62.5934105 164.4498596  13.7041101  62.1440582 166.0425568  13.1685820
  64.8662491 166.8737793   9.2016745  66.0515060 166.8697052   8.7616310
  63.8782120 167.5536346   8.5963802  62.4252472 167.4377136   8.7417259
  62.1019554 167.8785858   9.6847124  62.0384216 166.4208832   8.6744900
  61.8653259 168.3233795   7.6322880  60.9870186 168.8486481   8.0074625
  61.5925293 167.6647644   6.8077164  62.8955917 169.4009705   7.3030171
  62.7402267 170.2378082   7.9839401  62.8700790 169.6841125   6.2507458
  64.2265167 168.6324921   7.5940971  64.5033798 168.0513916   6.7144632
  65.3507462 169.4946899   8.0309944  65.6784821 169.5935974   9.1922350
  66.0829010 170.1192932   7.1089540  65.8297043 170.1229858   6.1312118
  67.2585297 170.9982605   7.3631248  67.4524384 171.5985565   6.4742236
  67.0249786 171.6303711   8.2198601  68.5816040 170.2578125   7.6882191
  69.6353226 170.7383728   7.3178353  68.4627762 169.1040344   8.3511696
  67.5196762 168.7936859   8.5365028  69.6165009 168.2824402   8.7643499
  70.3156891 168.8839569   9.3452253  69.0054398 167.1274109   9.6763334
  68.3443985 167.5587311  10.4280567  68.4952698 166.3864441   9.0608730
  70.0916519 166.3401642  10.4099865  70.6336212 165.7383728   9.6804562
  70.8185883 166.9638062  10.9302902  69.5556564 165.3168182  11.4219465
  68.4459305 164.8623352  11.4500055  70.4483185 164.8632965  12.2656431
  70.1817322 164.1051483  12.8773899  71.4264679 165.0284576  12.0757713
  70.3149643 167.7342072   7.5314188  69.6311264 167.2695618   6.6135635
  71.6007156 167.6435852   7.5255246  72.1238708 168.0485382   8.2886925
  72.4006271 166.9068451   6.4792337  71.9129181 167.0679321   5.5178361
  73.7436218 167.6034088   6.3252525  74.2324982 167.5334930   7.2969561
  74.6631393 167.0717010   5.1975212  74.1107178 167.1440125   4.2606678
  75.4983978 167.7652435   5.1003790  75.1075821 166.0825653   5.3079410
  73.5141296 168.9643707   6.0265517  73.9106064 169.4516907   6.7524581
  72.5330353 165.3498535   6.8243427  72.7158279 164.9689941   7.9856324
  72.6373749 164.4327240   5.8058429  72.4039917 164.8286743   4.9064789
  72.7390213 162.9877930   5.8745127  72.8954620 162.7667236   6.9303312
  71.3103256 162.4685822   5.5156889  70.5943680 162.9471130   6.1839089
  71.1878662 162.7514038   4.4701662  71.1763687 160.9149628   5.6458516
  71.9376221 160.3335266   5.1257334  71.1895447 160.4147797   7.0842752
  70.4430771 160.9384613   7.6814728  71.1904449 159.3290253   7.1802964
  72.1676941 160.6432037   7.5075474  69.8707733 160.5577545   5.0926313
  69.9401627 160.7452698   4.0211253  69.6931763 159.5140839   5.3521061
  68.9960785 161.1321564   5.3976808  73.8851013 162.5732269   4.8466997
  73.5543594 162.3918610   3.6646986  75.0799408 162.3855133   5.2964931
  75.4768906 162.7061615   6.6656680  74.9501877 162.1273804   7.4244137
  75.2420807 163.7659302   6.7650790  76.9931793 162.3300934   6.7704272
  76.9976959 161.3647003   7.2764649  77.5999374 163.0227051   7.3537393
  77.4718933 162.2356873   5.3440218  78.2962799 161.5244141   5.2932801
  77.8066940 163.2177429   5.0099978  76.1765060 161.7880249   4.6443429
  76.2176056 162.0362091   3.5837698  75.9489594 160.2827301   4.7011857
  75.6268539 159.7581024   5.7560573  76.0658417 159.5491943   3.5899343
  76.2247314 160.0428772   2.7232492  75.9140472 158.0367737   3.5000899
  75.8666534 157.6395721   4.5140381  74.5451965 157.5268250   2.9144189
  74.5014801 157.7303009   1.8444735  74.5306778 156.4373169   2.9437699
  73.2885208 157.9952240   3.6011455  73.2619476 159.0847626   3.5839596
  72.0980911 157.4630737   2.8418834  72.0026093 156.3791656   2.9060526
  71.2677460 158.0254822   3.2688735  72.1602249 157.7254181   1.7857485
  73.2152634 157.3519745   5.0116382  73.9377823 157.8112335   5.6862946
  72.2246780 157.4933624   5.4439073  73.5183258 156.3071594   4.9435892
  77.0796127 157.4929657   2.6566458  77.3356476 158.0083923   1.6054144
  77.6893311 156.3088837   3.0414662  77.3413086 155.9331207   3.9119678
  78.5297852 155.4162140   2.2725089  78.7627640 155.7695923   1.2680453
  79.9197540 155.2669067   2.9535837  80.3771744 156.2562866   2.9532495
  79.7962036 155.0029297   4.0038939  80.8856201 154.3056793   2.2538009
  80.4476166 153.3177185   2.1117334  81.0634155 154.6424255   1.2324815
  82.2915192 154.1843719   2.8652928  82.5496063 154.8054810   3.8939338
  83.2314453 153.4313660   2.3189552  84.0519562 153.3301392   2.8991320
  83.0621567 152.9769287   1.4329935  77.8190231 154.0382385   2.1194708
  77.5818863 153.3750610   3.1242609  77.3853912 153.5854950   0.9435084
  77.6293793 154.1157990   0.1192852  76.5124435 152.4647675   0.7564335
  76.2272873 152.0169067   1.7083864  75.2645950 152.9815216   0.0032540
  75.6287231 153.3624420  -0.9508983  74.5989532 152.1377563  -0.1786467
  74.4460373 154.0734253   0.6734990  75.1358185 154.8710480   0.9493614
  73.3990402 154.7290344  -0.1630097  72.6390839 154.0223999  -0.4965502
  72.9321518 155.4742584   0.4810077  73.9266968 155.0834045  -1.0485002
  73.8015366 153.5636444   1.9181049  74.4979477 153.4387360   2.7472689
  73.1253204 154.2877197   2.3725805  73.3487244 152.5855865   1.7553701
  77.1488724 151.4165649  -0.1761796  77.5504837 151.6565552  -1.3293382
  77.1805420 150.1812592   0.3497579  76.8997803 150.1387634   1.3190204
  77.9845352 149.1103516  -0.2513779  78.4700089 149.4114990  -1.1796696
  79.2011261 148.8606110   0.5847300  79.7832336 148.0651245   0.1194684
  79.8678131 149.7195892   0.5086699  79.0060120 148.3522949   2.0193725
  78.5069275 149.2165833   3.0428803  78.4835892 150.2814636   2.8642659
  78.2616882 148.7793579   4.3431358  77.8307419 149.5140991   5.0070877
  78.4810486 147.4345398   4.6853995  78.2688141 147.0197449   5.6597176
  78.9018860 146.5203705   3.6724851  78.9425812 145.4735107   3.9348738
  79.1596298 146.9796753   2.4008453  79.4052811 146.2893219   1.6074399
  77.1548767 147.8391571  -0.6061279  77.6137848 147.0797424  -1.4839838
  75.9868546 147.5806427  -0.0545174  75.6243896 148.2050629   0.6517560
  75.1383514 146.4837799  -0.4941872  75.7199020 145.5639343  -0.5556680
  73.9906235 146.2348633   0.4734068  73.4228363 147.1611786   0.5608199
  73.4189301 145.3885651   0.0925426  74.4998703 145.8870239   1.8685995
  74.9627380 144.6316376   2.2910411  75.2424545 144.7599487   3.5935016
  75.6754303 144.0081024   4.2366738  75.0775681 146.0588684   3.9093013
  75.1571350 146.4736481   4.8267541  74.4887238 146.7249908   2.8861611
  73.9052582 147.6293335   2.9762843  74.5727234 146.8332977  -1.9394208
  74.1428757 147.9690704  -2.1831806  74.4450912 145.8029022  -2.8562531
  74.8017502 144.3536072  -2.7093458  74.2221909 143.9704437  -1.8694628
  75.8642120 144.1595612  -2.5622830  74.3630829 143.6546631  -4.0119672
  73.3308029 143.3489227  -3.8416283  75.0443192 142.8437347  -4.2697034
  74.4638443 144.7724762  -5.1028914  73.8777466 144.6144257  -6.0082145
  75.5121155 144.8740692  -5.3837895  74.1688385 146.0617523  -4.3420010
  74.8866501 146.7516785  -4.7856841  72.8006210 146.6178589  -4.6700974
  72.6799850 147.4394531  -5.5783067  71.8056412 146.1143341  -3.9427521
  71.9376678 145.3636017  -3.2801335  70.4552841 146.6337128  -4.0674415
  70.0710754 146.5685120  -5.0853987  69.4391174 145.8665924  -3.1766880
  68.4849930 146.3338318  -3.4204755  69.3958130 144.8448486  -3.5538762
  69.5104752 145.8381958  -1.6361244  69.5951767 146.8526306  -1.2464573
  68.5531845 145.4976196  -1.2415427  70.5619202 144.8853912  -1.0615356
  71.6510773 144.7278137  -1.6034048  70.3424072 144.2984009   0.1255531
  71.1239929 143.8359070   0.5675040  69.4015579 144.2912598   0.4927788
  70.4251328 148.1384430  -3.7445920  69.6777496 148.9538269  -4.3302889
  71.1662140 148.6205597  -2.6954544  71.8534622 148.0763550  -2.1938276
  71.1658020 150.0383301  -2.3307719  70.1607971 150.4594421  -2.3037338
  71.8741760 150.3183136  -0.9714463  72.9241791 150.0285950  -0.9306698
  71.9834518 151.3854065  -0.7778475  71.0876541 149.5766754   0.1238178
  70.0295792 149.7926025  -0.0243579  71.3252792 148.5132446   0.0960396
  71.5383682 150.1140137   1.5092317  72.7522583 149.9215851   1.8415271
  70.6367340 150.5897064   2.2381909  71.9173126 150.8973694  -3.3607168
  71.4764481 151.9153442  -3.8270869  73.0705032 150.3892975  -3.7783797
  73.4783325 149.5944214  -3.3072736  73.8201218 151.0081482  -4.8620491
  74.1219177 152.0052643  -4.5414715  75.0642853 150.2287445  -5.2364187
  74.8482056 149.1840820  -5.4602437  75.7680817 150.9019775  -6.4210591
  76.0678787 151.8993073  -6.0992336  76.5973892 150.2272797  -6.6334872
  75.1446304 150.8860168  -7.3150129  76.0064697 150.2811432  -4.0471683
  75.4840317 150.1182251  -3.1045043  76.7450333 149.4807587  -4.0022893
  76.4063187 151.2809448  -3.8780265  72.9249954 151.1096497  -6.0642352
  72.8359299 152.1389465  -6.7380323  72.2518234 149.9928741  -6.4640322
  72.4389954 149.1221313  -5.9877396  71.3513489 149.9676361  -7.6173153
  71.9103394 150.1328125  -8.5383759  70.7534790 148.5620117  -7.7345405
  71.4871368 147.7558746  -7.7342935  70.1326828 148.3702393  -6.8593612
  70.0898056 148.3764954  -8.9669638  69.6144714 147.5424500  -8.9709902
  70.2399063 150.9739075  -7.5844150  69.9964523 151.7016754  -8.5252743
  69.6053696 151.1319733  -6.4167104  69.8729630 150.5909882  -5.6068802
  68.5733643 152.1129456  -6.1412325  67.7419968 152.0504608  -6.8433971
  67.9175415 152.0074768  -4.7275715  67.6951981 150.9532471  -4.5624318
  68.6508942 152.3084564  -3.9794345  66.5074692 152.6430817  -4.5485969
  65.9038544 152.3238220  -5.3982053  66.1619186 152.2318420  -3.6001334
  66.3514633 154.4224243  -4.3977594  67.2505646 154.6617737  -2.8829799
  68.1259766 154.0138397  -2.8389015  67.5354004 155.7110291  -2.8054006
  66.6859360 154.4125519  -1.9845492  68.9930878 153.5214844  -6.3153200
  68.3138657 154.2768097  -7.0652728  70.0572891 153.9083252  -5.6587029
  70.5207520 153.2214813  -5.0811749  70.4832535 155.3034821  -5.8422241
  69.6018829 155.9156799  -5.6512136  71.5593414 155.6670685  -4.8183389
  71.7549667 156.7362213  -4.9002919  71.2034912 155.4227600  -3.3451951
  71.3718491 154.3950653  -3.0233340  71.6794815 156.1927643  -2.7380476
  70.1287537 155.5916138  -3.2779303  72.9681931 154.9936829  -4.8859615
  73.4601059 155.1404724  -5.8475142  73.6312256 155.4788513  -4.1696482
  72.9782944 153.9106750  -4.7630839  70.9326019 155.6374512  -7.2388191
  70.6097946 156.7461243  -7.6826291  71.5616455 154.7043304  -7.9035788
  71.6340027 153.7996979  -7.4602880  72.0321503 154.8685913  -9.3464518
  72.8072052 155.6295624  -9.4377575  72.8304367 153.5873108  -9.7712374
  73.5841522 153.4172058  -9.0024204  72.1082230 152.7711792  -9.7502155
  73.5276337 153.7357178 -11.1252728  72.7948303 153.8677521 -11.9213028
  74.2009430 154.5921173 -11.1620855  74.1838531 152.4380951 -11.4580564
  73.4062958 151.6744385 -11.4763527  74.6338501 152.3738403 -12.4487505
  75.3623810 152.1775055 -10.5871019  75.8166885 153.0004120 -10.2175779
  75.9300308 151.0733032 -10.2609558  75.4884033 149.9070435 -10.6719370
  74.5538940 149.8291473 -11.0470762  76.1447220 149.1757965 -10.4382296
  77.0277863 151.0054321  -9.5903091  77.4706497 151.8162384  -9.1821594
  77.3889618 150.0627136  -9.6204748  70.8811951 155.1725311 -10.3202868
  70.9603424 156.0986481 -11.1119223  69.7499313 154.5144348 -10.1561995
  69.6434555 153.8183594  -9.4321642  68.6564255 154.6745911 -11.0857487
  68.9959793 154.8408508 -12.1080780  67.8391113 153.2995453 -11.1077776
  67.5615616 152.9813995 -10.1028643  66.9101257 153.3829498 -11.6718035
  68.7686310 152.2422028 -11.7385130  69.5902634 152.5378723 -12.5652447
  68.7870407 151.0083466 -11.2786646  69.5629349 150.4727936 -11.6409798
  68.2176208 150.8131866 -10.4676332  67.6863022 155.8035889 -10.7710772
  66.9538574 156.2465363 -11.6455545  67.7437515 156.3181763  -9.5436277
  68.3578873 155.8104706  -8.9230061  66.9850006 157.4604034  -8.9764042
  66.0121307 157.5785065  -9.4535666  66.9240036 157.1672363  -7.4728055
  66.2914963 156.3313141  -7.1739969  67.9210281 156.9415131  -7.0945406
  66.4104462 158.3936768  -6.6313238  67.1295776 159.2126160  -6.6481695
  65.0485764 158.8406372  -7.1550837  64.4794769 157.9428558  -7.3964043
  64.4292450 159.2753906  -6.3705378  65.1621017 159.5137787  -8.0048380
  66.3325119 157.9596710  -5.1452394  67.3066101 157.7510834  -4.7028203
  65.9715958 158.8077240  -4.5632858  65.6734848 157.1012726  -5.0151281
  67.7835083 158.7564240  -9.3078222  67.1543274 159.8218536  -9.5811577
  69.1095886 158.6838074  -9.3721504  69.5656738 157.8316956  -9.0788965
  69.9739075 159.8115082  -9.6242809  69.6177750 160.6025085  -8.9642849
  71.4833374 159.4926910  -9.3594122  71.5153198 158.6396942  -8.6815748
  72.4004974 159.0240936 -10.5569639  72.4967499 159.8382263 -11.2753162
  73.3727417 158.8232117 -10.1069775  71.9361954 158.2528687 -11.1715765
  72.2006607 160.6509857  -8.5725708  73.2687759 160.4684906  -8.6905794
  71.9827805 161.5873566  -9.0862169  71.8810425 160.7611237  -7.0946312
  71.9126358 159.7845306  -6.6115575  72.6471786 161.4386749  -6.7177043
  70.9447708 161.3013000  -6.9542484  69.7396851 160.3456421 -11.0562534
  69.6063156 161.5295715 -11.3272896  69.4858246 159.4558716 -11.9883261
  69.6122208 158.4937134 -11.7083817  68.9921799 159.7047577 -13.3490286
  69.5757141 160.5719299 -13.6582136  69.2578583 158.4755707 -14.2786608
  69.3729935 157.6016541 -13.6374731  68.3676910 158.2324219 -14.8588171
  70.4653702 158.7001953 -15.1646185  70.6696167 157.7305756 -15.6187420
  70.1961212 159.4384613 -15.9199734  71.7493744 159.1118622 -14.4216881
  72.0179062 160.3199463 -14.2096090  72.4918137 158.1389465 -13.9595861
  73.1575623 158.3280334 -13.2239752  72.4160004 157.1916046 -14.3015070
  67.5783234 160.3684845 -13.4559526  67.1835175 160.9398193 -14.5132418
  66.8608093 160.4114380 -12.3400793  67.3703308 160.0981445 -11.5262394
  65.5272675 161.0737457 -12.1179733  65.4800720 161.8536682 -12.8779745
  64.3338928 160.1200714 -12.4557943  63.3712845 160.6258545 -12.3805094
  64.4513474 159.8014069 -13.4915352  64.3536835 158.8510132 -11.5842390
  65.1530380 158.2125702 -11.9604445  64.5642090 159.2387085 -10.5874987
  63.0528336 158.1309509 -11.7636471  62.9512558 157.2982635 -11.0676594
  62.2717094 158.8800049 -11.6337824  62.9481277 157.4059448 -13.1658182
  62.8870621 158.1758423 -13.9349899  63.8396454 156.7815399 -13.2243433
  61.7462387 156.5524292 -13.2683744  60.9193039 157.1275940 -13.3423214
  61.8889961 155.9580536 -14.0723906  61.6559982 155.9624023 -12.4536171
  65.5804214 161.8664703 -10.8032694  66.4114456 162.7325287 -10.6369448
  64.5121307 161.6918945  -9.9910049  63.9453354 160.8803406 -10.1915913
  64.0629425 162.6518860  -8.9884710  63.9264183 163.6379852  -9.4324055
  62.7137794 162.1576843  -8.4371099  62.2335167 161.3330536  -8.9638233
  62.8655663 161.8011932  -7.4183011  61.5744934 163.1968079  -8.4782763
  61.7676964 164.3731537  -8.8733416  60.4239235 162.9174957  -8.1059914
  64.9450989 162.8597260  -7.8066373  64.7445145 163.8791046  -7.1831951
  65.9270706 162.0344696  -7.5342150  65.9846802 161.2806854  -8.2039862
  66.9746170 162.1446991  -6.4099979  67.5480957 161.2177582  -6.4144487
  67.9408646 163.3776550  -6.6336069  67.2448196 164.2001953  -6.4691381
  68.6285629 163.4366913  -5.7899909  68.5876007 163.4860992  -7.9489741
  69.2443542 162.6186218  -8.0141964  67.9399033 163.4346161  -8.8241529
  69.5207672 164.6350403  -8.1252823  70.2263412 164.7556915  -7.3032637
  70.0418167 164.5514069  -9.0790176  68.6539841 165.8739624  -8.1809292
  68.1795120 166.0378113  -9.0573616  68.5742569 166.8686981  -7.2952251
  69.2199402 166.9555206  -6.1873479  69.8692856 166.2364197  -5.9021239
  69.0057831 167.7029266  -5.5426550  67.6326523 167.7524872  -7.5237436
  66.9447708 167.7150269  -8.2623377  67.5337601 168.5460205  -6.9067788
  66.4688873 162.2348480  -4.9471703  67.2789078 162.3357086  -3.9889631
  65.1549530 162.2684631  -4.6999993  64.5436554 162.2169037  -5.5023422
  64.4563675 162.2205505  -3.4033432  65.0708389 162.7111206  -2.6484435
  63.1915321 163.0264282  -3.3927357  62.5298805 162.4694672  -2.7293239
  63.3926163 164.5221710  -3.1259830  64.0200958 164.9644623  -3.8997827
  62.4136238 164.9972839  -3.1888409  63.7710342 164.7266388  -2.1244373
  62.5609665 162.9586334  -4.6432686  61.6217346 162.7601624  -4.6364765
  64.2799454 160.7474823  -3.0774820  63.5202103 160.0395355  -3.7106099
  64.8487778 160.3725891  -1.9125261  65.6074905 160.9438629  -1.5688671
  64.5585938 159.1515808  -1.2202401  63.8775330 158.5919342  -1.8613722
  65.8732605 158.3448181  -1.1680443  65.7059250 157.2955322  -0.9249368
  66.3267670 158.3460236  -2.1592214  66.9765778 158.8065643  -0.2494578
  67.9645615 159.7100983  -0.6472176  67.7578964 160.0701294  -1.6442472
  68.9892883 160.0923462   0.1672465  69.7805481 160.7464600  -0.1680723
  69.1469421 159.4889069   1.4241301  69.9662247 159.7431030   2.0803082
  68.1341324 158.6239624   1.9283845  68.2421799 158.1834869   2.9085376
  67.0497589 158.2998352   1.0814538  66.3304977 157.6111755   1.4995611
  64.0007935 159.4276886   0.1479627  64.0538712 160.5346527   0.6852206
  63.3011093 158.3824615   0.6753226  63.3757019 157.4569855   0.2777806
  62.5985260 158.5723572   1.9366628  62.6070595 159.6219177   2.2306654
  61.1329269 158.0356598   1.8877078  61.0663681 157.1735840   1.2240015
  60.7439537 157.8294678   2.8848474  60.5492592 158.8676453   1.4937044
  63.4774857 157.9746704   3.0452302  64.0632248 156.8797760   2.8883758
  63.5290184 158.7003632   4.1302128  63.1387253 159.6316833   4.1501355
  63.9635124 158.2537079   5.4654508  64.2978821 157.2198639   5.3791733
  65.2582855 159.0436859   5.9048700  65.0620041 160.1062622   5.7616763
  65.6467133 158.6665649   7.3683333  65.8520584 157.6034546   7.4938102
  66.5944214 159.1396790   7.6254358  64.9036789 158.9830933   8.1003246
  66.3733368 158.6299591   5.0017052  66.1977997 158.9645996   3.9792972
  67.2952957 159.0787659   5.3713908  66.4606094 157.5442657   5.0432930
  62.8210106 158.3013306   6.5468664  61.9511108 159.1502838   6.5359526
  62.6865654 157.2030945   7.3312764  63.4526024 156.5450439   7.3152719
  61.4687386 157.0215759   8.2223043  60.6387482 157.6658478   7.9322543
  60.9707069 155.5698547   8.0243111  61.8540993 154.9534607   7.8576326
  60.4112663 155.1509399   8.8607550  60.0895042 155.3442078   6.8008676
  60.5590210 155.7500763   5.9048057  59.8522110 153.8733826   6.5363145
  59.3024254 153.3107147   7.2907815  59.3244553 153.8184357   5.5841827
  60.7878723 153.3806000   6.2720957  58.6667099 156.0126953   6.8803859
  58.7370605 157.0295868   7.2665133  58.2606773 155.9153442   5.8735285
  58.0354347 155.4313507   7.5524154  61.7272263 157.3279572   9.7035179
  62.8758316 157.1935120  10.1460829  60.6729546 157.6680298  10.4432821
  59.7609444 157.8716125  10.0600185  60.7195549 157.7861786  11.8661976
  61.7504120 157.9781799  12.1638050  59.8700066 158.9400177  12.3870869
  58.8274307 158.7718201  12.1171846  59.8752213 158.8738098  13.4750624
  60.2111740 159.9049683  12.0121632  60.2556343 156.4241180  12.4005995
  59.0611076 156.2286072  12.5371065  61.1478424 155.4405975  12.6054182
  62.1156311 155.6045380  12.3675003  60.6872139 154.1091766  13.0846348
  59.8820038 153.7833557  12.4261694  61.7672729 153.0660248  12.9173145
  62.6349411 153.3638000  13.5060282  61.3690300 152.1447906  13.3425560
  62.2232094 152.8270111  11.5324907  61.3694153 152.1729889  10.5853434
  60.4514771 151.7088013  10.9144564  61.7172318 152.0454254   9.2424479
  60.9795341 151.5972748   8.5933142  62.9245567 152.6276245   8.8113184
  63.1937943 152.5507660   7.4491000  62.6913605 151.8782959   6.9833164
  63.7729836 153.3314362   9.7300978  64.7224731 153.7246399   9.3980503
  63.3986893 153.4525299  11.0772295  64.0496445 153.9921722  11.7491322
  60.2250252 154.0676880  14.5239735  61.0629768 153.9754028  15.4333143
  58.8963051 154.0473938  14.7670794  58.3124123 153.8937836  13.9573984
  58.2025871 153.9793396  16.0421734  58.6071701 154.6789856  16.7735481
  56.7684326 154.4293213  15.8844957  56.1668091 154.3005371  16.7842541
  56.6869507 155.4954376  15.6727190  56.1577377 153.7778168  14.6784306
  55.2014618 153.7221375  14.7419977  58.2525253 152.5429230  16.7386322
  58.0039711 152.4606934  17.9516087  58.6757050 151.4932098  16.0407524
  58.7645073 151.6436615  15.0459757  59.3032990 150.2519531  16.5010090
  59.8542366 150.4461060  17.4212685  58.2395515 149.2547913  16.9589195
  57.6564941 149.7057343  17.7619152  57.5838318 148.9485626  16.1438370
  58.7158966 147.9388580  17.4644966  59.8109207 147.4484558  17.1650734
  57.9689445 147.3041992  18.3163452  58.3686104 146.4500580  18.6780071
  57.1357651 147.7198334  18.7077084  60.2926979 149.7627869  15.4405298
  59.8477097 149.2335663  14.4180937  61.5805740 149.7899628  15.7535276
  61.8078766 150.1954651  16.6501904  62.6254425 149.5049286  14.7712946
  62.3729820 149.8414307  13.7657471  63.9322128 150.2272644  15.0993719
  63.6554985 151.2764740  15.2027321  64.5421753 149.7599182  16.4304924
  64.8303299 148.7098083  16.4786263  65.4108963 150.3617096  16.6974525
  63.8812141 149.9669495  17.2721405  65.0830688 150.0712891  14.1124706
  64.7466049 150.3567657  13.1157789  65.8967056 150.7493134  14.3701267
  65.4296188 149.0444489  13.9957762  62.8469429 147.9873199  14.7256117
  63.2846260 147.5260010  13.6633511  62.4463806 147.1940155  15.7525263
  61.9685478 147.6927948  16.4894066  62.4908752 145.7113037  15.7287617
  63.4148560 145.3178711  15.3049974  62.3895187 145.1145172  17.1604843
  62.9034882 145.7823944  17.8517723  61.3538589 145.0630646  17.4964333
  62.9752350 143.7042084  17.2217007  62.3996849 143.1040344  16.5169811
  64.0364380 143.7893524  16.9878349  62.7408676 143.1391602  18.6123276
  63.1064568 143.8406219  19.3622589  61.6561775 143.0497131  18.6718216
  63.3471146 141.8092041  18.8331776  64.2992249 141.7930145  19.1698208
  62.9028168 140.6297913  18.3594112  61.9346199 140.5427704  17.5230465
  61.6692162 141.3394470  16.9618359  61.6282310 139.6511230  17.1608410
  63.4153671 139.5109100  18.7925949  64.2138443 139.5884399  19.4062119
  62.9979591 138.6227264  18.5538559  61.3525505 145.1034088  14.8389883
  61.5986862 144.0946655  14.1614790  60.1804085 145.7367096  14.8077297
  59.9834785 146.3889923  15.5532751  59.0758133 145.3458405  13.9142008
  59.4340439 144.4136200  13.4774437  57.7588539 145.1659393  14.6539803
  57.5682220 146.1827393  14.9973326  56.9942245 144.9183197  13.9176931
  57.7337151 144.1647186  15.8376417  58.3372383 144.6083527  16.6295071
  56.7397728 144.0209808  16.2613392  58.2755775 142.7700653  15.4233952
  57.8046951 142.1510315  14.3998613  59.2006683 142.2264404  16.0767593
  58.9182396 146.2982483  12.7081623  58.1098328 146.0464478  11.8379803
  59.8031273 147.2641754  12.4998159  60.4859314 147.4768829  13.2130032
  59.8683739 148.1598206  11.3538218  60.5024261 149.0182343  11.5756397
  60.4016533 147.3967590  10.1377716  59.6295471 146.7453461   9.7283669
  60.6778030 148.1004486   9.3524933  61.5890617 146.5116119  10.3186693
  62.0798378 146.6907654  11.2753000  61.2328415 145.4844208  10.3965893
  62.7097130 146.5413818   9.2543268  63.3912888 145.6998444   9.3783007
  62.1542168 146.4870300   8.3180733  63.4340439 147.8057404   9.3831530
  63.5757675 148.0990448  10.3391800  64.0890579 148.4356689   8.4360332
  64.2134171 147.8708344   7.2824459  63.7168121 146.9965363   7.1871557
  64.4872894 148.4007263   6.4673905  64.7802582 149.5789337   8.6559696
  64.7656631 150.0807190   9.5323782  65.4416809 149.8638306   7.9478307
  58.5102692 148.9087219  11.1357803  58.0535622 149.1527710  10.0312624
  57.8314590 149.1862488  12.1879749  58.2916336 148.9771881  13.0624094
  56.7133980 150.0534973  12.2617636  56.0000153 149.8412018  11.4654455
  55.8414078 149.9412079  13.5412827  56.3950691 150.2978668  14.4098177
  54.9926605 150.6086273  13.3920031  55.3989029 148.5201874  13.8580227
  55.2735291 147.9438171  12.9414167  56.1458740 147.9836578  14.4430532
  54.0800781 148.4806366  14.6174202  54.0228424 148.5470276  15.8786039
  53.0264969 148.4934692  13.9377632  57.2186317 151.4860229  12.1520519
  58.1701469 151.8883209  12.8393049  56.6032257 152.2084503  11.2482662
  55.7789993 151.8975220  10.7542162  56.8341217 153.6670532  11.0647821
  57.1390915 154.1276245  12.0044422  57.9945259 153.8722687  10.0918074
  57.7691689 153.4120636   9.1297655  58.2104263 154.9282837   9.9296207
  58.9126854 153.4541016  10.5043888  55.5832367 154.3692017  10.5455456
  54.9686775 153.7429199   9.6976862  55.3258743 155.5522919  11.0795851
  55.9443817 155.9081116  11.7943945  54.0760193 156.2589874  10.7091417
  53.4216270 155.5811157  10.1610870  53.3617554 156.5522461  11.9990892
  54.0516968 157.0490875  12.6811752  52.4383087 157.0961914  11.8004208
  52.8785133 155.2948303  12.6871605  52.0902138 154.2895050  12.1487522
  51.9121628 153.2980042  13.0278540  51.3593102 152.3841858  12.8676367
  52.4439011 153.7437592  14.1858959  52.5756073 153.2257996  15.0429125
  53.0134735 154.9737549  13.9714861  53.5099220 155.5971527  14.7004070
  54.3206749 157.5759430   9.9376163  53.4569855 158.1001892   9.2222958
  55.4559746 158.2278900  10.1878262  56.1106110 157.9184723  10.8919668
  55.9374809 159.5245819   9.5705442  55.3650208 159.7256775   8.6650324
  55.7174759 160.7606506  10.4703150  56.3944054 160.7457581  11.3245096
  55.8490982 161.6667480   9.8789225  54.3004608 160.8417053  11.0820637
  53.2659035 161.5175781  10.3750439  53.4791679 162.0630646   9.4676476
  51.9613228 161.4872131  10.8628349  51.2122612 162.1086273  10.3947020
  51.6430626 160.8690033  12.1159086  50.6165428 160.8519287  12.4511137
  52.6533890 160.1944885  12.7962513  52.4591064 159.7582703  13.7649479
  53.9480896 160.1767883  12.2644510  54.7404327 159.6683502  12.7936707
  57.4165154 159.5242004   9.0972681  58.2079201 158.6335449   9.4864397
  57.9497833 160.5917664   8.4204149  57.2694092 161.3097382   8.2161779
  59.3738136 160.7151794   8.0522394  59.9487114 160.6495514   8.9759741
  59.6233635 159.9302521   7.3383045  59.7094231 162.0634003   7.3731604
  58.9405060 162.9927063   7.3969579  60.8039589 161.9745789   6.7003880
  61.1438904 161.0235748   6.7121291  61.4892349 163.1032562   5.9954562
  60.7731247 163.9168854   5.8801541  62.5696220 163.7309570   6.8869452
  63.3005180 162.9360352   7.0353045  63.1947823 164.9283752   6.1641817
  62.4770470 165.7440186   6.0765944  63.9934807 165.3565674   6.7698498
  63.6324310 164.6083679   5.2185812  62.0076370 164.2085266   8.0807486
  62.0450401 163.5808258   8.8061399  62.0289497 162.6534729   4.6372614
  62.7464447 161.6524963   4.4958248  61.7170982 163.3654633   3.5040839
  61.0003777 164.0724030   3.5856698  62.2564926 163.1236420   2.1261740
  62.2378387 162.0487976   1.9460038  61.3684540 163.6709747   1.0212970
  61.8292694 163.5662689   0.0390630  59.9900742 163.0442657   0.9945163
  59.3693962 163.5121613   1.7586696  59.6378670 163.0569916  -0.0369334
  59.9238853 161.9720459   1.1790674  61.1429977 165.0820923   1.2209368
  61.9734573 165.5124359   1.0047188  63.6664352 163.6912842   2.0341430
  63.8723221 164.8627625   1.7462636  64.6858826 162.7799377   2.1463585
  64.4575958 161.7972717   2.1949704  66.0191498 163.1511993   1.7048655
  66.3056870 164.0728607   2.2113407  66.9485703 162.0314941   2.1770906
  66.5900345 161.0864258   1.7691616  67.9230347 162.3080139   1.7745365
  67.0551682 161.9618835   3.2596335  66.1915131 163.3923187   0.2101974
  66.0769730 162.4940643  -0.5573349  66.7459488 164.5743408  -0.1889250
  66.8134079 165.3760223   0.4216944  67.2697296 164.7304840  -1.6168089
  66.9263077 163.9492340  -2.2949097  66.7806778 166.0533295  -2.1918974
  65.7196045 166.1842041  -1.9795263  67.2268372 166.8724213  -1.6278752
  67.0566635 166.1905518  -3.6942475  68.0593262 165.8315582  -3.9263923
  66.3826599 165.5366211  -4.2476082  66.9501572 167.6244965  -4.1696668
  65.8360443 168.0815887  -4.6007342  67.9904251 168.3628845  -4.0781837
  68.7721176 164.6044312  -1.6331488  69.4759750 165.1777039  -0.8095017
  69.3218155 163.9534302  -2.6323276  68.6820984 163.4329987  -3.2154355
  70.8006516 163.8754425  -2.8134091  71.2733078 163.8001709  -1.8341041
  71.1728287 162.5346527  -3.5649900  70.5818024 162.6529999  -4.4731655
  72.6720657 162.5075684  -3.9399419  73.2463760 162.6189575  -3.0202360
  72.9654312 161.6277771  -4.5126581  72.9370270 163.3189392  -4.6178684
  70.8212967 161.2767639  -2.6996412  71.5755615 161.0987091  -1.9331677
  69.8964081 161.5380554  -2.1854250  70.6314697 159.9754791  -3.5340860
  71.5088425 159.7438812  -4.1379871  70.5332565 159.0447388  -2.9753458
  69.7953720 160.0501251  -4.2294030  71.3006973 165.1162872  -3.5117421
  70.9541702 165.3044586  -4.6882191  72.1222076 165.9466248  -2.8015115
  72.2232132 165.7924652  -1.8084682  72.7619095 167.1642609  -3.3323197
  72.1537476 167.4216919  -4.1994815  72.6267014 168.3495331  -2.3468697
  72.6510925 169.2674713  -2.9341311  71.6115799 168.3803253  -1.9510419
  73.5465546 168.3833923  -1.1514697  74.7515793 169.0904999  -1.1659844
  75.0930405 169.4676056  -2.1186643  75.5417862 169.2278290  -0.0480145
  76.4753647 169.7684021   0.0030853  75.0634232 168.6042175   1.1768364
  75.7861252 168.7611847   2.3342254  76.2519302 169.5969391   2.4126277
  73.8004150 168.0468750   1.2660271  73.4281006 167.7643585   2.2396626
  72.9981461 168.0147400   0.1201887  71.9656830 167.7000885   0.1578530
  74.1949844 166.9477386  -3.8427391  74.7513123 167.8350983  -4.5075564
  74.8238068 165.8468781  -3.4470506  74.2895050 165.2289276  -2.8531027
  76.1601715 165.3972778  -3.8735373  76.3802185 165.8487854  -4.8409138
  77.3161697 165.9560852  -2.9900498  77.5643463 165.2712097  -2.1792107
  78.2142715 166.0050964  -3.6057644  77.2139511 166.9911652  -2.6641035
  76.2538681 163.8365784  -3.9632628  75.6701431 163.1273651  -3.1575854
  77.0108643 163.3661041  -5.0017405  77.3582077 164.1276550  -5.5669718
  77.1436996 161.9750671  -5.3386192  77.0564957 161.4237671  -4.4023695
  75.8947144 161.5499573  -6.1159210  75.0095444 161.5399017  -5.4799318
  75.6891403 162.2551422  -6.9212475  75.8109665 160.2784424  -6.9101939
  75.0059967 159.1647186  -6.5625806  74.4871368 159.1363831  -5.6158056
  75.0004654 158.0158081  -7.4004445  74.2829056 157.2315216  -7.2096543
  75.6941452 157.9506836  -8.5947647  75.5171814 156.9665375  -9.5836840
  75.3043594 156.1422272  -9.1400375  76.5320663 159.0363312  -8.8959589
  77.1597137 159.0456238  -9.7748051  76.5648880 160.2306671  -8.1103382
  77.1601028 161.0682831  -8.4427910  78.4742966 161.5498047  -6.0177593
  79.0876465 162.4139557  -6.5609603  78.9382858 160.2942047  -5.8069243
  78.3523102 159.7776642  -5.1666770  80.1978836 159.6466217  -6.2050161
  80.3102188 159.9980774  -7.2306719  81.2320786 160.2139587  -5.2423215
  81.1564331 161.2776184  -5.0164776  81.1536255 159.5959015  -4.3479180
  82.6246872 160.0389709  -5.7382064  82.7083206 158.9615479  -5.8805656
  82.6928940 160.5044861  -6.7214394  83.7563171 160.5085297  -4.7270174
  83.2883224 161.2866821  -4.1240625  83.9893341 159.6817474  -4.0560327
  84.8514175 161.0534515  -5.4213428  84.7436218 161.9785156  -5.8121853
  85.9485321 160.3992310  -5.8694959  86.3800201 159.2970428  -5.3544488
  85.7757874 158.7499390  -4.7580576  87.2278137 158.9232025  -5.7564445
  86.6893463 160.9544983  -6.7441087  86.3304596 161.8046417  -7.1546564
  87.5313187 160.5086060  -7.0793142  80.2303085 158.0551147  -6.2574363
  79.8138733 157.4298706  -5.2743111  80.7546005 157.3966522  -7.2933779
  81.0899963 158.0457916  -7.9906821  80.8537979 155.9518890  -7.5033813
  80.3625717 155.4523163  -6.6683750  80.1615067 155.5335236  -8.7781715
  80.5127258 156.1538391  -9.6027603  80.4347687 154.4929657  -8.9532461
  78.6233521 155.5679779  -8.5999165  78.3984833 155.1977234  -7.5996952
  78.1735077 156.5526581  -8.7270355  77.9021988 154.6541443  -9.6285219
  76.9732742 153.9537201  -9.1796932  78.1422348 154.5916595 -10.8986979
  82.2985306 155.5190887  -7.5038247  83.1187057 156.1002045  -8.2812490
  82.6419373 154.4772339  -6.7792015  81.9145432 154.0695801  -6.2092714
  83.9351120 153.8067474  -6.7260537  84.5644913 154.1490479  -7.5475206
  84.7945557 154.2776642  -5.5346394  84.2393723 153.9541779  -4.6541677
  85.7907562 153.8568420  -5.3982978  85.0166702 155.7957001  -5.4699793
  85.7450790 156.0781403  -6.2300820  84.1115875 156.3789825  -5.6394553
  85.5694351 156.3303223  -4.1285400  86.8212509 156.3239899  -3.9565830
  84.8503952 157.0960846  -3.3894169  83.9241333 152.2411194  -6.7946606
  82.9826889 151.5507812  -6.4362593  85.0674362 151.7491760  -7.2656074
  85.8420715 152.3435516  -7.5239992  85.3132629 150.3424072  -7.4165411
  84.5617065 149.7495728  -6.8951688  85.0988846 149.9893951  -8.9194880
  84.0520248 150.1914215  -9.1461134  85.7517624 150.6379242  -9.5036573
  85.5275803 148.6132812  -9.2896395  86.4739761 148.7846222  -9.8025541
  85.8299408 147.9541473  -8.4758673  84.5724335 147.8687439 -10.1595802
  84.0881882 146.7707214  -9.7970142  84.1165314 148.4839783 -11.2150755
  83.3303223 148.0729523 -11.6978197  84.5261459 149.3902588 -11.3910198
  86.6868744 149.9274597  -6.7969360  87.7970886 150.1449585  -7.3285685
  86.6529999 149.1133118  -5.6970997  85.7526321 148.8520966  -5.3213434
  87.8602371 148.5366974  -5.0317378  88.6626358 148.2501068  -5.7115359
  88.3329163 149.5283203  -3.9295084  87.4728928 149.7848816  -3.3109462
  89.0045471 149.1350861  -3.1663711  89.0563431 150.7919312  -4.4452825
  89.8663864 150.4878693  -5.1082020  88.3188171 151.3479462  -5.0240927
  89.6569977 151.6895905  -3.4019265  89.0116730 152.2423248  -2.4712229
  90.8701630 151.9643555  -3.6409540  87.5779266 147.1729889  -4.3531542
  86.4217072 146.8919067  -4.0014396  88.6964569 146.3546143  -4.2475057
  89.5953598 146.7709351  -4.4443722  88.5814438 144.9218750  -3.7217040
  89.5825424 144.5071259  -3.8395188  88.2072144 144.9535065  -2.2185509
  87.1259308 145.0823975  -2.1705043  88.4227295 143.9951935  -1.7460053
  88.8289490 145.9850311  -1.3455632  90.1824570 145.8434753  -1.0431750
  90.7726822 145.0503845  -1.4779545  90.9318237 146.8516998  -0.3857535
  92.0001984 146.7515717  -0.2634847  90.2098465 147.9622345   0.1482508
  90.9163437 148.8902893   0.8468834  91.8609390 148.7196960   0.8624280
  88.8351593 148.0811005  -0.1121691  88.2892456 148.8931122   0.3450367
  88.1512299 147.0875702  -0.8850411  87.1341782 147.2267761  -1.2206380
  87.6757278 143.9803467  -4.5803537  87.3471603 142.8694000  -4.2134314
  87.3170776 144.4785309  -5.7740445  87.8109131 145.3166351  -6.0457144
  86.4631348 143.8302917  -6.7159362  86.4726715 144.3595734  -7.6687565
  86.8169937 142.8047485  -6.8215008  84.9509659 143.8597870  -6.3418102
  84.2290497 142.8647766  -6.5642352  84.4749222 144.9497223  -5.7011728
  85.1695251 145.6233673  -5.4116645  83.0344086 145.2295990  -5.4444590
  82.4204178 144.6479034  -6.1320148  82.5701675 144.9315338  -3.9446442
  81.5122986 144.6910553  -4.0503592  83.3681183 143.7519836  -3.3611631
  84.4074249 144.0222778  -3.1744049  83.0014725 143.4850006  -2.3700063
  83.2170029 142.8279724  -3.9192524  82.5657272 146.2392731  -3.0434370
  83.4839020 146.7863159  -3.2574430  81.7354126 146.8551788  -3.3889034
  82.3154602 146.0544281  -1.5262883  83.0881119 145.4976807  -0.9960480
  82.2665710 147.0140686  -1.0117058  81.3155594 145.6473236  -1.3760628
  82.6320190 146.6707306  -5.8430943  83.4119492 147.6197205  -5.6865540
  81.4239960 146.8959808  -6.3555555  80.8826065 146.0889740  -6.6307735
  80.8290024 148.2319183  -6.5859485  81.5908813 148.8804474  -7.0184298
  79.6673584 148.0977783  -7.5524473  79.0290604 147.2778625  -7.2232041
  79.0184479 148.9712982  -7.4893098  80.0347366 147.8837280  -9.0110283
  80.7820282 148.6577148  -9.1859770  80.6080322 146.9706268  -9.1712723
  78.8636093 148.0616150 -10.0677948  77.6649017 148.2798615  -9.7496014
  79.2361832 148.1125793 -11.2532578  80.2321091 148.8929443  -5.3245130
  79.4161835 148.4027100  -4.5326562  80.6334610 150.1600037  -5.0948391
  81.4044571 150.5334320  -5.6298447  80.1831665 150.9933929  -3.8760414
  79.2090683 150.6009064  -3.5841761  81.1973953 150.8506012  -2.7375200
  81.3393173 149.7937012  -2.5118217  82.5482025 151.4310455  -3.0834341
  82.4491196 152.4933319  -3.3066554  83.1903610 151.3905640  -2.2036085
  83.0185165 150.9089050  -3.9166675  80.6773758 151.5330963  -1.6330693
  81.1826782 151.3309479  -0.8422442  79.8692169 152.4824219  -4.2478085
  80.1361313 152.9270630  -5.4035439  79.1700287 153.2379456  -3.3825202
  79.0635071 152.8614960  -2.4513674  78.7018433 154.5992126  -3.6963863
  79.5142670 155.0068054  -4.2979898  77.3034897 154.6046906  -4.3859568
  77.3299103 153.9420471  -5.2510042  76.1449203 154.0411987  -3.6178272
  75.8337173 154.7744598  -2.8738151  75.3437042 153.7620544  -4.3021111
  76.4496231 153.1584778  -3.0556273  76.8290253 155.9565582  -4.9552422
  77.6268387 156.2877502  -5.6200047  75.8636169 155.8408203  -5.4478846
  76.5313187 156.7177582  -4.2340994  78.6611176 155.5163879  -2.4195044
  78.4539185 155.0695496  -1.2599506  78.9150543 156.7967987  -2.5980182
  79.2271881 157.0034332  -3.5360875  79.0235367 157.8338928  -1.5551461
  78.6899261 157.3201141  -0.6535731  80.5202255 158.2322998  -1.3901839
  80.7896500 158.7633514  -2.3031495  80.5885620 158.9858093  -0.6055378
  81.3684616 156.9142151  -1.1441495  80.8746796 156.4156342  -0.3100733
  81.5135574 156.3320312  -2.0541553  82.8019867 157.3577728  -0.6942694
  83.1329498 158.1845856  -1.3227223  82.7126617 157.8081512   0.2943031
  83.8024063 156.1426239  -0.8290759  83.5145569 155.3954315  -0.0895134
  83.7206726 155.5973969  -1.7693659  85.1982574 156.6642609  -0.6649083
  85.3035355 157.2411499   0.1574108  85.7642059 155.8289642  -0.6191515
  85.3722916 157.1685791  -1.5225059  78.1690292 159.0382080  -1.9115188
  78.3846817 159.7018280  -2.9600708  77.3272247 159.4345398  -1.0009332
  77.2081909 158.9050751  -0.1491174  76.3200836 160.5400391  -1.1680201
  76.7384338 161.1346283  -1.9801438  74.9080276 160.1648865  -1.5222481
  74.3759308 161.1031494  -1.6792411  74.7741013 159.3533478  -2.8003561
  75.1009064 158.3363647  -2.5834453  73.7759323 159.2850800  -3.2328987
  75.3234024 159.7244263  -3.6656177  74.0666199 159.4512482  -0.4586827
  74.0213852 160.1154327   0.4044049  73.0746994 159.2670288  -0.8713205
  74.5875397 158.5141449  -0.2622716  76.3101883 161.4610748   0.0732433
  76.4413147 161.0716553   1.2017002  76.0600281 162.7351074  -0.1809230
  75.9250488 163.0102081  -1.1433187  75.5010300 163.7105103   0.8050126
  75.3799973 163.3463135   1.8252146  76.4926834 164.9385223   0.9544691
  76.6499863 165.3759613  -0.0314290  75.9397278 165.7054138   1.4968772
  77.7682800 164.6083374   1.6497651  77.5749741 164.4815979   2.7149746
  78.1067657 163.6343689   1.2963477  78.9153824 165.5967102   1.5094230
  79.5210495 165.5181732   2.4122555  79.6268234 165.3460541   0.7225716
  78.6097031 167.0654602   1.4283155  77.7425461 167.1648712   0.7754287
  78.3501053 167.4777069   2.4033854  79.7846222 167.8074036   0.8837837
  79.9016342 167.4768219  -0.0633854  79.6508331 168.8079834   0.8514274
  80.6621704 167.6908112   1.3700200  74.1322784 164.1799927   0.3253157
  73.8683243 164.3574066  -0.8612539  73.1906052 164.2440948   1.2495997
  73.4466095 164.0342102   2.2038059  71.7694550 164.5308380   1.0693997
  71.5903549 164.9569550   0.0822553  71.1087036 163.1545105   1.1339303
  71.1891556 162.6670837   2.1055493  70.0469437 163.3035583   0.9375858
  71.5248260 162.4660950   0.3983954  71.2129288 165.4048462   2.1993272
  71.8294296 165.6020508   3.2347848  69.9669571 165.9131470   2.0785863
  69.4977722 165.7677765   1.1960711  69.4034729 166.9295197   2.9989052
  69.7396317 166.6396179   3.9944267  69.9607925 168.2264404   2.5631859
  71.0223618 168.1763916   2.3209908  69.1836777 168.7591400   1.3796079
  68.1465912 168.9715729   1.6392636  69.6940079 169.6169739   0.9416902
  69.0783081 168.0135651   0.5914879  69.9175110 169.3336029   3.6112235
  68.9453888 169.8256989   3.5809858  69.9723206 168.8755341   4.5987816
  71.0381851 170.3351746   3.5363533  71.1614532 170.8034973   2.5598404
  70.6926575 171.1696472   4.1465564  71.9371033 169.8836212   3.9560645
  67.9027405 166.7871704   3.0478873  67.2687607 166.4185333   2.0972173
  67.2358704 167.0804443   4.1724501  67.7586670 167.4413300   4.9576535
  65.7427979 166.8596497   4.2494998  65.4730911 165.9750061   3.6726480
  65.5212936 166.7095032   5.3061423  64.9042435 168.0036011   3.6656981
  64.8426819 169.1147156   4.2347546  64.1875534 167.7526855   2.6034555
  64.2713318 166.8346252   2.1908343  63.3293762 168.7562561   1.9360849
  63.7291336 169.7644806   2.0446279  63.3099861 168.4843140   0.4514438
  63.1032104 167.4229736   0.3138921  62.5341415 169.0963440  -0.0085311
  64.5615158 168.8030701  -0.3975041  65.4449692 168.3427429   0.0448781
  64.3840714 168.2841949  -1.3395138  64.8197174 170.2784882  -0.6709692
  65.3647232 170.3252716  -1.6137782  63.8785400 170.8170776  -0.7814825
  65.6829300 171.0181427   0.3433654  65.1836166 171.3932037   1.1371673
  67.0356369 171.2629700   0.3250712  67.8566971 170.7723236  -0.6041323
  67.5443878 170.0863037  -1.2764064  68.8378525 171.0111847  -0.5848899
  67.4789810 172.1610413   1.1725057  66.7811356 172.5382996   1.7976252
  68.4139404 172.5370026   1.1046244  61.9035454 168.8336029   2.5284014
  61.4598274 169.9487152   2.7359381  61.1846581 167.7095032   2.7815363
  61.5297661 166.7669678   2.6690931  59.7367783 167.7271729   3.2205036
  59.4878120 168.6771851   3.6933451  58.8051033 167.4530792   2.0523953
  58.9383926 166.4047699   1.7852476  57.7582970 167.6323700   2.2976413
  59.2285843 168.1169739   0.7825344  58.7661057 169.0993195   0.8785911
  60.3092766 168.1816101   0.6559486  58.6736565 167.4832001  -0.4656535
  57.9481850 168.0795288  -1.2012498  58.9878006 166.2385254  -0.7738575
  58.4939651 165.8501587  -1.5646811  59.7440834 165.7714233  -0.2943203
  59.4970779 166.7525482   4.3703208  60.0269432 165.6533203   4.4192467
  58.6096992 167.0886536   5.3884029  58.1060219 167.9451294   5.2071795
  58.0449600 166.0596161   6.3148956  58.8047104 165.3525696   6.6480088
  57.4657211 166.8189850   7.5246959  56.8326645 167.6195831   7.1420979
  56.7949219 166.1394806   8.0504255  58.5016823 167.4769135   8.3883219
  59.2009735 166.7003937   8.6983356  58.9641037 168.3028259   7.8478451
  57.8356590 167.9612579   9.7228508  57.2609406 167.1678009  10.2005806
  58.5787430 168.3343048  10.4276657  56.8604164 169.0559235   9.4644394
  57.2181778 169.8998566   9.0402899  55.6037941 169.1567230   9.8144207
  55.0378685 168.1359100  10.3996239  55.4294586 167.2284851  10.6077929
  54.0581169 168.1885834  10.6392279  55.0027733 170.2737427   9.5856524
  55.5328407 171.0968170   9.3373384  54.0165482 170.3287201   9.7964525
  56.9007912 165.2625580   5.6160250  56.1573792 165.9053040   4.8722019
  56.6751328 164.0088043   5.9840579  57.3179512 163.5187836   6.5896721
  55.5938683 163.1598969   5.4490023  54.7836838 163.8276978   5.1561656
  56.0830612 162.4622498   4.1617069  55.1823387 162.1220703   3.6507452
  56.5024147 163.2443237   3.5287702  57.0854301 161.3294525   4.3821392
  56.6677666 160.0615082   4.8363333  55.6725311 159.8277740   5.1845713
  57.5957336 159.0058899   4.9789305  57.1881561 158.0738983   5.3417873
  58.9550438 159.2056732   4.6483274  59.6307755 158.3823700   4.8270979
  59.3593559 160.4521484   4.1109548  60.3796959 160.4471588   3.7569857
  58.4545097 161.5132141   4.1203823  58.8155060 162.4593964   3.7451231
  54.8379784 162.1273651   6.3687110  55.4667587 161.4918060   7.1878228
  53.4851456 162.0125885   6.1817012  53.1187439 162.7483063   5.5947099
  52.6262665 160.8927460   6.7072062  52.8423653 160.6720581   7.7525263
  51.1462326 161.3184357   6.6763735  50.9654922 162.2964783   7.1223111
  50.7558517 161.3516693   5.6592221  50.2936020 160.2579498   7.4955788
  50.4890137 159.2536774   7.1196184  50.6785316 160.2444000   8.5152607
  48.7672310 160.4305878   7.5275998  48.3235474 160.3196259   6.5381889
  48.3996086 159.7481232   8.2938919  48.3706322 161.7685852   7.9900789
  48.9597549 162.0756378   8.8542271  48.6412697 162.4741669   7.2045712
  46.8847656 161.7524261   8.2441206  46.6675453 161.1959686   9.0585394
  46.5178185 162.6897888   8.3265924  46.3499794 161.4364777   7.4477067
  52.8509865 159.6961060   5.7750435  52.8417854 159.8184052   4.5409365
  52.9693832 158.4719849   6.3500619  52.7490692 158.4713593   7.3357396
  52.8433151 157.1697235   5.7070737  53.3865433 157.2925262   4.7700996
  53.5387154 156.1174622   6.6174321  53.0894890 156.1718597   7.6090679
  53.2836990 154.6901703   6.1751747  53.5803185 154.5485687   5.1359086
  53.8399925 154.0417023   6.8520236  52.2433662 154.3654938   6.1950083
  55.0881538 156.4244385   6.5942335  55.3637352 157.4781036   6.6381836
  55.4607201 156.0746307   7.5570092  55.6212807 155.9615631   5.7637968
  51.4027901 156.6938477   5.4062529  50.5120506 156.8852692   6.2578926
  51.2163811 155.9377899   4.2804041  51.9601898 155.9895172   3.5990994
  49.9845734 155.2525482   3.9091942  49.2799568 155.4600067   4.7145376
  49.4200516 155.8902740   2.6232216  50.0751228 155.6083832   1.7988946
  48.4431992 155.4323425   2.4677844  49.1516075 157.4348602   2.6390338
  50.1202126 157.8827362   2.8611064  48.5147743 157.8205109   1.3468831
  47.5925827 157.2680969   1.1666105  48.3900032 158.9025269   1.3048755
  49.1701965 157.5461884   0.5202733  48.1146049 157.8424835   3.6621454
  48.4626656 157.5475922   4.6520910  47.9618645 158.9208832   3.6193421
  47.2031326 157.3571014   3.3132551  50.0275116 153.7364807   3.7183223
  49.1568756 153.0319977   4.2085981  51.1331100 153.3285980   3.0621462
  51.7760735 154.0265198   2.7163107  51.4644737 151.8971252   2.8373566
  51.2934418 151.2641907   3.7081244  50.6575508 151.3756256   1.6529897
  49.6106911 151.6105804   1.8453012  50.9831581 151.7797394   0.6944652
  50.7167892 149.8195038   1.4901985  51.7318878 149.4760132   1.2909625
  50.4960289 149.3698883   2.4582984  49.7563591 149.2460022   0.4480678
  48.5288048 149.3732910   0.6044772  50.2739029 148.7040863  -0.5183449
  52.9706726 151.7765045   2.6173878  53.5384293 152.6839447   2.0797596
  53.5683899 150.6460571   3.0641465  52.9757881 149.9195404   3.4397714
  54.9828568 150.2743530   2.8612666  55.3431892 150.9714355   2.1047409
  55.9015083 150.3924255   4.1691594  55.8041000 149.5196075   4.8147492
  57.3582649 150.2526245   3.6710463  57.6664009 151.2100372   3.2509065
  58.0152779 150.0453186   4.5157094  57.4593468 149.5037384   2.8855224
  55.6619682 151.6772003   5.0087385  55.9892654 152.5604401   4.4602265
  54.5907516 151.7518463   5.1959009  56.4813728 151.6836090   6.3139944
  57.5611000 151.6928864   6.1649561  56.3193665 152.6074219   6.8693604
  56.1718636 150.8436890   6.9359541  55.1317596 148.8743134   2.2938488
  54.9382057 147.9226227   3.0246220  55.4394684 148.8040466   1.0270901
  55.6087990 149.6543121   0.5089359  55.6929436 147.6047974   0.2071251
  55.2176743 146.7417450   0.6733546  55.0326576 147.8065033  -1.1708125
  53.9536743 147.8889771  -1.0400686  55.4227371 148.6867218  -1.6818506
  55.1876717 146.6102142  -2.1661899  56.2017593 146.5699158  -2.5638154
  54.9431915 145.6367950  -1.7409989  54.2598724 146.7885590  -3.3570580
  53.2662888 146.4791870  -3.0327315  54.1712646 147.8457794  -3.6071148
  54.6488113 145.9234009  -4.5378332  55.0468979 145.0018158  -4.4268465
  54.2351570 146.1731567  -5.7396998  53.7367744 147.3421021  -6.1214671
  53.7587204 148.0873718  -5.4401507  53.1721878 147.4931030  -6.9452062
  54.1820908 145.2386627  -6.6457882  54.3374138 144.2666321  -6.4196982
  53.7461548 145.4946747  -7.5201559  57.1946411 147.2441559   0.2574101
  58.0447311 148.1544037   0.4996029  57.5461502 145.9998627  -0.0585943
  56.8679733 145.3050995  -0.3369571  58.9581451 145.6230164  -0.3153183
  59.5844727 146.5144806  -0.3483508  59.4715118 144.7185516   0.8140571
  58.9519768 143.7603607   0.8066791  60.9968834 144.4852905   0.7349957
  61.4943314 145.4530640   0.7987192  61.3339348 143.8448334   1.5500475
  61.2348137 143.9369812  -0.1765104  59.4094315 145.3124542   2.0928857
  58.5661964 145.0532227   2.4715040  59.0623245 144.8486023  -1.6297108
  58.4951019 143.7662506  -1.7612631  59.7694626 145.3815460  -2.6383059
  60.2738342 146.2357788  -2.4485765  60.0850906 144.7085876  -3.8848302
  59.1688728 144.3639069  -4.3642473  60.6269836 145.8111725  -4.8675900
  61.4411583 146.3919373  -4.4340754  60.8994904 145.2864990  -5.7833128
  59.5182266 146.7707214  -5.3437281  58.6694069 146.1385345  -5.6043882
  59.1652908 147.4149323  -4.5384083  59.7159615 147.5510101  -6.6891112
  59.7269402 148.7815247  -6.6450553  60.0648727 146.8583069  -7.7832990
  60.3341675 147.3949890  -8.5954237  60.1654396 145.8533936  -7.7709336
  60.9792290 143.5029144  -3.5667505  61.5620689 143.2089996  -2.4895802
  61.3152962 142.7178650  -4.6039882  61.0052452 143.0078430  -5.5204411
  61.9977379 141.4056549  -4.4745088  61.6316605 140.9206543  -3.5695963
  61.7349091 140.5065002  -5.6642847  61.9649200 140.9521790  -6.6320534
  62.3954849 139.6418152  -5.6006002  60.4639778 139.9663696  -5.7099748
  60.5039330 139.0072021  -5.7146039  63.5326767 141.5518799  -4.4130168
  64.2524796 140.7131805  -3.8742688  64.0597839 142.7051697  -4.8505330
  63.4784622 143.3959961  -5.3032246  65.4746246 143.0384979  -4.7200074
  66.0524521 142.1662292  -5.0255651  65.7945709 144.1788788  -5.6753960
  66.8810196 144.2663727  -5.6833630  65.4601746 143.9127502  -6.6781220
  65.2623367 145.6085815  -5.4188867  64.5234833 145.8526917  -4.4273081
  65.3897018 146.4962006  -6.2961745  65.9197693 143.4207001  -3.3136044
  67.0765762 143.3082733  -2.9508514  64.9587555 143.7194061  -2.4551058
  64.0382919 143.7529297  -2.8695190  65.0147476 143.9263306  -1.0078478
  64.2193451 143.2783051  -0.6397548  65.9688339 143.5460815  -0.6428396
  64.8144760 145.3274689  -0.4740645  64.7503052 145.5393524   0.7173365
  64.7031937 146.3011322  -1.3975492  64.6514130 146.0052490  -2.3618484
  64.5107040 147.7448120  -1.0644873  65.0738678 147.8483734  -0.1370068
  65.1044769 148.7176514  -2.1207798  65.3435364 149.6541748  -1.6169283
  66.4565125 148.2004089  -2.6728346  66.2827072 147.2905731  -3.2473736
  67.0328369 148.8360596  -3.3450792  67.1964874 147.8993073  -1.9313016
  64.1704102 149.0856781  -3.3312209  64.7734070 149.3604889  -4.1966515
  63.6303864 148.1763000  -3.5948749  63.2187347 150.1781464  -2.9716179
  63.7156677 150.9861145  -2.4346378  62.8529854 150.6807556  -3.8670008
  62.3566628 149.7914581  -2.4281034  62.9687500 148.0437469  -0.7972423
  62.0993767 147.3835602  -1.3711094  62.6554527 148.8938293   0.2005291
  63.4352531 149.2949677   0.7016419  61.3188972 149.2713470   0.5089960
  60.7142067 148.3887634   0.3004047  61.0653343 149.5166168   2.0187316
  61.6887550 150.3428497   2.3604701  59.9965210 149.6702576   2.1675038
  61.6181755 148.2937317   2.8832672  61.5996857 147.3989868   2.2610102
  62.6540718 148.4938202   3.1570942  60.7083969 148.1446381   4.1699915
  60.8647842 148.7289734   5.2236023  59.7129555 147.2994995   4.1081371
  59.1455688 147.1894531   4.9364300  59.5540543 146.6813965   3.3253155
  60.8122826 150.4168701  -0.2923359  61.5285492 151.3464966  -0.6728261
  59.5162354 150.3669434  -0.5105689  59.0257263 149.5678406  -0.1351517
  58.6618729 151.3007660  -1.2883996  59.2692337 152.1051025  -1.7034539
  58.1478271 150.5736237  -2.5135489  57.8968582 149.5649872  -2.1852660
  57.2081528 151.0613556  -2.7728384  59.1241341 150.5585022  -3.7135851
  60.1264038 150.2430725  -3.4236481  58.9082756 149.7072601  -4.3592477
  59.3200760 151.8751526  -4.4905248  59.1763458 152.9887238  -4.0092421
  59.7725830 151.7390747  -5.7479682  59.9558067 152.5714874  -6.2898254
  59.8438988 150.8040161  -6.1230302  57.5374298 151.7730560  -0.3598845
  56.9084969 150.9806213   0.3721674  57.2573013 153.0906982  -0.3342185
  57.8365021 153.7683258  -0.8090426  56.1795235 153.6053162   0.5164286
  55.5003090 152.7869873   0.7553813  56.9016037 154.1744385   1.7251984
  57.6709518 154.9135132   1.5016524  56.2372284 154.7422485   2.3765736
  57.3130989 153.3260040   2.2719536  55.3109894 154.6032257  -0.3145376
  55.8591194 155.4921722  -0.9868082  53.9784203 154.5464478  -0.0074452
  53.6361618 153.8837585   0.6735940  53.0693665 155.6264801  -0.3992157
  53.4726906 156.1460114  -1.2684199  51.7479897 155.0991364  -0.8041203
  51.4273224 154.3845520  -0.0460728  51.1268654 155.9905090  -0.8921857
  51.7706451 154.3796082  -2.1827703  52.1858025 155.0120850  -2.9674566
  52.3742065 153.4760437  -2.0969090  50.2878304 153.9166260  -2.5176439
  50.0456352 153.1439514  -1.7879713  49.6189384 154.7728577  -2.4307253
  50.0797539 153.3299255  -3.9257393  49.0161324 153.2925720  -4.1611481
  50.4435616 154.0966797  -4.6097269  50.6120720 151.9376373  -4.0919824
  50.2963943 151.4003296  -3.2971554  50.2323990 151.4603577  -4.8970590
  51.6181564 151.8856506  -4.1640344  52.9458771 156.6276703   0.7658134
  52.7382584 156.1594086   1.8824037  53.1974106 157.9129486   0.5145331
  53.3026581 158.1331024  -0.4655469  53.4256134 158.9560699   1.4925078
  53.0879288 158.5968170   2.4646170  54.9765358 159.2804718   1.7235684
  55.1287155 159.9691010   2.5546756  55.7264977 157.9901276   2.2104723
  55.5572395 157.1322327   1.5597143  56.8061218 158.0995026   2.3131752
  55.2822647 157.7108002   3.1658447  55.7287560 159.8947754   0.5345095
  55.1890869 160.8107910   0.2941101  56.7609825 160.1032257   0.8158678
  55.8006439 159.3561096  -0.4103501  52.7239265 160.2473145   1.0922015
  52.6474419 160.5789642  -0.1342708  52.2513580 161.0543823   2.0581005
  52.3561172 160.6460724   2.9759295  51.6344109 162.3281555   1.8955477
  51.4637985 162.5203400   0.8362737  50.1821060 162.4004211   2.5154455
  49.6580391 161.5234222   2.1355257  50.1533089 162.4898224   3.6013930
  49.4109726 163.6838684   2.1034632  49.8090363 164.5989990   2.5418296
  49.5275841 163.8060608   1.0266294  47.9466133 163.6352234   2.4302537
  47.1563835 162.7684631   2.0394199  47.4031334 164.6221008   3.1592026
  46.4194183 164.6305389   3.3879757  47.9585419 165.3633423   3.5619044
  52.4849243 163.4444122   2.5550871  52.7706032 163.3139191   3.7398417
  52.7826920 164.4698486   1.7609706  52.2504158 164.5618286   0.9075529
  53.7024841 165.5527039   2.1172543  54.5132027 165.0922241   2.6818831
  54.4270096 166.1807556   0.8250983  53.6507874 166.2816620   0.0665429
  54.8881226 167.6105804   1.0474573  55.5244598 167.7022400   1.9276690
  55.4127197 168.0215149   0.1848860  54.0968819 168.3553925   1.1328018
  55.6533813 165.4172058   0.2907610  56.0502472 165.9133911  -0.5949066
  56.4065170 165.6161957   1.0531856  55.5094376 163.9210358   0.0398826
  54.7289696 163.7163391  -0.6929610  56.4468880 163.4085541  -0.1760909
  55.1714821 163.5258026   0.9978375  53.0451736 166.5863647   2.9485655
  52.1815987 167.3450623   2.5275860  53.4435616 166.6514435   4.2386117
  54.3071175 166.2635040   4.5905762  52.7618484 167.6485596   5.1123004
  51.6980324 167.6622772   4.8752036  53.0026436 167.1383362   6.5832224
  54.0757713 167.2338409   6.7486906  52.4813805 167.8160553   7.2593007
  52.4455032 165.7222748   6.8527637  52.9616318 164.9677887   6.2590723
  52.6825447 165.3452759   8.3216372  52.1275406 166.0679321   8.9198427
  52.3756714 164.3182220   8.5193481  53.7357788 165.2841644   8.5956182
  50.9385986 165.7021179   6.6454139  50.6484337 165.9657135   5.6283455
  50.5543861 164.7344666   6.9681234  50.3743591 166.4272919   7.2317939
  53.3179245 169.0666962   5.0082364  54.5070076 169.2020874   4.6726770
  52.5185890 170.0741882   5.3159928  51.0878792 170.0625610   5.4458399
  50.7775993 169.4949799   6.3231473  50.6888542 169.6408081   4.5233407
  50.5944405 171.4964752   5.5063462  50.4732666 171.9064636   6.5090089
  49.6269226 171.6436615   5.0263991  51.7167053 172.2475739   4.8009825
  51.6329727 173.2994995   5.0739841  51.6691551 172.0688934   3.7267783
  52.9730301 171.4733276   5.3322883  53.7401695 171.6136322   4.5707660
  53.3514099 172.0092926   6.7156687  52.9112778 171.4740143   7.7364068
  54.0341911 173.1518707   6.7783608  54.3874435 173.6369934   5.9659767
  54.0856247 174.0181122   7.9773192  54.0195084 173.4183350   8.8850689
  55.2729454 175.0085449   7.7310181  55.1021233 175.4274292   6.7393250
  55.2031555 175.7910309   8.4866295  56.5936623 174.1749573   7.8043170
  56.5066452 173.2209778   7.2842617  57.3618698 174.7591553   7.2976818
  56.9430351 173.8512878   9.2502384  57.2728081 174.8187256   9.9709196
  56.7122917 172.6752625   9.6518030  52.7526321 174.8836670   7.8847179
  52.5339584 175.6569824   6.9507084  51.9313965 174.8549347   8.9571371
  52.1571960 174.2898865   9.7632580  50.8320961 175.8559113   9.2127266
  50.3284912 176.0665588   8.2692671  49.8147850 175.2882385  10.2242622
  50.3986397 174.8343353  11.0250034  49.2196655 176.1007080  10.6411877
  48.9364471 174.1794586   9.5862141  48.4520874 174.5154419   8.6693630
  49.5919876 173.3363342   9.3682680  47.9762039 173.6933899  10.7147522
  47.6599159 172.6949921  10.4126205  48.4579849 173.5643311  11.6839437
  46.7972069 174.6196289  10.8302259  46.5932808 175.1420898   9.9902525
  45.8694725 174.7021179  11.8057613  45.7906342 173.9940948  12.8755150
  46.2803726 173.1256866  13.0371571  45.1024323 174.2028961  13.5846548
  44.8623848 175.6027679  11.8316717  44.9553986 176.3980713  11.2160845
  44.1105232 175.6697540  12.5027304  51.3677750 177.1978607   9.6752043
  51.3057556 177.5480804  10.8500309  51.9027939 177.9180145   8.7309265
  52.0186157 177.5678406   7.7906761  52.6048317 179.1826477   9.0624199
  53.2294922 178.9410858   9.9223881  53.5483398 179.6119385   7.9794745
  52.9730339 179.9235992   7.1076889  54.3770180 180.8633118   8.4401760
  54.9347305 180.7161407   9.3650522  55.0619011 181.1292725   7.6350045
  53.7592812 181.7031097   8.7583866  54.5476646 178.4639587   7.5880356
  54.0819702 177.8249207   6.8377995  55.4661140 178.8237915   7.1242738
  54.8802185 177.9562683   8.4934368  51.6571159 180.4045868   9.3665295
  51.1058235 181.0762787   8.5123920  51.3988266 180.6573334  10.6645565
  51.8262749 180.0459595  11.3454399  50.4108887 181.6643524  11.0782213
  49.5537109 181.5425720  10.4160156  49.8985291 181.3486328  12.4725113
  50.7160072 181.5659637  13.1599646  49.0797424 182.0168304  12.7393570
  49.4818535 179.8963776  12.7362642  50.2761955 179.1532593  12.6662598
  48.7991409 179.8890533  14.1299839  47.8719177 180.4617767  14.1115122
  48.5645523 178.8500519  14.3614006  49.4829941 180.4074860  14.8020573
  48.4467087 179.4514160  11.7088041  48.9363213 179.1543579  10.7813692
  48.0876427 178.5470886  12.2001028  47.6917343 180.2215729  11.5507994
  50.9067993 183.0853729  10.8174305  52.1340103 183.4103699  10.9716005
  50.0061989 184.0559235  10.4928217  48.6108894 183.8341827  10.1174049
  48.1390877 183.1342316  10.8070164  48.6827240 183.5593414   9.0650740
  47.9144630 185.1892395  10.1970739  47.5871925 185.4121246  11.2126083
  47.1291656 185.2734375   9.4458551  49.1192284 186.0904388   9.8020058
  48.9625053 187.1197662  10.1245270  49.2859917 186.0844269   8.7248554
  50.3402557 185.4864349  10.4772139  51.2315331 185.6532288   9.8723154
  50.5183067 186.0092926  11.9430618  50.2943344 185.2787476  12.8906565
  50.9189758 187.2955780  12.0461521  51.0351677 187.8079529  11.1835518
  51.2067490 188.0343170  13.2953329  52.0427971 187.6172638  13.8567419
  51.5500984 189.4891663  12.9223614  52.5112648 189.6631012  12.4386129
  50.8026390 189.9336548  12.2652130  51.6367683 190.3711395  14.0289974
  51.2052193 191.2068329  13.8366995  49.8861084 187.9854889  14.1544724
  48.7829781 188.1264343  13.6700497  50.0170212 187.6665192  15.4678059
  50.8990669 187.7748871  15.9477558  48.8565483 187.3703918  16.2687378
  48.3689728 186.4718628  15.8905811  49.2339096 187.2303925  17.7608509
  48.3739662 187.4475861  18.3944263  49.8272781 185.8223572  18.1628666
  50.4248962 185.4795227  17.3182316  50.4110832 185.8229980  19.0833397
  49.0039558 185.1091003  18.2018147  50.2508774 188.1824799  17.9842892
  49.8397255 189.0069275  18.2541790  47.8113022 188.5457306  16.3110561
  46.6163635 188.3358002  16.4638062  48.3113899 189.7655640  16.1131191
  49.2850609 189.8706665  15.8661013  47.5289612 190.9422760  16.2999401
  46.7210999 190.8029327  17.0183048  48.3759270 192.1158142  16.8251991
  49.1928940 192.2217102  16.1114407  47.8304558 193.0578461  16.7692795
  49.0398560 192.0010071  18.1480885  49.2890205 190.9496307  18.2917652
  49.9599762 192.5853729  18.1499405  48.1571922 192.3348846  19.7308598
  47.1219215 190.8321533  19.9510937  47.7068825 189.9202271  20.0706825
  46.5074501 190.9746246  20.8400440  46.4335060 190.7112579  19.1146908
  46.8331871 191.3623199  14.9512644  45.9440002 192.2472687  14.9746475
  47.2067757 190.8081665  13.7547436  47.9802437 190.1670990  13.6504974
  46.6562157 191.2152405  12.3996334  46.6379585 192.3050232  12.3873644
  47.5264359 190.8105316  11.2215195  47.1734581 191.4129944  10.3845434
  48.5665970 191.0872803  11.3934736  47.4061584 189.4328156  10.7219734
  47.9063797 189.2038269   9.9352436  45.1329765 190.8651123  12.1829138
  44.4879684 191.4311981  11.3072224  44.5442123 189.9890289  12.9891481
  45.1846848 189.5552521  13.6385565  43.0991592 189.7307587  13.2263851
  42.5971184 189.9588470  12.2861538  42.8737679 188.2615356  13.5651569
  43.6459503 188.1068115  14.3187437  41.9099312 188.0213013  14.0139322
  42.9584236 187.5652161  12.7308455  42.4105301 190.7345123  14.2121096
  41.2300987 190.6289368  14.4837770  43.2146759 191.6773529  14.7498598
  44.1877251 191.6183014  14.4856796  42.6414185 192.6390228  15.7527056
  41.5837479 192.7147522  15.5003176  42.6798439 192.0274811  17.2085838
  42.7176704 190.9449310  17.0870953  43.8162651 192.4476318  18.0505867
  43.7761230 193.5303345  18.1699238  43.6971931 192.0288696  19.0498695
  44.7307129 192.1159363  17.5587788  41.3542976 192.4086151  17.9612122
  40.4554024 192.1160583  17.4185276  41.2018890 191.9526062  18.9394436
  41.4582634 193.4537354  18.2527542  43.0840683 194.0910187  15.6641903
  42.1973953 194.9202576  15.9402361  44.3568535 194.4090118  15.3064976
  45.0422211 193.6741791  15.2046347  44.8135109 195.8186798  15.0978117
  44.3943481 196.4779816  15.8578920  46.3573456 195.8676605  15.3444052
  46.6209373 196.9233551  15.4085941  46.5013466 195.5620270  16.3807259
  47.2337761 195.1593781  14.2735844  47.4583244 194.1736603  14.6810389
  46.6779633 195.0689545  13.3403120  48.5746460 195.7729187  14.1170349
  49.1337738 196.3282166  15.0389519  49.2727547 195.4984283  13.0498524
  50.2156754 195.8290100  12.9024782  48.8276253 194.9064484  12.3631859
  44.4269562 196.4555817  13.7898903  45.2059479 197.1690521  13.1709061
  43.2128372 196.2190552  13.3630753  42.6583099 195.5740967  13.9076967
  42.6068687 196.7985382  12.2086906  43.3779030 196.7839508  11.4383678
  41.3889465 195.9582520  11.6723461  40.5464058 195.9507751  12.3638420
  41.0204468 196.5216675  10.8150969  41.7581978 194.5004578  11.2173395
  42.7281647 194.4139404  10.7276649  41.8289413 193.5526123  12.4152861
  41.1049347 193.8501282  13.1738396  41.6541939 192.5307617  12.0785742
  42.8843384 193.4992981  12.6824789  40.6908264 193.8362274  10.3551912
  40.5494690 194.2883911   9.3735237  40.8892632 192.7884979  10.1293573
  39.7295456 193.8306274  10.8690071  42.2750473 198.2917175  12.4781990
  41.0999641 198.6992950  12.4513035  43.2603798 199.1185760  12.7469063
  44.2101212 198.8187408  12.5790129  43.0285721 200.5701752  12.9673462
  42.2899323 200.8754578  12.2261934  42.5100403 200.8223877  14.3937235
  42.1285591 201.8372040  14.5065880  41.6031265 200.2206116  14.4526062
  43.5900993 200.3837738  15.5304127  44.2977867 199.6864471  15.0820484
  44.2139244 201.2323151  15.8113098  42.9815521 199.6828613  16.7710228
  43.0150604 198.4453888  16.9140835  42.3949051 200.4365082  17.6140099
  41.9318886 199.9356689  18.3589039  42.4695740 201.4397430  17.5242386
  44.2628517 201.3527985  12.5108919  45.2415047 200.8449402  12.0297184
  44.2268867 202.6766968  12.7415705  43.4289742 203.0290833  13.2507429
  45.3220558 203.5939331  12.3947563  45.5487404 203.3836975  11.3495226
  44.9749832 205.1069641  12.5089436  45.8026733 205.6692047  12.0766096
  44.1278000 205.4338531  11.9060087  44.8257256 205.4135284  13.9053812
  44.8100929 206.3598328  14.0662518  46.7074089 203.3200989  13.0587921
  47.7488747 203.7889709  12.5230608  46.8387566 202.5946808  14.1655855
  45.9775581 202.3257294  14.6195717  48.1376228 202.3207397  14.8235521
  48.8208237 203.1688995  14.7791710  47.8426361 201.9553680  16.2926311
  47.0140305 201.2494507  16.2362232  48.6673584 201.3454742  16.6613407
  47.6182632 203.1407318  17.3317261  48.4287567 203.8688660  17.3639641
  46.3485985 203.9324951  17.0009232  45.4862633 203.2687836  17.0638943
  46.0694771 204.6819611  17.7415257  46.4241333 204.4160004  16.0269489
  47.5005493 202.4957428  18.6966743  48.2821083 201.7480621  18.8317451
  47.5335121 203.1706085  19.5519905  46.5478249 201.9753723  18.7948036
  48.9797020 201.2230225  14.1210585  50.1271057 201.0733948  14.5220613
  48.4379692 200.4767151  13.1232891  47.5199280 200.7146912  12.7759171
  49.1141357 199.2355957  12.6987705  49.2845345 198.5824432  13.5546083
  48.2060699 198.4567871  11.7348452  48.6383820 197.4972687  11.4510679
  47.2956047 198.2225800  12.2864876  47.8922691 199.1543274  10.5262346
  46.9475098 199.1419067  10.3563213  50.5392036 199.4336853  12.1299534
  51.4271927 198.6512451  12.2262115  50.6732407 200.6146698  11.4304829
  49.8401909 201.1333008  11.1914339  51.9765091 201.1654053  10.9322453
  52.5382881 200.4224701  10.3660774  51.7667465 202.2951813   9.8561420
  52.7155113 202.5138397   9.3661070  51.0614624 201.9520264   9.0992241
  51.1640701 203.5007172  10.5521040  50.4280739 203.2361755  11.3113327
  52.0120430 204.0217438  10.9966192  50.4852257 204.4212799   9.5567122
  51.2315369 204.9614258   8.9741640  49.9879799 203.7557068   8.8511238
  49.4943199 205.2591553  10.2536058  48.6969872 204.7622375  10.6243162
  49.5927429 206.5349274  10.5566807  50.6686020 207.1875610  10.3584013
  51.5222130 206.7188873  10.0904360  50.6136894 208.1868439  10.4944925
  48.6675110 207.2138824  11.0504198  47.7304192 206.8554077  11.1664371
  48.9361305 208.0853729  11.4845037  52.9776001 201.6236115  11.9779510
  54.0009537 202.2372742  11.5617332  52.7864723 201.3719177  13.2682142
  51.9848976 200.8854675  13.6436310  53.8158455 201.6878510  14.2821779
  54.2479477 202.6571350  14.0334549  53.1454315 201.8858795  15.6422300
  52.4759064 201.0327606  15.7519159  53.8877602 201.8246765  16.4380322
  52.2526855 203.2035370  15.5936956  52.8917732 204.0420685  15.3170624
  51.4701691 203.2601929  14.8370132  51.7020264 203.6817932  16.9380417
  51.0038071 204.4992371  16.7581692  51.1470108 202.8519135  17.3755188
  52.7633095 204.0998535  17.8393631  53.5472450 204.5274658  17.3674583
  52.8842659 204.0208282  19.1565666  51.9819489 203.4598846  19.9043770
  51.1202583 203.2820587  19.4084206  52.0642204 203.3088074  20.8996201
  53.8931656 204.6247864  19.7234478  54.6181793 204.9847260  19.1193848
  53.9667931 204.5666046  20.7290802  55.0269585 200.6491852  14.2897215
  55.3824921 200.0771942  15.2847519  55.5194473 200.3871460  13.0650997
  55.2741585 201.1014404  12.3944921  56.3652954 199.2412109  12.5686445
  55.7882195 198.3310852  12.7322311  56.3400307 199.4269562  10.9737978
  55.3430290 199.7183228  10.6433516  57.0073395 200.2477722  10.7109985
  56.6499634 198.2118683  10.1399832  57.8022461 198.0442657   9.4414482
  57.6539345 196.8871918   8.8064013  58.3590889 196.4199066   8.1349897
  56.4976044 196.2862244   9.1319513  56.2985229 195.3382416   8.8459206
  55.8474579 197.1311188   9.9849558  54.8842201 196.9863281  10.4514551
  57.7219315 198.9173889  13.1733942  58.2801743 199.7314301  13.8716679
  58.1997299 197.6872711  12.9311037  57.6746063 197.0934753  12.3052101
  59.3800735 197.1917419  13.6071739  59.2520218 197.3477173  14.6783314
  59.4534187 195.6514893  13.3608503  60.4540253 195.3567505  13.6771116
  58.4907112 194.8505554  14.2231026  57.4484978 194.9855804  13.9338598
  58.8252144 193.8139801  14.1816778  58.5806656 195.0543060  15.2901058
  59.3213577 195.3794250  11.8437672  58.2611580 195.3739014  11.5906916
  59.7750740 196.1635132  11.2375927  59.9323616 194.0620117  11.3881626
  59.3164673 193.2519226  11.7787247  59.7722397 193.9316559  10.3178949
  60.9899216 193.9333801  11.6186361  60.6888237 197.9034271  13.1318693
  60.6578751 198.7384644  12.1775150  61.8390312 197.7675476  13.8035536
  62.4824600 198.4407959  13.4125996  62.5462227 196.7446747  14.6331453
  63.4438782 197.2504578  14.9888258  61.8306503 196.4560089  15.9392843
  60.9441795 195.8387451  15.7935343  62.5360146 195.8191376  16.4730892
  61.4929085 197.7127228  16.8199520  62.3950653 198.8036957  16.9025402
  63.3311234 198.7569580  16.3658791  62.1099625 199.9432373  17.6030083
  62.7933235 200.7793579  17.5854549  60.8978691 200.0235138  18.2968044
  60.7181396 200.9060669  18.8927803  60.0116158 198.9676208  18.3799496
  59.0956001 198.9487915  18.9517574  60.2928619 197.8630676  17.5514507
  59.6004791 197.0369110  17.4847755  63.1887779 195.5973206  13.8313570
  63.6777496 195.8513794  12.7596607  63.3598289 194.3837128  14.4144011
  62.3351135 193.5589600  15.0452509  61.3329620 193.6828308  14.6348286
  62.0929298 193.7142792  16.0965939  62.6748276 192.0449219  14.8416872
  62.2641144 191.6600800  13.9082460  62.3020401 191.4187164  15.6522417
  64.2182388 192.1303253  14.8361664  64.5797272 191.3786774  14.1344223
  64.5790253 191.9630280  15.8510323  64.6105652 193.5634613  14.4072723
  65.2868195 193.9384918  15.1754665  65.3594055 193.4869995  13.0519457
  64.7597046 193.1077271  12.0460072  66.6916122 193.7066498  12.9182978
  67.0232620 193.6252289  11.9677811  67.6395950 194.2914581  13.8647928
  68.5618439 194.4294434  13.3004160  67.9866486 193.2488861  14.9253626
  68.8734894 193.5351562  15.4907551  67.0809555 193.0899811  15.5106573
  68.2920837 191.9866791  14.3410215  69.0407181 192.1318817  13.7578793
  67.2881927 195.6457062  14.4860773  66.2188721 196.2121277  14.2062044
  68.1436920 196.1944580  15.3855505  68.9867477 195.6496429  15.4975262
  68.1359100 197.5749969  15.9835081  67.9696274 198.2359009  15.1328239
  66.9501724 197.6718445  16.9162388  66.0908432 197.1779327  16.4626827
  67.1220932 197.1204376  17.8406334  66.5615387 198.9912262  17.2672768
  65.7180939 199.0071411  17.7254848  69.4180069 198.1128845  16.6810474
  69.3390274 198.5953674  17.8102264  70.6198730 197.9356842  16.1055050
  71.3371124 198.3760376  16.6638641  71.2359543 197.2809296  14.9771881
  72.2405243 197.6934814  15.0707064  70.6929245 197.8256836  13.6231432
  69.7062302 197.4134827  13.4119225  70.6615372 198.9125824  13.5471849
  71.5451736 197.2687073  12.4582443  71.6760330 196.1984863  12.6182470
  70.9651642 197.3426971  11.5383472  72.9705276 197.9285126  12.3764210
  73.2521973 198.3908081  13.3224907  73.6648788 197.1229401  12.1376114
  73.1165771 199.0149841  11.3363266  72.2302475 199.6493683  11.3450508
  73.9219589 199.6667023  11.6750364  73.3653641 198.5020294   9.9367542
  72.7738571 197.7395935   9.6385803  73.2596664 199.2344666   9.2493811
  74.3224030 198.2428894   9.7443275  71.4364853 195.7704315  15.1634741
  70.6152573 195.0012665  14.6344385  72.5193176 195.3174744  15.8768911
  72.4420242 194.0561371  16.5512371  72.6535873 193.2310181  15.8711452
  71.4686813 194.0031738  17.0389881  73.4980011 193.9291992  17.6332264
  73.8482666 192.9240570  17.8679504  73.1160736 194.4511108  18.5106373
  74.5856781 194.7375793  16.9052887  75.3140793 195.2071228  17.5664024
  75.2239151 194.1162262  16.2770596  73.8939590 195.7893372  16.0407200
  74.3740921 195.7530975  15.0628309  74.1951981 197.1917419  16.6132336
  73.3854752 197.7416382  17.3629150  75.3411331 197.7677765  16.1280499
  75.8283005 197.0746918  15.5781441  76.1796951 198.9668427  16.4680538
  77.0265198 198.9523773  15.7819204  75.3771286 200.2163391  16.1804676
  74.9129868 200.0264435  15.2126770  74.5527420 200.3157501  16.8865891
  76.3042603 201.4837799  16.1690254  76.6319962 201.7260132  17.1799698
  77.1644211 201.3089752  15.5227528  75.4786606 202.7055511  15.6096725
  74.5386810 202.6656494  16.1600876  76.1030426 203.5951843  15.6921377
  75.2334290 202.5511780  14.1457319  76.1259995 202.0965576  13.7159119
  74.4438400 201.8090057  14.0281839  74.8620911 203.8125916  13.3709879
  75.5281906 204.5298004  13.6200733  74.7499695 203.6481476  12.3807907
  73.9625168 204.1310577  13.7018290  76.7675781 198.8898163  17.8925323
  77.8849640 199.3256836  18.0927086  76.1412201 198.1484985  18.8144569
  75.2340851 197.8210297  18.5144882  76.5431671 197.7928619  20.2487965
  77.1669922 198.5357513  20.7458477  75.2672501 197.8419647  21.0962563
  75.6840591 197.5248413  22.0521870  74.7897415 199.2834930  21.2172699
  74.4654007 199.6799622  20.2551270  74.0345688 199.4380035  21.9879417
  75.6176758 199.9290619  21.5102787  74.1008148 196.8949127  20.7495232
  74.4999695 195.8951569  20.5784855  73.2760315 196.8335114  21.4594955
  73.6988144 197.1228943  19.7623463  77.2393570 196.4855652  20.4444447
  77.8466110 196.2634430  21.4928360  77.1831207 195.5638885  19.4420319
  76.7833710 195.7900696  18.5425034  77.6815491 194.1732941  19.5037041
  77.6397095 193.7903900  18.4840317  79.2478180 194.0731354  19.8100090
  79.4873886 194.3960724  20.8231297  79.5617676 193.0320740  19.7344666
  80.2522125 194.6045685  18.8742619  81.1900558 195.5375214  19.1868343
  81.3736877 195.8359680  20.2084064  81.8983383 195.7650604  18.0012665
  82.6936493 196.3871460  17.9769363  81.5445862 194.9339600  16.9819412
  82.0053101 194.8017578  15.6405773  82.7899933 195.4589386  15.2959356
  81.4976501 193.7950745  14.8107071  81.8707428 193.7156525  13.8003149
  80.4332504 193.0045166  15.2847443  80.1773834 192.2049866  14.6052847
  80.0073318 193.2061615  16.6263657  79.2161560 192.6074829  17.0530052
  80.5176163 194.1759491  17.5093193  76.7762527 193.1968994  20.2683868
  75.5522614 193.2416382  20.0185528  77.3070602 192.3901520  21.2001724
  78.3107605 192.5017242  21.1847820  76.6732635 191.5360107  22.2183418
  77.5712128 191.1369934  22.6901264  75.8676376 190.3084717  21.6752110
  75.4955368 189.8347931  22.5836506  75.1077118 190.6134033  20.9557438
  76.7324524 189.3037109  20.9144077  76.1241760 188.6396332  20.3003235
  77.2667084 189.8317566  20.1245766  77.6874161 188.4153290  21.6752377
  78.3372574 188.7818146  22.6237907  77.8584061 187.1235046  21.4063816
  78.6205978 186.5915375  21.8015652  77.2027893 186.6640015  20.7906513
  75.9016418 192.3000946  23.3279724  75.1711807 193.2501831  23.0754986
  76.0779572 191.7573700  24.5794277  76.3631363 190.7888947  24.6079197
  75.9831696 192.3351746  25.9206982  75.6430435 191.5524445  26.5987511
  77.3783112 192.7745972  26.4817295  77.2340775 193.2775269  27.4379539
  78.0016174 191.9093933  26.7075901  78.1623459 193.7615204  25.6595097
  78.3932953 194.8932343  26.2086544  78.6795807 193.4447632  24.5521183
  75.0640335 193.5173492  26.0836315  75.3298187 194.5457153  25.4940224
  74.0830536 193.3855438  26.9324055  73.9522629 192.4610596  27.3175144
  73.2442703 194.3803101  27.6344872  72.4084702 193.8120575  28.0426903
  73.9933167 194.9380493  28.8878860  73.3518066 195.6486053  29.4091053
  74.1827164 194.1709595  29.6387577  75.3305130 195.7166748  28.6767406
  75.9504776 195.4702454  29.5387211  75.8852386 195.2496338  27.8629494
  75.3018494 197.2631989  28.4430161  74.3510284 197.6372375  28.8226852
  76.0344696 197.7950745  29.0500317  75.5174713 197.6450500  27.0249100
  74.7069016 197.7623749  26.4338856  76.6566010 198.0630646  26.4897270
  77.8215103 198.0139771  27.1046524  77.9309235 197.6129608  28.0251541
  78.7032318 198.1054993  26.6206188  76.6419449 198.4955444  25.2513237
  77.5339355 198.8720703  24.9637756  75.8397141 198.6132965  24.6491070
  72.5750122 195.3948669  26.6854591  72.2483215 195.0786285  25.5625210
  72.1349716 196.4835663  27.2886581  72.2124786 196.4832611  28.2956810
  71.3663406 197.6116638  26.7980747  71.3027191 198.2466125  27.6817532
  72.1555328 198.3347168  25.7122116  72.5158768 197.6564484  24.9387703
  71.5109863 199.0634460  25.2206688  73.1094437 198.7478180  26.0400791
  69.9186172 197.3394928  26.3967457  68.9795685 197.8255615  26.9381847
  69.7067490 196.5116577  25.3852520  70.4647064 196.0594330  24.8942299
  68.3646469 196.1840363  24.8010750  67.8621674 197.1371155  24.6360283
  68.5526886 195.5872345  23.4141693  67.5953674 195.4231415  22.9195004
  69.0911636 196.3817444  22.8975334  69.3371201 194.2318726  23.3420715
  68.8133469 193.0880890  23.9902401  67.9351349 193.1584473  24.6149006
  69.5651779 191.9303436  23.8890705  69.3015747 191.0583649  24.4692307
  70.7236938 191.8327484  23.0231743  71.1946411 190.8726501  22.8721142
  71.1824188 193.0064545  22.4196301  72.0878296 192.9375916  21.8349171
  70.5275574 194.2246552  22.5817223  70.9134979 195.1389160  22.1555824
  67.3337173 195.4051056  25.6500130  66.2808151 194.9953003  25.2324181
  67.6489563 195.2791748  26.9773731  68.5682297 195.5664215  27.2815418
  66.7368164 194.6667786  28.0054550  66.3987579 193.7557373  27.5116596
  67.4026337 194.2924957  29.3225117  67.3008347 195.1351471  30.0063686
  66.7940979 193.4596100  29.6747684  68.8719635 193.8642426  29.2783508
  69.0173874 193.0491180  29.9872303  69.0598984 193.4586792  28.2842178
  69.8750610 194.9290619  29.7088509  70.8748932 194.4949646  29.7085724
  69.8222046 195.8321991  29.1008568  69.7259827 195.3523407  31.1200638
  69.8238144 194.6319885  31.8212242  69.4165268 196.5478516  31.6772099
  69.1459427 197.6259613  31.0599766  69.0756302 197.5706482  30.0539455
  68.5237503 198.2183380  31.5910778  69.4280624 196.5544891  32.9710732
  69.5143585 195.7291260  33.5467758  69.2261887 197.3592529  33.5469971
  65.4751511 195.5553589  28.1328392  64.3820877 195.0277863  28.2356491
  65.6503220 196.8755798  28.2525768  66.6246719 197.1338348  28.3161640
  64.5887070 197.8156128  28.3048172  64.0200882 197.6130981  29.2124310
  65.1618271 199.2043915  28.3880558  65.8354340 199.3640594  27.5461178
  64.3217239 199.8935242  28.3019199  65.9437714 199.5234375  29.6513653
  65.3097916 199.2802429  30.5040245  66.8060303 198.8670807  29.7689323
  66.4369888 200.9557953  29.8499718  66.6371078 201.6914825  28.8898792
  66.6311569 201.3981476  31.1087570  66.9203568 202.3622437  31.1924038
  66.5366135 200.7695923  31.8936596  63.7538033 197.7341919  27.0639648
  62.4845505 197.7656555  27.0736084  64.3330612 197.4484558  25.8713322
  65.3423691 197.4821625  25.8878384  63.7127113 197.3582153  24.5788498
  63.0064774 198.1703339  24.4062729  64.7371750 197.6854095  23.5398598
  64.9819183 198.7467957  23.5804443  65.6087341 197.0573730  23.7244034
  64.2751541 197.3463898  22.1549587  63.6786232 198.1135864  21.2426319
  63.3805008 199.1163025  21.5111523  63.3188667 197.3350525  20.1088352
  62.8214951 197.6947174  19.3067398  63.8088570 196.1072083  20.1733818
  63.7193031 195.0172577  19.3008080  63.0530128 195.0796814  18.4531307
  64.3841095 193.8425293  19.5705338  64.3339615 193.0469971  18.8418236
  65.0197906 193.7066956  20.7637100  65.4891739 192.7541809  20.9607029
  65.0631714 194.7659912  21.7328739  65.5824432 194.6134796  22.6674881
  64.4800720 196.0325928  21.4586601  62.8858910 196.0763397  24.2790756
  61.8998566 196.1853180  23.5899658  63.2898788 194.9177704  24.8304234
  64.2192993 194.8762207  25.2235489  62.3598328 193.7801514  24.7522755
  62.1294556 193.5297699  23.7167416  62.9897575 192.5026245  25.3208256
  63.4958420 192.8104401  26.2358284  62.2722168 191.7459564  25.6381588
  63.8311310 191.8340607  24.3799973  65.1782227 191.9185486  24.2070198
  65.8648529 192.6111755  24.6709290  65.5275192 191.2182465  23.0862007
  66.4752731 191.2127380  22.7371540  64.4877548 190.6906281  22.4066753
  64.2963715 190.0773926  21.1577530  65.0410614 190.0523529  20.3759499
  63.0062141 189.6404572  20.7959480  62.8316727 189.3129730  19.7817020
  61.9626007 189.7450714  21.6671467  60.9789047 189.4931488  21.2993298
  62.1280670 190.3658295  22.9377098  61.2529449 190.4800262  23.5602207
  63.3923302 190.9050598  23.2761650  61.0401993 194.1451874  25.3943672
  60.0059395 193.8670044  24.8249359  60.9764824 194.8754578  26.5198116
  61.8567505 195.2659454  26.8243656  59.7208481 195.3148956  27.0480118
  59.0426903 194.4617310  27.0655117  59.7742043 195.8766327  28.5253792
  60.3865433 196.7719574  28.6328716  58.7665710 196.1133881  28.8670368
  60.4390488 194.8534546  29.5142422  59.9826736 193.8785553  29.3427925
  61.5199585 194.7782898  29.3955326  60.2730637 195.1934509  30.9969025
  59.2737694 195.8346405  31.4082603  61.0610924 194.5877075  31.8130016
  60.8233070 194.7789612  32.7758026  61.8247795 193.9949493  31.5205803
  59.0318489 196.3366852  26.1790962  57.8170624 196.2312012  26.1320362
  59.6890488 197.2442322  25.5082588  60.6824303 197.2506561  25.6906166
  59.1770630 198.2847900  24.6199589  58.3682060 198.8540649  25.0779781
  60.3146477 199.2603912  24.3595257  60.9026375 199.4411469  25.2593575
  60.9796333 198.6936646  23.7078094  59.8009682 200.5798340  23.7030773
  59.1593361 200.2961731  22.8688431  59.0954628 201.0747681  24.3704586
  60.9707947 201.4178314  23.1138096  61.6615677 201.7917633  23.8695278
  61.5329781 200.6862183  22.5334740  60.5673523 202.6431732  22.2253780
  61.3098831 202.7381439  21.4330845  59.5860558 202.4906311  21.7760601
  60.4904518 203.8694763  23.0395756  61.3893700 204.1489716  23.4055576
  60.2016678 204.6539307  22.4727039  59.8821449 203.8588715  23.8457756
  58.6584854 197.6655579  23.3206177  57.5993538 198.0621948  22.8538208
  59.2564697 196.5789032  22.7758102  60.0998001 196.2146606  23.1955948
  58.7296524 195.8633118  21.5775051  58.4841957 196.5282593  20.7494335
  59.8230362 194.8814087  21.1464863  60.7504120 195.3665314  20.8419781
  60.1715393 194.3055725  22.0038452  59.5694199 193.7829285  20.1013832
  59.5564194 194.1857605  18.7473907  59.8208275 195.2001801  18.4876919
  59.1739159 193.2378693  17.8061008  59.1818237 193.4420319  16.7455997
  58.6187859 191.9830475  18.1886692  58.0840073 191.1392975  17.2514286
  57.5986977 191.6183472  16.5757122  58.5796471 191.5871582  19.5532761
  58.0644302 190.6855469  19.8500004  59.1225891 192.5016022  20.4700928
  59.1232452 192.2360687  21.5169449  57.4818687 195.0361328  21.9983788
  56.5188370 195.1894226  21.2457523  57.4639893 194.3493042  23.1368065
  58.3271904 194.2688293  23.6549816  56.2159958 193.7867889  23.7773762
  55.7665634 193.0818024  23.0780182  56.6697884 192.9205780  24.9737453
  57.3593025 192.1554413  24.6170483  57.2701149 193.5494080  25.6312313
  55.5350761 192.2847443  25.8365879  54.7619247 193.0029907  26.1094837
  55.0493050 191.4654541  25.3065987  56.0806198 191.8478546  27.2005959
  56.6673889 190.8120270  27.3861485  55.8607101 192.6773987  28.2122917
  56.3005524 192.5332489  29.1099873  55.2249222 193.4501801  28.0756207
  55.1485672 194.8704681  24.1070385  54.0092278 194.5982361  23.6845131
  55.5345192 195.9913483  24.7060738  56.4912109 196.0313416  25.0273857
  54.5688515 197.0813599  25.0906811  53.8039131 196.5389709  25.6463642
  55.2304726 198.1472015  25.9660988  55.6216965 197.6833649  26.8715858
  56.0309753 198.5900421  25.3734913  54.2997437 199.3034668  26.3988705
  53.8829842 199.7552490  25.4987011  53.4722366 198.9224243  26.9973183
  55.0174561 200.3486023  27.2663250  55.4432793 199.8331146  28.1271667
  55.7510910 200.9083252  26.6861572  53.9182205 201.3162689  27.7091198
  53.5452919 201.8546143  26.8377857  53.1091270 200.8127136  28.2381611
  54.5099373 202.2986450  28.6112080  55.2142601 202.8430786  28.1341076
  53.6986237 202.7905121  28.9575405  54.9660072 201.9442596  29.4397659
  53.9707260 197.6722260  23.8285408  52.8217735 198.0479584  23.8897381
  54.6812210 197.7882538  22.6852989  55.6331558 197.4525299  22.7200298
  54.2507629 198.4691467  21.4116974  53.6263390 199.3147888  21.6999531
  55.5612221 199.0318146  20.7515469  55.9443970 199.7049561  21.5184689
  56.3229218 198.2758636  20.5606041  55.1944923 199.8601532  19.4824314
  54.6672325 199.1939392  18.7995949  54.6010895 200.6872406  19.8721752
  56.3937492 200.4029846  18.7472496  57.1035118 199.5792236  18.6714211
  56.0535698 200.6893463  17.7520714  57.0910149 201.5756531  19.3839111
  56.7587433 201.8276825  20.3037891  57.9288826 202.4213867  18.7389927
  58.3611946 202.0443726  17.5675755  58.0681419 201.2226257  17.0587025
  58.7910767 202.7248383  16.9574394  58.2411461 203.6133423  19.1651382
  57.9010162 203.9235535  20.0641270  58.9342003 204.1542053  18.6679096
  53.4082756 197.5678253  20.4789619  52.4116478 198.0860443  19.9219608
  53.8863945 196.3057098  20.3515491  54.7474670 196.0084686  20.7877846
  53.2163162 195.3005066  19.4757538  52.9817276 195.8085327  18.5403481
  54.2497520 194.2165527  19.0543098  55.0830154 194.7619019  18.6111832
  54.6003571 193.6966248  19.9458523  53.7118111 193.2893372  17.9847450
  52.8535156 192.7720032  18.4134541  53.3768349 193.7932434  17.0781155
  54.8751488 192.3443451  17.5072899  55.6871376 192.9659576  17.1299706
  55.2355003 192.0134430  18.4813271  54.5288773 191.1172638  16.6543827
  55.3568764 190.4134979  16.5693550  53.7711296 190.5056915  17.1441708
  53.8995628 191.5903320  15.3670931  54.5733223 192.1805725  14.9004374
  53.7435799 190.7658997  14.8048725  53.0213089 192.0716095  15.4980040
  51.9441948 194.7501678  20.0554638  50.9352455 194.8118134  19.3728428
  52.0302658 194.2841797  21.3147755  52.8860283 194.3545837  21.8465824
  50.8771935 193.6456299  21.9421558  50.2493324 193.2507629  21.1434212
  51.2797279 192.4320679  22.8568840  51.8180847 192.8424835  23.7111855
  50.3890381 191.8934021  23.1803150  52.2156372 191.5358887  22.0426712
  51.8011436 190.9474792  20.8352585  50.8387909 191.2450562  20.4457321
  52.7298775 190.1567230  20.1565723  52.4135933 189.6856842  19.2376099
  54.0323563 189.8536072  20.6540585  54.6686363 189.1768646  20.1030979
  54.4030762 190.4647064  21.8505707  55.4362984 190.3808441  22.1535854
  53.5209999 191.3013000  22.5205879  53.8543663 191.8053436  23.4156895
  50.0311928 194.6123199  22.7284851  49.2180481 194.1953278  23.4800739
  50.1049690 195.9006195  22.5183372  50.7532845 196.1565094  21.7873707
  49.2183876 196.9187622  23.1292801  49.3485069 196.8680725  24.2102985
  49.6931534 198.2813263  22.5826302  50.5944481 198.5102386  23.1512833
  49.9297981 198.2179413  21.5205154  48.7497711 199.4052277  22.7725143
  48.5908813 200.1668091  23.9432697  47.5534363 200.9779663  23.7184181
  47.1410828 201.7101746  24.3968201  46.9874649 200.7539673  22.4785728
  46.2848206 201.3311310  22.0389557  47.7359047 199.7363281  21.8813152
  47.5386353 199.2829895  20.9211273  47.7244301 196.6493835  22.8393440
  46.9069405 196.7999268  23.8219090  47.3621750 196.2418213  21.6193829
  48.1267586 196.1413422  20.9671383  46.0206451 195.8898315  21.1478043
  45.3043251 196.5741425  21.6024570  45.9841118 195.9713898  19.6344013
  46.7794914 195.3705139  19.1934700  45.0546227 195.5452728  19.2568283
  46.1113548 197.6745605  18.9973469  44.8545456 198.1276093  19.0058422
  45.4979057 194.5091858  21.6080360  44.3963318 194.0685730  21.3457069
  46.2340469 193.8627472  22.4988270  47.0069885 194.3981934  22.8675461
  45.7512093 192.7391205  23.3571873  45.4325333 191.8791351  22.7681427
  46.9714470 192.3575287  24.2505054  47.3000031 193.2169952  24.8348732
  46.7040634 191.6166077  25.0039291  47.7221642 191.9362488  23.5818863
  44.5057259 193.1916351  24.1947460  43.6039772 192.4004211  24.4477692
  44.3948936 194.4811249  24.5452385  44.9905014 195.1921387  24.1454639
  43.1774902 195.0266418  25.2145195  43.2819443 194.6594849  26.2354908
  43.1945724 196.5642395  25.2842941  42.2975082 196.8464355  25.8354187
  44.0982666 196.9175110  25.7809238  43.1240005 197.0509949  23.9505424
  43.1600571 198.0079346  24.0180988  41.8089676 194.5548248  24.6811695
  40.8852806 194.5741882  25.4689102  41.7145538 194.3665466  23.3611031
  42.5541534 194.4858246  22.8125210  40.4541359 194.0892944  22.6947002
  39.6283798 194.5703125  23.2189655  40.5409622 194.6194763  21.2944489
  41.1631241 193.9832306  20.6649990  39.5929451 194.5093231  20.7679214
  41.0492210 196.0155334  21.0357742  42.0978622 196.0232697  21.3330822
  40.9174080 196.4328766  19.5896320  39.8751297 196.3406525  19.2842445
  41.1884575 197.4795074  19.4510612  41.5655899 195.7311096  19.0647678
  40.1882172 197.0228729  21.7718639  40.4744644 196.8601990  22.8109493
  40.5353470 198.0267792  21.5273342  39.1176262 196.8606262  21.6469536
  40.0323181 192.5938263  22.8406963  38.8295059 192.2299652  22.8609600
  41.0148926 191.7366180  23.2280121  41.9574966 192.0713959  23.3677406
  40.8396378 190.3245850  23.6590309  39.8421135 189.9429779  23.4412766
  41.8530693 189.3138123  23.0290604  41.5264626 188.3076324  23.2918205
  41.9762688 189.3432922  21.5796089  42.3408813 190.3328094  21.3039055
  42.5920105 188.5606537  21.1364021  40.9882431 189.3147583  21.1201611
  43.0911217 189.4281616  23.6233540  43.7145424 188.8582153  23.1671715
  40.9174881 190.1856842  25.1967106  41.1216507 191.1686249  25.9426460
  40.6158638 188.9711609  25.7037277  40.5280724 188.1807098  25.0811691
  40.5229340 188.7106781  27.1375809  40.1997643 189.6540527  27.5777168
  39.3083229 187.8192291  27.4590626  39.1590080 187.7747803  28.5378723
  38.4042397 188.1662140  26.9587173  39.4807701 186.4412689  27.1019039
  38.5822182 186.1192627  27.2044392  41.8653870 188.3381805  27.8686676
  41.8306618 188.1746521  29.1202698  42.9147491 188.1939392  27.1279602
  42.7985382 188.3646851  26.1393051  44.2902832 187.8491821  27.5504570
  44.2254066 187.4454651  28.5608559  44.9655075 186.8408813  26.5287361
  45.0822144 187.2481384  25.5244370  45.9847260 186.7210083  26.8960571
  44.1586266 185.5515900  26.4852295  43.4432182 185.1242828  25.4336452
  43.3317795 185.6414948  24.4921207  42.8120155 183.9364624  25.7690411
  42.2674828 183.3869781  25.1196842  43.1127930 183.5191040  27.1001568
  42.8380737 182.3458252  27.8540974  42.1837196 181.5507660  27.5283604
  43.5511551 182.1264954  29.0288563  43.4075890 181.1570435  29.4826927
  44.4298668 183.1407166  29.5171814  44.9603920 182.9499054  30.4383411
  44.6510544 184.3508301  28.8252010  45.4076538 184.9775391  29.2737541
  44.0241585 184.5456696  27.5643578  45.1714439 189.1472473  27.5821934
  44.9730263 190.0733337  26.7240391  46.2827339 189.1421661  28.3680382
  46.5228958 188.1456604  29.4072514  46.6809120 187.1607208  28.9679108
  45.6894684 188.0567474  30.1040936  47.8248596 188.5171509  30.1342621
  48.7607269 188.1447296  29.7176609  47.6446762 188.2530823  31.1763287
  47.7210579 190.0248413  29.9935551  48.7215691 190.4344635  30.1324196
  47.0144310 190.3845673  30.7414703  47.2324371 190.2057648  28.5132484
  46.6339340 191.1088409  28.3934269  48.3342209 190.3589172  27.4469776
  48.6748772 189.3860626  26.7905827  49.0336227 191.5425568  27.3943653
  48.5626831 192.8327026  27.9302826  48.7368736 192.9343414  29.0014629
  47.5202026 193.0830078  27.7335968  49.3534622 193.9200287  27.3116798
  49.5788879 194.6286774  28.1086140  48.8169136 194.3667603  26.4746342
  50.5609741 193.2772064  26.6710892  51.3654480 193.2121124  27.4036732
  50.9086418 193.7624664  25.7590885  50.0608292 191.8247528  26.3403912
  49.6476784 191.7674561  25.3333549  51.1909332 190.7409515  26.2889099
  51.7529869 190.4490051  25.2401295  51.4970131 190.0940094  27.4094257
  51.1154175 190.5424500  28.2300243  52.5837631 189.1477966  27.5162449
  53.4064980 189.6247101  26.9835587  53.1351204 189.1143646  28.9955330
  53.8636971 188.3083496  29.0826969  53.7051392 190.0228119  29.1902428
  52.1666565 188.9741058  30.1692696  51.8148842 189.9591675  31.0758743
  52.1410980 190.9877930  31.0321541  50.9650650 189.4639130  31.9847946
  50.6529045 190.0262756  32.7635155  50.6954994 188.1056213  31.7510567
  49.8730431 187.1837158  32.3952560  49.2713661 187.5610504  33.2088966
  49.7373314 185.8925934  31.9148998  48.9640388 185.2783356  32.3520470
  50.5611343 185.4288940  30.8422966  50.5366020 184.4408722  30.4068699
  51.3790359 186.4271851  30.1583614  51.9832306 186.0994110  29.3253422
  51.4322472 187.7681732  30.5967236  52.3253555 187.7209625  26.9823780
  53.2961082 187.0024567  26.7729416  51.0316582 187.3120880  26.8539143
  50.2927933 187.9868927  26.9911098  50.6144600 185.9559937  26.4242401
  50.9693680 185.2360077  27.1616478  49.0703049 185.7978821  26.4172859
  48.6468697 185.9871063  27.4036942  48.6677170 186.5524292  25.7415047
  48.6919823 184.3696289  26.0331707  49.2324028 184.1025543  25.1250286
  48.9785538 183.3214722  27.1264553  48.2886391 183.4523773  27.9601154
  48.7233238 182.3064728  26.8219147  50.0004463 183.3439331  27.5050468
  47.2100830 184.2183228  25.6029263  46.8979187 185.0740814  25.0043144
  47.1956749 183.3784332  24.9083157  46.5918808 184.0834656  26.4904709
  51.2293892 185.7320099  25.0391655  51.9216118 184.8299408  24.7406235
  51.0416756 186.7134552  24.1751060  50.4790306 187.5187073  24.4098358
  51.4945107 186.5999298  22.7848034  51.1362152 185.6627655  22.3588352
  50.8618965 187.7744904  21.9933701  51.2773438 188.7385254  22.2868481
  51.1743813 187.6002960  20.9637527  49.3498573 187.7660522  22.0397205
  48.5941467 186.6751404  21.5009251  49.0393333 185.7886658  21.0738487
  47.1894112 186.5928497  21.7073021  46.6624031 185.7215576  21.3474312
  46.5508461 187.6077576  22.3800583  45.2372589 187.5084991  22.6855354
  44.7818260 186.8785553  22.1221981  47.2994118 188.7285767  22.8256454
  46.7827644 189.4951630  23.3840427  48.6475182 188.8264313  22.5968056
  49.1399040 189.6512146  23.0904522  53.0185928 186.5991974  22.6618214
  53.4718781 185.9300842  21.7422791  53.8130112 187.1769257  23.5607185
  53.3087769 187.6482544  24.2980747  55.3084412 186.9431458  23.5976467
  55.7162170 187.4930573  22.7494678  55.9905930 187.6350555  24.7821178
  55.6843872 187.2084045  25.7372627  57.0689507 187.4969635  24.7034721
  55.6056862 189.0568237  24.6897774  56.1559181 189.6452179  25.2119236
  55.7457390 185.4885712  23.6614189  56.8022614 185.1717377  23.1306973
  54.8288307 184.6550293  24.1691532  53.9439507 185.0542603  24.4479008
  54.8848877 183.2045135  24.2813473  55.9339790 182.9346161  24.4024315
  54.1494026 182.7129517  25.5744057  53.1007729 182.7405853  25.2782345
  54.3925018 181.6673889  25.7636814  54.4109993 183.4735565  26.8564167
  54.1842422 184.5138702  26.6231194  53.4927902 183.0475159  28.0037498
  53.6395149 182.0151672  28.3212986  53.6002846 183.7326813  28.8446369
  52.5130577 183.0730743  27.5266991  55.8498993 183.3307495  27.4136162
  56.4705391 183.9410706  26.7575512  56.0159874 183.5901031  28.4592018
  56.1691208 182.2910004  27.3420238  54.2577591 182.4532166  23.1299210
  54.2694206 181.1986694  23.1693783  53.7173004 183.1577301  22.1666222
  53.8272972 184.1603241  22.2197170  53.2624931 182.5283051  20.9220581
  53.6822166 181.5230408  20.8846703  51.7108803 182.4136047  20.9893188
  51.1483383 183.3249817  21.1919079  51.3674698 182.1164856  19.9984131
  51.2300682 181.2438812  21.8055592  50.8471336 181.5120239  23.0986156
  50.9542084 182.5212402  23.4679317  50.2760849 180.5277863  23.9127216
  49.9856415 180.6893158  24.9403172  49.9129982 179.2805634  23.3826351
  49.3059654 178.2770386  24.1391010  49.5074043 178.4237213  25.0661983
  50.4323769 178.8931427  22.0945759  50.1724396 177.9412384  21.6556034
  50.9953156 179.9226532  21.2786465  51.2165146 179.6721191  20.2516594
  53.9011154 183.2200012  19.6246281  53.7107887 182.6626129  18.5710011
  54.6681290 184.3096466  19.7742310  54.6796608 184.6690063  20.7180691
  55.3322830 185.0332336  18.7351227  54.7292099 185.1573792  17.8356819
  55.5049629 186.4659424  19.3239403  54.5329895 186.9589691  19.3409710
  55.8299789 186.3418579  20.3569298  56.5727844 187.1315460  18.4451714
  56.4072990 187.0907593  17.1819706  57.5373611 187.6520996  19.0510349
  56.5839729 184.3232117  18.2777882  57.4628754 183.9591675  19.0639191
  56.7174873 184.1835022  16.9055386  55.9776192 184.4204559  16.2601357
  57.8279037 183.3869171  16.4019585  57.8731003 182.4389191  16.9380054
  57.7241821 183.0975647  14.8929186  57.7523575 183.9301605  14.1900091
  58.5238914 182.4227448  14.5876617  56.8569717 182.4534912  14.7472801
  59.1883507 184.0683899  16.5904350  60.2000694 183.4600525  16.9205208
  59.2250023 185.4463043  16.4967442  58.3695488 185.9296112  16.2628269
  60.4549522 186.2370453  16.6974392  61.2500420 185.9305267  16.0177517
  60.1595688 187.6524811  16.3141003  59.3211288 188.0697327  16.8717899
  60.9886818 188.2412720  16.7065201  60.0047112 188.0165405  14.8092909
  58.9966507 187.7982941  14.4567413  60.0220222 189.0990143  14.6825542
  61.0270309 187.2963104  13.9100399  62.2752762 187.3995361  14.0769091
  60.5308571 186.5166473  13.0133591  60.9261818 186.2071838  18.1780052
  62.0997009 186.0079651  18.4744949  60.0215721 186.2536621  19.1965275
  59.0490036 186.4714203  19.0328445  60.4340363 186.1914978  20.6524830
  61.2789001 186.8651428  20.7956715  59.3122711 186.6192932  21.6114044
  58.4267998 185.9993591  21.4709625  59.6817017 186.6165161  23.1117344
  60.4136429 187.3993835  23.3104343  58.8692780 186.7901764  23.8173676
  60.0599594 185.6514282  23.4488125  58.9344673 187.9493103  21.2019997
  58.2464561 187.8314514  20.5429459  60.8283920 184.7296600  20.9686298
  61.7701874 184.4088593  21.6085434  60.0217972 183.7931061  20.4176464
  59.2951660 184.0372620  19.7600021  60.3414574 182.3278046  20.5743942
  60.3895683 181.9987640  21.6124306  59.2456093 181.4440765  19.9289398
  59.1193962 181.8133545  18.9111977  59.6216125 180.4225159  19.9849091
  57.8876724 181.4757080  20.6503563  57.5899849 182.4987488  20.8802700
  56.8316498 180.8011475  19.7297745  57.1096344 179.7818451  19.4617386
  55.9084740 180.8207092  20.3089676  56.5860214 181.3302612  18.8090076
  57.9157600 180.5334015  21.8936157  58.4683990 181.0156403  22.6999187
  56.9117355 180.2695160  22.2258835  58.4694214 179.6105652  21.7205849
  61.7683220 181.9765320  20.0177326  62.4827232 181.1614838  20.6142464
  62.1486130 182.4557800  18.8550739  61.4725151 183.0326233  18.3752232
  63.5068169 182.3360138  18.2540703  63.7139664 181.2714386  18.1450939
  63.6942139 183.0442505  16.9483891  63.2132988 184.0223694  16.9380474
  64.7533340 183.2068329  16.7485466  63.2080994 182.1298218  15.8538027
  63.8870468 181.2822571  15.7601633  62.2195740 181.7381897  16.0937042
  63.1055031 182.9756927  14.2731018  64.8858719 183.2321014  13.9395113
  65.4346848 182.2923584  13.8780069  65.0781326 183.7462158  12.9977932
  65.3139038 183.9062805  14.6813898  64.5569763 182.8948669  19.2525787
  65.5666122 182.2447052  19.4502449  64.3273087 184.1316986  19.7815819
  63.4249878 184.5832672  19.7367516  65.3186874 184.7306061  20.6815109
  66.2624741 184.7200470  20.1363010  64.9669876 186.1684570  20.8888092
  64.4787521 186.5372772  19.9867554  64.2255936 186.1570282  21.6877537
  66.1450729 187.1313324  21.3672504  65.8183136 188.0993958  21.7469540
  66.5483932 186.6363220  22.2506504  67.2613220 187.2584229  20.3094311
  66.9238586 187.3439331  19.1040726  68.4746094 187.3260498  20.6675930
  65.5346680 184.0390472  22.0323734  66.6351242 184.0849304  22.6067867
  64.4723129 183.4077301  22.5787067  63.5360985 183.5430756  22.2247562
  64.6674423 182.5881195  23.7636414  65.0884247 183.1133728  24.6209507
  63.2998848 182.1432953  24.2384415  62.7192230 181.7422028  23.4077511
  63.3559265 181.5145874  25.1270771  62.4552231 183.2743835  24.8361168
  62.9474640 183.8115082  25.6468487  62.3148918 183.9963837  24.0316811
  61.1231537 182.7045898  25.3540668  60.5374069 183.5376434  25.7426777
  60.5896225 182.3843994  24.4591217  61.2504807 181.6743469  26.3856564
  62.1372337 181.4614868  26.8197746  60.2130203 181.1734009  27.0676918
  58.9915466 181.2840576  26.6627445  58.8977432 181.7406921  25.7667675
  58.2172012 180.9905243  27.2409649  60.3747864 180.6394043  28.2188568
  61.2754860 180.7716827  28.6562862  59.5682411 180.4539490  28.7978096
  65.6064453 181.3918152  23.4883213  66.4355850 180.9896545  24.3095722
  65.5023270 180.7956696  22.2798462  64.6651077 180.9248352  21.7298622
  66.4114532 179.7474365  21.8544331  66.4980011 179.0198669  22.6614342
  65.7610092 178.9598236  20.6772060  65.6119232 179.5780945  19.7919922
  66.6434555 177.7818909  20.2417030  66.9065399 177.1407928  21.0830612
  66.0633316 177.2024689  19.5234928  67.5262680 178.1127014  19.6946144
  64.3590775 178.2763672  20.9600258  63.6178322 179.0624695  21.1038628
  64.0840836 177.7406006  20.0514832  64.4643021 177.6595154  21.8525124
  67.8987885 180.1914673  21.6206226  68.8507538 179.5642700  22.1178455
  68.0556488 181.3861389  21.0050259  67.2057114 181.8364868  20.6969986
  69.3542938 182.1034241  20.8744297  69.9634171 181.3706818  20.3451252
  69.2361679 183.3873749  20.1049004  68.3987198 183.9415741  20.5287533
  70.1685715 183.9303284  20.2596054  69.0103226 183.1966095  18.6216183
  69.7654495 182.5164642  18.2275620  67.9807587 182.8672180  18.4816303
  69.1614075 184.6423950  18.1438141  68.6798172 185.3650818  18.8025074
  70.2168579 184.9141541  18.1273384  68.5720825 184.7987671  16.7349911
  69.1214752 184.0808411  16.1260090  67.5019379 184.6062775  16.6585579
  68.8769150 186.1524353  16.1139622  69.7883759 186.5385132  16.3146744
  68.7709656 186.1573792  15.1095476  68.3068695 186.8959351  16.4912395
  70.0742645 182.3720703  22.2302132  71.2829742 182.2093658  22.3447647
  69.4034195 182.8437958  23.2456017  68.5946732 183.3904724  22.9864120
  69.9167709 182.9485474  24.6244640  70.8698883 183.4765930  24.5952568
  68.9241028 183.8513031  25.4441738  68.5140686 184.5778961  24.7427349
  68.1080856 183.2083893  25.7741337  69.6705170 184.5978394  26.5626335
  69.9949875 183.8381500  27.2737465  70.4602356 185.1695099  26.0751514
  68.7402420 185.5816498  27.2929173  69.3321381 185.9512634  28.1302586
  68.5145264 186.4240570  26.6390839  67.5170364 184.8691864  27.8446655
  67.6982498 183.9649353  28.2564831  66.3266830 185.3500519  27.9549122
  66.0366211 186.6290894  27.7405796  66.7529297 187.3035736  27.5124207
  65.0968323 186.9463959  27.9308834  65.2943878 184.5795441  28.3467808
  65.5259705 183.6398163  28.6355343  64.3841095 185.0130463  28.4065151
  70.3046875 181.6680756  25.3278713  71.0375443 181.6353607  26.2862434
  69.9748535 180.5405579  24.6639156  69.2341537 180.5198669  23.9775848
  70.5749741 179.2380981  24.8818760  71.1063004 179.2118073  25.8332462
  69.4876709 178.1372223  24.9419785  68.7494507 178.3897247  25.7031498
  69.0436249 177.9747009  23.9598789  70.0823364 176.7599030  25.3893032
  69.3260345 175.9790955  25.3091164  70.8611984 176.4806061  24.6797504
  70.6239624 176.7219086  26.8072948  69.8710022 176.7046814  27.7887421
  71.8859024 176.7284393  27.0443611  72.1751480 176.7171631  28.0119934
  72.5518799 176.5573120  26.3045712  71.7128143 178.9530182  23.8630352
  72.7860336 178.6294098  24.2728481  71.5155716 179.0359497  22.5430069
  70.5792084 179.2035675  22.2035484  72.5216293 178.6090088  21.5304756
  72.6968079 177.5420227  21.6681461  72.0732040 178.8070679  20.0226402
  71.8554535 179.8609619  19.8494663  72.8545609 178.5417938  19.3104591
  70.8320236 177.9917908  19.7640076  70.0502167 178.0971222  20.5161934
  70.2149200 178.3453217  18.4207306  70.8650055 178.3011322  17.5469227
  69.3575439 177.7024994  18.2212620  69.7210541 179.3170013  18.4140453
  71.0678482 176.4645844  19.6154766  71.4008942 175.9759216  20.5311165
  70.1302109 175.9616699  19.3787880  71.7413635 176.1886292  18.8041000
  73.8686066 179.3848114  21.7341652  74.8933487 178.7466125  21.5269012
  73.8205109 180.7045593  22.0683880  72.8946838 181.0997620  22.1506538
  75.0267410 181.5356903  22.3409672  75.6073532 181.4498138  21.4224815
  74.7059860 183.0193024  22.5116482  73.7429199 183.1087494  23.0142555
  75.4877396 183.4501495  23.1372089  74.5927353 183.8051453  21.2967110
  75.6539688 184.5477295  20.8171864  75.1784973 185.1456299  19.6679764
  75.7056808 185.9105225  19.1171379  73.8912735 184.7546844  19.4566364
  73.3418503 184.9674835  18.6362991  73.5175629 183.9122467  20.4614601
  72.5343399 183.5460052  20.7174625  75.9290314 180.9815826  23.4613361
  77.1774979 181.1557159  23.3430157  75.3787613 180.4339600  24.5402012
  74.3830414 180.3178864  24.6633625  76.1781921 179.7950745  25.5577374
  76.9366379 180.5304108  25.8263664  75.3756409 179.3225555  26.8058758
  74.5578842 178.6662598  26.5081577  76.0228043 178.8397369  27.5381069
  74.6336365 180.3774719  27.6300411  74.0828171 180.9728088  26.9018421
  73.9504242 179.8497314  28.2954807  75.5628433 181.2080994  28.5706577
  76.5972977 181.7607880  28.1177063  75.1986771 181.4875336  29.7178707
  76.8731384 178.5561066  24.9917908  78.0049973 178.2601624  25.3606529
  76.2437210 177.6992188  24.1970310  75.3130112 177.9224548  23.8744640
  76.9295197 176.5133667  23.5806675  77.5129700 176.0209045  24.3586006
  75.8626480 175.5107117  23.0634060  75.2144852 175.9913177  22.3305950
  76.3920441 174.7200623  22.5316963  74.9572296 174.8475037  24.1164951
  75.2734070 174.4895782  25.3879185  76.1995544 174.6712036  25.9129581
  74.1565399 173.8690643  25.9479599  74.2231293 173.3733826  26.8254318
  73.1725235 173.6515350  25.0444317  72.0406799 172.8461761  25.1014118
  71.7316055 172.2398224  25.9399891  71.2443314 172.7352905  23.9486694
  70.3908386 172.0737305  23.9657688  71.6542969 173.3491211  22.7175217
  71.0189819 173.2387238  21.8511543  72.9039230 173.9996948  22.7084866
  73.2468719 174.3345337  21.7406673  73.6437149 174.2722778  23.8964062
  77.8502502 176.9176483  22.4227734  78.5925369 176.0400238  21.9736118
  77.9353790 178.2127686  22.0406818  77.3436584 178.8167877  22.5930805
  78.7813416 178.7578888  20.9776478  79.6589050 178.1128082  20.9346924
  78.2195587 178.4886169  19.6219959  77.6867599 177.5384979  19.6605873
  77.5318069 179.2879028  19.3459034  79.3315277 178.4665680  18.5511246
  80.4688492 178.9469757  18.7704639  79.0746689 177.9350128  17.4541187
  79.3157272 180.1700592  21.1505985  78.9221268 181.0912018  20.4848022
  80.3127213 180.3109589  22.0138931  80.5465546 179.4840698  22.5446434
  81.0386124 181.4996185  22.5251312  80.2484055 182.0746155  23.0078754
  82.0873871 181.1818542  23.6218643  82.9258347 180.5895691  23.2553959
  82.5435638 182.1368103  23.8828068  81.5521927 180.5678101  24.9193687
  82.3090439 180.8085938  25.6658993  80.5741501 180.9718170  25.1807327
  81.4117966 178.9841156  24.9270115  81.0310211 178.4186096  23.9034023
  81.7934113 178.4253540  25.9844456  81.6354370 182.3652802  21.3747101
  82.1205444 183.4664612  21.5997009  81.6188354 181.8555298  20.1538639
  81.1229324 180.9792633  20.0741806  82.1251984 182.5315704  18.9838028
  82.2836533 183.5785217  19.2424393  83.4814072 181.9319000  18.5576286
  83.2321243 180.8910828  18.3510513  83.7927399 182.3923187  17.6199780
  84.4921417 181.9513855  19.6674843  84.5729828 180.9761353  20.3946571
  85.3715363 182.9355469  19.6873779  86.1631546 182.8382874  20.3070431
  85.3981323 183.6832123  19.0088654  81.0395050 182.6338959  17.8773251
  81.4158096 183.0106812  16.7357388  79.7807541 182.1945496  18.0296822
  79.6089020 181.7242889  18.9068451  78.7220535 182.4277191  17.0492706
  79.2016068 182.0730133  16.1369591  77.5810089 181.5399170  17.4275532
  77.9953461 180.5317383  17.4265366  77.2249985 181.8437042  18.4119682
  76.4555817 181.5036926  16.2763939  76.9008789 181.7601929  15.3151302
  75.7820129 180.1287231  16.1214600  75.0417557 179.9397583  16.8988934
  75.1936874 180.1516876  15.2041597  76.5685272 179.3741302  16.1120319
  75.3262100 182.3950958  16.6264553  75.5991592 183.4476624  16.5508881
  74.5334702 182.1493225  15.9198790  74.8807678 182.2463684  17.6101036
  78.3904877 183.9093170  16.8208828  78.0659332 184.6658020  17.7265186
  78.3007812 184.2933350  15.5389547  78.6567078 183.6568909  14.8401299
  77.6097641 185.4527283  14.9340334  77.4400558 186.2216949  15.6876822
  78.5208817 186.1551666  13.9229527  78.9797363 185.3659058  13.3274517
  77.8752289 186.7489624  13.2759380  79.5393677 187.0417175  14.6088333
  78.9563522 187.8196564  15.1017809  80.0351105 186.5707703  15.4576950
  80.5181808 187.6391754  13.6175632  81.2185516 188.2989197  14.1297321
  81.0731964 186.7889404  13.2211342  80.0032806 188.3297272  12.3326950
  80.8770294 188.6226349  11.7505751  79.5166779 187.5488129  11.7483196
  79.0945358 189.4689636  12.5445318  79.5429764 190.3372803  12.7995262
  78.5353775 189.6363525  11.7202654  78.4655380 189.3150177  13.3196211
  76.3104858 185.0707703  14.2698469  76.1909637 183.9657440  13.6949568
  75.3396530 185.9545746  14.3149099  75.4695816 186.8553467  14.7529154
  73.9574203 185.7623444  13.7842865  73.6281662 184.8181152  14.2180490
  72.9634781 186.7317047  14.4400682  73.4383163 187.7127380  14.4260883
  72.0389557 186.8115540  13.8682432  72.5575638 186.4178314  15.9381447
  73.2537766 185.5830231  16.5448742  71.4896622 186.9347534  16.4049034
  73.8463821 185.6711884  12.2783451  72.7140198 185.4067688  11.8460007
  74.9737549 185.8165283  11.5591745  75.8287582 186.0345612  12.0506344
  75.0418396 185.5828705  10.1262274  74.2371979 186.0999298   9.6034536
  76.3655243 186.1276093   9.5407534  77.0474014 185.2810974   9.6218004
  76.2545700 186.2525635   8.4636402  77.0133820 187.3542328  10.1865177
  77.3738174 187.2191772  11.2062979  77.9692535 187.5548706   9.7026129
  76.2177658 188.6838379  10.0521288  75.4155655 188.8240204   9.0871964
  76.3119049 189.5347137  10.9630384  74.8753433 184.0762787   9.6767950
  74.4339294 183.7705688   8.5750980  75.1897430 183.0905609  10.5608788
  75.6645966 183.2817841  11.4315376  75.1671829 181.6325836  10.2618475
  75.3715363 181.4266357   9.2111683  76.2018661 180.9117584  11.1229210
  76.5088272 179.9396210  10.7371559  77.1515045 181.4468079  11.1196566
  75.7705994 180.7949982  12.4554043  76.1666260 180.0412750  12.8988829
  73.7680359 180.9888763  10.5253506  73.5194550 179.9865112   9.8546200
  72.9783096 181.4438477  11.4398699  73.2667465 182.2438507  11.9847488
  71.6404572 180.9177246  11.6421890  71.5287323 179.8376312  11.5472765
  71.3054581 181.2929077  13.0769863  71.3712692 182.3801575  13.0362902
  70.2696381 181.0684052  13.3315125  72.2293396 180.7134094  14.1779966
  73.2539444 181.0055389  13.9478989  71.8311310 181.2324524  15.6295729
  70.8138046 180.8710632  15.7796764  72.5186081 180.9091492  16.4112053
  71.7077332 182.3153839  15.6415844  72.0526962 179.2056122  14.2630444
  72.2158279 178.8293762  13.2531252  72.8658295 178.8421326  14.8913708
  71.0945969 178.8719330  14.6615477  70.6114807 181.5373230  10.6286707
  70.7935867 182.6844940  10.2111931  69.5368881 180.7935028  10.2583952
  69.3909454 179.3584595  10.4080257  69.0786285 179.1368103  11.4285336
  70.3512802 178.9161835  10.1429749  68.3448639 179.0072937   9.3400955
  67.8313828 178.0827637   9.6040783  68.8255539 178.9292450   8.3649311
  67.4014435 180.2243805   9.3946676  66.7187958 180.2326813  10.2443876
  66.8255692 180.1720886   8.4706888  68.4343567 181.3426819   9.4842854
  68.7279282 181.6767426   8.4891357  67.7800598 182.6304626  10.1359196
  67.4437714 182.6205902  11.3104820  67.5026321 183.6985016   9.3690453
  67.8765793 183.8169250   8.4383230  66.4594574 184.7100220   9.7450132
  66.6920929 185.0853271  10.7415800  66.4820633 185.9287567   8.8267794
  65.5879288 186.5205078   9.0228844  67.7143784 186.7457886   9.2177439
  68.6760101 186.2488708   9.0894718  67.8421173 187.6450195   8.6151142
  67.6674271 187.1399384  10.2328997  66.6001205 185.5941620   7.4406190
  66.4530258 186.4313507   6.9944391  65.0271225 184.1811218   9.8212900
  64.1604538 184.6540222  10.5842819  64.6992416 183.0549774   9.1653681
  65.3053436 182.5695496   8.5195293  63.3530693 182.5259552   9.0344028
  62.6673203 183.3731384   9.0457640  63.2706947 181.9161682   7.5675502
  63.7713013 182.5447998   6.8311272  63.8504295 180.9975281   7.6575556
  61.8545685 181.7916412   7.1159706  61.1820564 182.7695312   7.0727649
  61.4489365 180.5294647   6.7284527  60.5423431 180.4471436   6.2909513
  62.0767059 179.7409973   6.6627421  63.0374985 181.4998627  10.1407576
  63.8893814 180.6058807  10.2834387  61.8659019 181.5122375  10.8709803
  60.7129097 182.4389496  10.6774435  60.4843712 182.5383453   9.6163149
  60.9912415 183.4199829  11.0624294  59.5377197 181.8383636  11.4625559
  58.8711510 181.1816559  10.9035177  58.9269333 182.6639709  11.8278475
  60.2267075 181.1128998  12.6002541  59.5389442 180.4074860  13.0665989
  60.4939880 181.7916718  13.4101582  61.5418549 180.5810394  11.9517260
  62.3438606 180.5776520  12.6898842  61.4016075 179.1133423  11.4807472
  61.9470673 178.2252197  12.1807823  60.8846817 178.8608398  10.2669735
  60.5292778 179.6028748   9.6811771  60.6406097 177.4381409   9.7742949
  60.0547371 176.9479980  10.5518684  59.8712120 177.4912109   8.4409533
  60.4768715 178.1049042   7.7741294  59.8755951 176.1506042   7.6773877
  59.4207726 175.4198303   8.3461208  59.3791161 176.0364532   6.7137589
  60.9150391 175.8811493   7.4901738  58.4500885 177.9528656   8.6935053
  57.7939072 177.3255005   8.0902195  58.2339478 177.8193512   9.7534857
  58.2033386 179.3650055   8.1331692  58.3319244 179.3951111   7.0511985
  57.1492081 179.6314087   8.2102365  58.7694168 180.1466370   8.6398153
  61.9733543 176.7229767   9.7286024  62.1699982 175.8083954  10.4660540
  62.9510994 177.3746490   9.1150045  62.7507935 178.1848907   8.5462456
  64.2730942 176.8032684   9.0142317  64.1928940 175.7662506   8.6882496
  65.0833588 177.5233917   7.9068685  65.1912537 178.5409088   8.2825327
  66.0990219 177.1430511   7.7978883  64.3008881 177.7353668   6.5800505
  63.5083160 178.6619415   6.4833789  64.7261658 177.0377350   5.5769396
  65.1156693 176.8204041  10.3011780  65.8720398 175.8623505  10.5095539
  64.9494247 177.8002625  11.1878738  64.4272537 178.6109924  10.8876152
  65.4975662 177.9119263  12.5402088  66.5760193 177.8410034  12.3987322
  65.2082596 179.3018341  13.1405315  65.4671097 180.0221405  12.3644791
  64.1381149 179.5081787  13.1579342  65.8253555 179.6630249  14.4792566
  65.3186951 179.0342255  15.6096973  64.4701614 178.3745728  15.5035591
  65.8866882 179.2735901  16.9065323  65.4774323 178.8292847  17.8018074
  67.0189972 180.1568146  17.0367393  67.5169678 180.2854767  17.9864082
  67.5501862 180.7108154  15.8511705  68.4821701 181.2459259  15.9583054
  67.0425720 180.3804474  14.5990601  67.5984344 180.7694855  13.7587919
  65.1290894 176.7602997  13.4457531  65.9520874 176.0794373  14.0638714
  63.8139954 176.4147034  13.4452267  63.0947533 176.9133911  12.9411554
  63.2920418 175.3575134  14.2712135  63.8980255 175.4989624  15.1661310
  61.8213577 175.5554199  14.6207237  61.6028519 174.8024750  15.3779869
  61.6810493 176.5818176  14.9596825  61.0165062 175.3656311  13.4322262
  61.1226501 176.1799622  12.9350271  63.6022568 174.0136719  13.6579285
  63.7644310 173.0673828  14.3999310  63.7215233 173.9482117  12.3060913
  63.3713722 174.7148132  11.7494879  64.2271805 172.7471008  11.6177378
  63.6998596 171.9086151  12.0726776  63.9231186 172.7909393  10.1448517
  64.2696915 173.7491150   9.7577009  64.6285324 172.0617065   9.7464571
  62.5298958 172.3824310   9.7136126  61.8369026 171.2726440  10.3302956
  62.3034515 170.6489716  11.0784769  60.6428566 170.8784943   9.7971201
  60.0966263 170.0312805  10.1847610  60.0787468 171.5935364   8.7246771
  58.8005600 171.1986694   8.2338762  58.5063667 171.7520599   7.5066938
  60.6913109 172.7535858   8.1621962  60.1592979 173.3093262   7.4042315
  61.9144440 173.1053467   8.6998272  62.4511986 173.9692688   8.3366051
  65.7295914 172.5579529  11.9548349  66.0960617 171.4068909  12.2777672
  66.6037064 173.5350800  12.0876398  66.2164154 174.4494629  11.9032593
  67.9935760 173.4060211  12.4960823  68.4364014 172.6031494  11.9066706
  68.6625900 174.7503662  12.3171978  68.5463943 175.1102905  11.2949219
  68.1869202 175.4799194  12.9726276  70.1148300 174.7835083  12.6994905
  70.4420471 175.8211975  12.6344776  70.2875443 174.4032593  13.7063122
  70.8766098 173.9905396  11.6574678  71.9194031 173.8836670  11.9562330
  70.4097748 173.0325165  11.4286432  70.9829407 174.8048706  10.4491062
  70.4989853 174.3749847   9.6738062  71.9888229 175.6388702  10.1065149
  72.9131927 176.0627594  11.0199203  72.9483948 175.7833710  11.9898682
  73.6826248 176.5964355  10.6414118  72.1128235 176.0388794   8.8864107
  71.6449432 175.4969482   8.1740284  72.7916565 176.7431946   8.6349697
  67.9942322 173.0057068  13.9968519  68.6483383 172.0545044  14.3942194
  67.2857819 173.6699066  14.8754663  66.7736053 174.4729919  14.5395832
  67.3002777 173.3147430  16.3016186  68.3079758 173.2965851  16.7167282
  66.4496841 174.2949982  17.1218987  65.5165558 174.4587860  16.5828800
  66.2641144 173.8560638  18.5791454  67.2489090 173.7028046  19.0204926
  65.6664124 174.6347656  19.0529461  65.7168808 172.9170227  18.6618958
  67.1683350 175.6752472  17.1759758  67.4283752 175.9664154  16.1582832
  66.5513763 176.4889679  17.5571823  68.1157074 175.6234283  17.7125282
  66.7410965 171.8706665  16.4873714  67.4042816 171.0650024  17.1758232
  65.6114273 171.4512329  15.8399544  65.1199799 172.1194305  15.2636843
  65.1148911 170.0698090  15.8347559  64.8640518 169.7151794  16.8344631
  63.8340187 170.0014954  14.9523649  64.0742798 170.4878082  14.0069113
  63.5933533 168.9474182  14.8141956  63.0078964 170.4977264  15.4616642
  66.1640244 169.0181732  15.3925343  66.2621536 167.9855652  16.0117989
  66.9878235 169.2963104  14.3606510  66.8757782 170.1701660  13.8667746
  68.0626144 168.4580078  13.8785677  67.6068878 167.5621338  13.4568758
  68.7284546 169.2139282  12.6691904  69.3284149 170.0895233  12.9171562
  69.4149017 168.5846558  12.1027088  67.9127808 169.3940125  11.9689426
  69.0696030 168.1772156  14.9862480  69.6261520 167.0514679  15.0626974
  69.5178528 169.1705933  15.7663260  68.9583969 170.0109406  15.7361250
  70.6963882 169.1788025  16.5831375  71.2759247 168.3264618  16.2285194
  71.5941925 170.3942413  16.2607327  72.5914459 170.2613373  16.6801662
  71.7310486 170.4498291  15.1807880  70.8682556 171.9333649  16.8039551
  69.8575134 171.9740143  15.9312382  70.4223251 168.8974762  18.0355415
  71.3514709 169.0666351  18.7964153  69.1154633 168.6262817  18.4052372
  68.4218445 168.6119232  17.6712112  68.6902618 168.3877869  19.8062572
  69.2326355 169.1363220  20.3838558  67.2191467 168.7201080  19.9268723
  66.7484894 168.6302643  18.9478359  66.7710953 168.0505829  20.6610985
  66.9502792 170.1659546  20.2955055  67.6119003 170.8132782  19.7199097
  65.4679031 170.5705872  20.1508884  64.8056793 169.9059753  20.7057438
  65.3783569 171.5361481  20.6486511  65.1453629 170.7239532  19.1210594
  67.4208450 170.4585266  21.7224731  68.4659119 170.2827148  21.9774876
  67.2646637 171.5309143  21.8394566  66.7305069 170.0000458  22.4305172
  68.8995895 166.9319000  20.3766632  68.4760971 165.9202576  19.7659874
  69.4481277 166.8267975  21.5713425  70.1988678 167.8033295  22.3446465
  69.5358658 168.4089355  22.9625225  70.6164856 168.4475403  21.5708981
  71.2551346 167.1165619  23.2025223  70.8357239 167.1088867  24.2085705
  72.1768570 167.6868896  23.0873680  71.2696152 165.7006073  22.6278725
  71.4605942 164.9202118  23.3644848  72.0414734 165.6548462  21.8595963
  69.9223404 165.5056458  21.9772625  70.1726608 164.8099976  21.1763191
  68.9729538 164.7169189  22.8906879  69.2694855 164.4116974  24.0792980
  67.7955856 164.4033508  22.3618488  67.7253571 164.5840759  21.3706322
  66.6921234 163.6728973  22.9699078  66.9742355 163.4796448  24.0048809
  65.4408569 164.5036316  22.8817978  64.6091614 163.8516693  23.1488857
  65.4316559 165.6472168  23.9126091  66.2884445 166.3028564  23.7571926
  64.4141312 166.0335083  23.8533497  65.6239853 165.2366180  24.9038277
  65.1697235 164.9792480  21.4368305  65.6486130 165.9487915  21.2999496
  65.5847549 164.2519379  20.7390671  63.7019386 165.1603241  21.1405411
  63.2565498 165.6365509  22.0140095  63.4940376 165.7850494  20.2718678
  63.2214012 164.1882324  21.0300388  66.5310287 162.2931061  22.4031982
  67.1748352 161.8500061  21.4450207  65.6706924 161.5441132  23.0750217
  65.2210770 161.9944458  23.8593445  65.2640762 160.1777496  22.6877766
  66.1878128 159.6501617  22.4501686  64.7402420 159.4658661  24.0135708
  64.5981369 158.4183044  23.7480030  65.5919342 159.4657898  24.6938114
  63.5111542 160.0951538  24.6519070  63.6663132 160.8817749  25.6215935
  62.4197388 159.7017670  24.2326832  64.2559738 160.1478577  21.5436306
  63.5393219 161.1477814  21.2731285  64.3327484 159.0204163  20.8014545
  64.8638229 158.2476196  21.1767654  63.6370964 158.8467255  19.4876842
  63.8662186 159.7795258  18.9724407  64.0107651 157.6078339  18.6193523
  63.8537903 156.7396393  19.2594395  63.4572983 157.6589050  17.6817150
  65.4770813 157.5931244  18.2228413  66.0496521 158.6966705  18.0119572
  66.1586456 156.5505524  18.2093983  62.0479584 158.9536133  19.6226273
  61.3537750 159.4132996  18.7379017  61.4744492 158.5427551  20.7616673
  61.8950844 158.1809692  21.6056290  60.0373497 158.5967407  20.8810863
  59.6266556 158.2058258  19.9501705  59.5706444 157.7251740  22.0486164
  60.0398026 158.0056763  22.9916420  58.4875908 157.7956085  22.1492786
  59.7076454 156.6626282  21.8477879  59.6281929 160.1040344  21.1229649
  58.4525986 160.4022980  20.8302021  60.5099068 161.0528870  21.5637245
  61.3970299 160.6366882  21.8084354  60.4139595 162.5305328  21.7433147
  59.3565254 162.7668610  21.8619881  61.1667747 162.9080811  22.9745045
  60.8238640 162.2351685  23.7604485  62.2405357 162.7491150  22.8751125
  60.9346275 164.3709717  23.3917274  61.2319145 165.0797119  22.6188030
  59.5349655 164.6652222  23.8504562  59.1890945 163.9618683  24.6079178
  59.4623528 165.6811066  24.2388000  58.9370384 164.5803375  22.9430523
  61.8560753 164.6221619  24.5906868  62.8775635 164.3720856  24.3041191
  61.8344421 165.6823730  24.8428917  61.4944992 164.0221710  25.4257698
  60.7665825 163.2435303  20.4400654  60.0611992 164.1970367  20.1271114
  61.6184654 162.6977692  19.6047993  62.1885719 161.9197845  19.9045296
  61.8021202 163.1606903  18.1901665  61.9032135 164.2418518  18.0954380
  63.0773811 162.4872131  17.6394157  63.1926308 161.4703369  18.0146236
  63.0288811 162.4904327  16.5504990  64.2314377 163.4425964  18.0006180
  64.1521912 164.4304047  17.5466900  64.0995331 163.7125549  19.0483894
  65.6473465 162.8584747  17.8126850  66.3716354 163.4936829  18.3226051
  65.6590195 161.8466949  18.2179947  66.0640488 162.8939056  16.3839417
  65.7657852 162.0446167  15.9258413  66.9550781 163.7489166  15.8600073
  67.4398575 164.7853546  16.5025272  67.1584625 164.9912720  17.4504280
  68.0396423 165.4511566  16.0366440  67.3083420 163.5756073  14.6323051
  66.8654175 162.9073029  14.0180759  68.1642990 164.0189362  14.3307934
  60.6074142 162.9055328  17.2741966  60.3421135 163.8091888  16.4499207
  59.8363152 161.8529205  17.5173588  60.1980743 161.2184143  18.2149448
  58.5112762 161.6849518  16.9342175  58.6830101 161.7354584  15.8590174
  57.9139862 160.2493286  17.1208172  58.0587463 159.9346619  18.1543198
  56.3605232 160.3035889  17.0158081  56.1114120 160.6579285  16.0155659
  55.9601669 159.2970734  17.1372585  55.8704987 160.9036560  17.7825432
  58.4552078 159.3076935  16.0307655  57.8088188 159.2272491  15.1568041
  59.3314247 159.7442169  15.5513868  58.8129463 157.8943329  16.5256519
  57.9231071 157.3314056  16.8074493  59.2730713 157.3409729  15.7070017
  59.5676117 157.9115906  17.3119640  57.6063614 162.8674469  17.3572788
  57.0532494 163.5490265  16.5091000  57.5072174 163.1236420  18.6768360
  58.0570030 162.5892792  19.3343258  56.6033821 164.1771393  19.2083340
  55.6162910 163.8765106  18.8570900  56.6286240 164.3704834  20.7465191
  57.6156998 164.6879120  21.0826988  55.8825455 165.1090240  21.0398159
  56.2216148 163.0155792  21.4625874  56.8683853 162.2146454  21.1044121
  56.2800026 163.1438751  22.5434341  54.8027840 162.4826508  21.1200905
  53.7900047 163.1550446  21.1097775  54.6289940 161.1869202  20.8833675
  53.6581573 160.9186554  20.8085155  55.3906555 160.5240479  20.9075832
  57.0064163 165.5728760  18.6300430  56.1785316 166.4492035  18.6397972
  58.2792892 165.7519836  18.2068520  58.9521904 165.0586090  18.5010033
  58.8084297 166.9159546  17.5515137  58.3557358 167.7482452  18.0904484
  60.2484283 167.0773315  17.8035011  60.4526367 166.8324432  18.8458214
  60.8012581 166.4227142  17.1297474  60.8633118 168.5288696  17.8058796
  60.7531242 168.9180603  16.7937069  60.1976204 169.5548706  18.7011890
  60.2546387 169.2565460  19.7480145  60.6606216 170.5344086  18.5818825
  59.1531944 169.5812531  18.3904171  62.3200302 168.3238373  18.0699291
  62.7509537 167.5506287  17.4338856  62.8244133 169.2876587  18.0010910
  62.4712677 168.0580597  19.1161613  58.5048981 167.0269012  16.0317249
  57.9362030 168.0317688  15.5590258  58.7480736 165.9340668  15.2954359
  59.2705688 165.1583557  15.6767130  58.4750938 165.8090668  13.8583336
  58.9350395 166.6661072  13.3663635  59.0047379 164.4630432  13.3876438
  60.0723457 164.3936005  13.5961838  58.5521469 163.6904602  14.0092392
  58.7211876 163.9556580  11.9354219  57.6479683 163.9432678  11.7452869
  59.3952065 164.7834930  10.9020929  60.4844513 164.7453766  10.8883286
  59.1010742 164.4359589   9.9117384  59.0886307 165.8293610  10.9187784
  59.1753006 162.5134735  11.7816858  58.5023232 161.8555450  12.3315182
  59.1456757 162.1871185  10.7421179  60.1751251 162.3762054  12.1935158
  56.9389381 165.9208069  13.5718622  56.5425110 166.4275970  12.5230618
  56.0804291 165.5022278  14.4563608  56.4965630 165.2309113  15.3357496
  54.5742340 165.5489502  14.4118900  54.2424278 165.0675049  13.4919891
  54.0174370 164.7002869  15.5502195  54.7810860 164.7008667  16.3279972
  53.1681366 165.2418976  15.9667034  53.6654701 163.2412109  15.1919689
  52.8460274 163.2212372  14.4734879  54.4953079 162.7823639  14.6544380
  53.1539955 162.4202423  16.4710274  53.9371910 161.7279205  16.7798843
  53.0563164 163.1941376  17.2323647  51.8062477 161.7183075  16.1152821
  51.0707397 162.3759308  15.6519585  51.9825630 160.9891815  15.3244772
  51.2743301 161.0360718  17.2769108  51.0232544 161.7166748  17.9796467
  50.4304276 160.5771637  16.9649067  51.9330635 160.3546600  17.6259899
  53.8366165 166.9210052  14.3239450  52.6253815 166.9711609  14.0542250
  54.5455627 168.0066223  14.5623026  55.5305824 167.8532104  14.7244587
  53.9842529 169.2994080  14.8806019  53.1093597 169.1694946  15.5176172
  55.1360359 170.0145721  15.6623001  56.0677376 169.9647675  15.0987873
  54.7437630 171.4776611  15.9164705  53.7252769 171.4722137  16.3047447
  55.3301163 171.9694672  16.6926250  54.8729057 172.0500336  14.9978790
  55.3923683 169.4230042  17.0378723  55.8020058 168.4472351  16.7767715
  56.0447578 170.1094818  17.5775337  54.1434479 169.1857147  17.9226246
  53.5837479 168.3647461  17.4744625  54.5550537 168.8867188  18.8866177
  53.5542526 170.0827942  18.1128864  53.5971680 170.1358032  13.6366205
  54.1943283 170.1028442  12.6003160  52.5594711 170.9785919  13.7814741
  52.1593628 171.0030670  14.7085228  51.9486008 171.7880554  12.7248821
  51.8526154 171.0848694  11.8975792  50.9801407 172.1096649  13.1079578
  52.7530441 172.9453278  12.3478031  53.0415421 173.1090240  11.1772633
  53.1729126 173.7785034  13.3170881  52.8655014 173.6253967  14.2669058
  53.8829651 174.9731598  13.0633726  54.0605431 175.0181885  11.9888773
  52.9942055 176.1811981  13.4117937  52.0403519 176.1007538  12.8904543
  52.8072090 176.2233582  14.4848061  53.6582260 177.3839111  13.1116943
  53.0630226 178.1231537  13.2560711  55.2274055 175.0507050  13.7536736
  55.3195114 174.7423401  14.9634390  56.1271057 175.8655701  13.1210613
  55.8952103 176.0884857  12.1636515  57.2993927 176.4084015  13.7130642
  57.9842606 175.5674591  13.8220167  57.9680138 177.3556671  12.7269506
  57.2512245 178.1189117  12.4240227  58.8203201 177.9189758  13.1068907
  58.1493530 176.7976379  11.8083572  57.0499535 176.9853058  15.1307039
  57.9098129 176.8455658  16.0298405  55.9475822 177.7373199  15.3029804
  55.3119888 177.8535156  14.5266953  55.5041199 178.2850494  16.6496181
  56.2853279 178.9598083  16.9996548  54.1404800 179.0766449  16.4769363
  53.4464073 178.4464111  15.9209032  53.4067192 179.2764435  17.8484497
  54.0399933 179.8325500  18.5396786  52.4685478 179.8291779  17.7992935
  53.2861633 178.3043213  18.3265133  54.3057632 180.4864044  15.8615599
  54.7125511 181.1690063  16.6076736  55.0935555 180.3130493  15.1284618
  52.9715996 180.9824219  15.1984777  52.2757225 181.4135132  15.9182129
  53.1889763 181.7631073  14.4695101  52.5854568 180.1471252  14.6142855
  55.4659386 177.1877136  17.7794838  56.1048241 177.3567810  18.7897816
  54.7550774 176.0591278  17.5836639  54.2387772 175.9526215  16.7221584
  54.7086372 174.8917236  18.5434818  54.3233948 175.0521698  19.5504303
  53.7111320 173.9533081  17.9112930  54.0743599 173.7198792  16.9104557
  53.6717758 173.0129547  18.4610958  52.2419128 174.4161377  17.9598064
  51.8912621 174.0578461  18.9276810  52.1804008 175.5042114  17.9398422
  51.3224335 173.9212646  16.8813953  51.7028008 173.3698578  15.8553171
  50.0268898 174.1068268  17.0168133  49.3520813 173.8382111  16.3149757
  49.7718811 174.6744843  17.8123302  56.0198631 174.1275635  18.6357059
  56.3126106 173.5728607  19.6410446  56.8494720 174.2175751  17.6018829
  56.5830879 174.6730194  16.7406616  58.0675392 173.5165253  17.5588417
  57.9226227 172.5031128  17.9331570  58.4363098 173.3220520  16.0660801
  57.5067368 172.8996582  15.6845341  58.6645584 174.2844238  15.6079969
  59.6655502 172.4117126  15.9106674  60.5160561 173.0220337  16.2144032
  59.5400505 171.6591339  16.6891079  59.6534615 171.6795044  14.5352240
  60.4968071 170.9979706  14.4239550  58.8108215 170.9993744  14.4107714
  59.8015289 172.6700287  13.4871950  60.5038414 173.3727264  13.6690807
  59.0796127 172.8030548  12.3864899  58.0915451 172.0086517  11.9625626
  57.6817741 171.2997742  12.5538855  57.7197685 172.1802521  11.0392857
  59.4259415 173.8054962  11.6293831  60.2057648 174.3444519  11.9779539
  58.8163605 174.0431213  10.8599386  59.0511208 174.2613831  18.4755058
  59.7472382 173.5692291  19.1981354  59.0988770 175.5887146  18.3908329
  58.4978867 176.0134430  17.6990814  59.8055687 176.4576263  19.3563175
  60.8427963 176.1374054  19.4548740  59.7187347 177.8642426  18.8034286
  58.6720009 178.1022797  18.6142578  60.2266121 178.4719696  19.5523071
  60.4135361 178.0423279  17.4351406  60.2366562 177.1919861  16.7765484
  59.8637123 179.2473602  16.7282543  60.0287933 180.1145477  17.3676453
  60.4398270 179.3819733  15.8127928  58.8052788 179.0763245  16.5318851
  61.9554825 178.1928864  17.4990349  62.2913666 177.2770386  17.9853477
  62.3324699 178.2950439  16.4814148  62.3267593 179.0807190  18.0109043
  59.3283958 176.4359741  20.8302097  60.1062508 176.2179565  21.7487144
  57.9935303 176.3240204  21.0748005  57.3481140 176.5025177  20.3187046
  57.4553223 175.9940948  22.4396801  57.8126640 176.7303314  23.1596622
  55.9265404 176.0378418  22.4245491  55.4721527 175.3958282  21.6699238
  55.5894890 175.6553040  23.3879642  55.3890266 177.4958344  22.2479019
  55.8227119 178.1645203  22.9914570  55.7278290 177.8958130  21.2922173
  53.8740120 177.5314484  22.3148079  53.5049400 178.5565338  22.3476791
  53.6441460 177.0597992  21.3593979  53.2665100 176.7471161  23.4919224
  53.2740517 175.7372131  23.5037994  52.8306885 177.2524567  24.6343746
  52.9834671 178.5123596  24.9980316  53.4603806 179.1745300  24.4028931
  52.3885193 178.8686829  25.7323132  52.3674812 176.4049988  25.5389786
  52.1018219 175.4694214  25.2665367  52.1646385 176.7330780  26.4724255
  57.9580002 174.6113434  22.8650665  58.6145248 174.5402374  23.9145660
  57.7411842 173.6044769  22.0325527  57.0210457 173.7633820  21.3424473
  58.1677704 172.2870026  22.5138702  57.7062111 172.1118622  23.4856663
  57.7461128 171.1955261  21.4916840  56.6869736 171.3085938  21.2602959
  58.3411255 171.3742523  20.5960712  58.1453018 169.5166473  22.0739384
  57.8035545 169.7455292  23.3450470  59.6976700 172.2460327  22.7176590
  60.1007462 171.7966919  23.8375587  60.4514771 172.8850250  21.8441048
  60.0921173 173.2247009  20.9634304  61.8774567 173.0027618  22.0513039
  62.3091621 172.0021057  22.0717831  62.5210228 173.8151398  20.8826294
  61.8822365 174.6477203  20.5879021  63.5317078 174.0657654  21.2048130
  62.6795807 172.8700867  19.6557102  63.4461136 172.1210938  19.8544846
  61.7764091 172.2739868  19.5251389  62.9413643 173.5705566  18.3091660
  62.7802773 174.8300171  18.1692333  63.4012871 172.8021088  17.4301300
  62.2152061 173.7150574  23.3638420  63.1703835 173.3371887  24.0476418
  61.5542221 174.7930756  23.6588478  60.8006592 175.0541382  23.0391006
  61.8726425 175.6998291  24.7842560  62.9369812 175.9201660  24.7021866
  61.0640335 177.0484161  24.6734581  60.0723381 176.7781677  24.3106899
  61.0337067 177.5327148  25.6494904  61.8918991 178.0406494  23.7933979
  62.2295799 177.4759827  22.9243622  61.0126991 179.1394043  23.3393917
  60.5049400 179.6980591  24.1256371  61.5211182 179.8811188  22.7233868
  60.2764702 178.6716156  22.6857395  63.0879745 178.6457520  24.5351963
  63.7600708 177.8875275  24.9370384  63.7319794 179.1920166  23.8460255
  62.6782265 179.2672272  25.3314285  61.5539474 175.0523987  26.1350594
  62.2052612 175.3618774  27.1287746  60.6034813 174.0817413  26.0645256
  60.1224899 173.9031830  25.1945457  60.2686844 173.1602020  27.1323414
  60.2054367 173.6829071  28.0867443  58.9114380 172.5341187  26.7644539
  58.3917503 173.2193146  26.0947342  59.1192741 171.6245575  26.2008991
  58.0248795 172.1158752  27.9047775  57.6108971 172.9774017  28.7622242
  57.7199097 170.9027863  28.0850849  61.4520912 172.1659088  27.3145199
  62.0702286 172.1590271  28.3447475  61.8048286 171.4265442  26.2836170
  61.2247047 171.4089203  25.4570293  62.9560013 170.4841919  26.2365818
  62.7380714 169.6695557  26.9272079  62.9999542 169.8008118  24.8404655
  62.9823761 170.5957336  24.0948792  64.3051453 169.0844269  24.7075901
  64.3238831 168.2543640  25.4137897  64.3998260 168.7138519  23.6869049
  65.1697159 169.7313080  24.8564854  61.7929459 168.8374176  24.6146564
  61.9385033 168.0442810  25.3480434  60.9046745 169.4340363  24.8222809
  61.7266273 168.2613373  23.1333523  62.5841026 167.6795959  22.7950935
  60.8464851 167.6433105  22.9558811  61.6847115 169.1518860  22.5062389
  64.2437134 171.1704865  26.7132492  64.9331284 170.5611420  27.5257854
  64.6576538 172.3502655  26.3158588  64.0488739 172.8398132  25.6756840
  65.8755188 172.9872284  26.8179798  66.6592407 172.2312164  26.7699604
  66.3788681 174.1765137  25.9180622  65.6665192 175.0003967  25.8747044
  67.2480087 174.6331940  26.3914814  66.7226639 173.8193054  24.4149055
  67.5805893 173.1535339  24.3210030  65.8408737 173.2473602  24.1260471
  66.9698029 175.3283539  23.3750343  67.8459244 174.5198669  22.0236244
  67.1086502 173.8843079  21.5331135  68.2749710 175.2951660  21.3888454
  68.5793152 173.8402863  22.4576740  65.7726593 173.5307007  28.2573185
  66.8197556 173.6852264  28.8787975  64.6030807 173.7866974  28.8034248
  63.7743721 173.9703217  28.2560444  64.4384079 174.0793152  30.2648201
  65.2470856 174.7387848  30.5798645  63.0986061 174.8190613  30.6209641
  62.1837807 174.3145599  30.3100376  63.0342331 174.7893372  31.7086582
  63.1969490 176.3596954  30.3057289  64.1955338 176.9011536  29.8735085
  62.1683693 177.0441284  30.5784225  62.2050552 178.0290680  30.3578415
  61.3671951 176.5374756  30.9270191  64.5531387 172.8145599  31.1068554
  65.2556610 172.8368835  32.1048927  63.8392525 171.7147980  30.6836472
  63.2806740 171.8446198  29.8522415  63.5946312 170.5323944  31.5221748
  63.5870094 170.8768768  32.5562820  62.2210197 169.9615326  31.0666351
  62.2632065 169.8846130  29.9801693  62.0297432 168.9562225  31.4419346
  61.1333580 170.9332581  31.5279865  61.0176125 170.9062042  32.6114845
  61.3093071 171.9627075  31.2159328  59.7823563 170.5950317  30.8188229
  59.6684113 171.0268707  29.8245220  59.6894531 169.5113678  30.7470474
  58.6408081 171.2060394  31.6646099  58.7445450 170.7101440  32.6297150
  58.8092194 172.2701874  31.8299236  57.3011627 170.9820862  31.0406818
  56.9146957 170.0690002  31.2330322  56.6181183 171.6039581  31.4491539
  57.3586769 171.2067413  30.0576630  64.6700974 169.4233398  31.3561459
  64.7506638 168.5356293  32.1982765  65.4589005 169.4279327  30.3119698
  65.4043655 170.2402496  29.7142448  66.7375031 168.7211151  30.2088470
  66.5885468 167.7071991  30.5801811  67.2041245 168.8874054  28.7568817
  66.4214783 168.4680786  28.1246319  67.4155579 169.9468231  28.6118832
  68.7692261 168.1266785  28.4424114  69.0064621 168.5668793  27.2035255
  67.8453979 169.2710876  31.1694622  67.9488983 170.4832611  31.3248539
  68.7348938 168.4052734  31.7670002  68.7986984 167.4172974  31.5671902
  69.7492828 168.7863922  32.7840424  70.1740417 169.7251740  32.4285545
  69.1137772 168.8862457  34.2269554  69.9286270 168.7840271  34.9436646
  68.3719940 170.2044678  34.5427132  67.4440231 170.1754303  33.9716301
  68.3316116 170.2389069  35.6314201  68.9727325 171.0636749  34.2444611
  68.2234726 167.7873840  34.4064522  68.0851822 167.6826477  35.3506470
  70.9053192 167.7775879  32.8588486  72.1033859 168.1770935  32.7385559
  70.6516342 166.4798584  32.9354210  69.6797714 166.2164459  33.0140762
  71.6216354 165.3515625  33.1085129  72.6371460 165.7452850  33.0658684
  71.4880142 164.7672272  34.5340309  71.9477463 165.4188232  35.2771149
  70.4553757 164.5045776  34.7637482  72.2371063 163.5166473  34.6423073
  71.8508072 163.1621094  35.4464722  71.4427261 164.2815857  31.9463463
  70.2835159 163.9760132  31.6654224  72.4989929 163.6806946  31.5203800
  73.3805237 164.0807495  31.8084126  72.5211792 162.6688080  30.3940125
  71.4968719 162.4049072  30.1308422  73.1441727 163.3381195  29.1435471
  74.1475372 163.6664429  29.4147758  73.4271927 162.6690979  28.3308868
  72.3703690 164.5029907  28.4911041  71.8294449 165.1351318  29.1953087
  73.3240280 165.4311218  27.7306328  73.9786453 164.9325409  27.0157890
  72.7830963 166.1086884  27.0700283  74.0042648 165.9714508  28.3889847
  71.3784637 164.0535583  27.4310665  70.6946182 163.3628387  27.9244003
  70.8911057 164.9252319  26.9943142  71.8998413 163.5826569  26.5976810
  73.1071701 161.3606110  30.7668209  74.2630157 161.2536469  31.1829815
  72.3084564 160.2970581  30.7262821  71.3557892 160.5043335  30.4625435
  72.6919479 158.9713440  31.3056145  73.7108841 159.0656586  31.6810780
  71.6502991 158.6692047  32.3577042  70.7149429 158.6209106  31.8001366
  71.8267975 157.6519928  32.7073059  71.6828308 159.8600769  33.7048836
  70.5205383 159.4936676  34.2523499  72.6882095 157.8670654  30.2391281
  72.1706390 158.0083923  29.1139050  73.3620987 156.7506561  30.5101070
  73.7742310 156.6956482  31.4305515  73.5360336 155.5970917  29.5108433
  73.6852188 156.0867462  28.5485153  74.8350601 154.7958221  29.8331585
  75.6539841 155.4706879  29.5840626  74.8790665 154.4729462  30.8733063
  74.9799271 153.3311768  28.7522583  74.1405258 152.5854645  29.4762878
  72.1911011 154.7642059  29.5141411  71.5128860 154.5874939  30.5310802
  71.7615814 154.2486267  28.3514423  72.3226242 154.4428253  27.5343628
  70.4154053 153.7202911  28.1365337  69.6941605 154.3337097  28.6765614
  70.1343002 153.6600952  26.5530643  70.0934296 154.6610107  26.1233940
  70.9907608 153.1118164  26.1606789  68.7619781 152.9485016  26.1396599
  69.0585327 151.9311676  26.3950157  67.9235840 153.3686676  26.6952190
  68.5286331 153.1201935  24.5945759  69.5369186 152.9426117  24.2205276
  67.8924637 152.2940216  24.2770615  68.0083389 154.4817657  24.1197968
  67.1392212 154.6816101  24.7465420  68.7541504 155.2509308  24.3204384
  67.6307297 154.4927826  22.6931877  67.0446014 153.6914368  22.5077209
  67.0882111 155.3010559  22.4239922  68.4137955 154.4698639  22.0557060
  70.2215805 152.4009094  28.8826275  69.3155899 152.2735291  29.7179642
  71.2099075 151.4929352  28.7286739  71.9527740 151.6992188  28.0762215
  71.2283020 150.1220703  29.3740273  70.3201904 149.6392670  29.0130177
  72.3765411 149.3477325  28.7941303  72.3537521 149.3910217  27.7052288
  73.3504715 149.7489166  29.0744858  72.4549332 147.8356171  29.2361755
  72.6340179 147.9054565  30.3090935  71.5142975 147.3203125  29.0418491
  73.4901581 146.9591980  28.4675522  74.2210770 147.4098206  27.5844536
  73.5340881 145.7453461  28.8400593  74.3175888 145.1690369  28.5678539
  72.9436874 145.3742828  29.5706978  71.2588120 150.1329651  30.9165115
  70.9216843 149.1766052  31.6216164  71.7612076 151.2407684  31.4991760
  72.2584991 151.8808441  30.8966007  71.6583176 151.5860901  32.9451866
  71.7375717 150.6316528  33.4656181  72.8867035 152.5334167  33.3003883
  72.6176147 153.5232697  32.9317703  73.0130844 152.6388245  34.3778992
  74.4466248 152.0465698  32.5163651  74.4264069 150.7231293  32.6979675
  70.3492432 152.2719421  33.3607483  69.8673401 152.1636047  34.5432701
  69.9659042 153.2309723  32.4816399  70.4434509 153.1829681  31.5929642
  69.0432510 154.4539948  32.6672134  69.0100250 155.0201111  31.7363510
  67.6191788 153.9897003  33.0836067  67.6745529 153.6730347  34.1251259
  66.9676819 154.8624420  33.0392265  67.0584717 152.9143372  32.1675797
  67.2337418 153.1267548  31.1129456  67.5119476 151.9528198  32.4083214
  65.5395660 152.7646027  32.3369370  64.7338867 153.5106812  31.8093891
  64.9933319 151.8522186  33.0914154  63.9938431 151.9246368  33.2174568
  65.5481186 151.2231445  33.6540642  69.5451508 155.4636688  33.6777191
  69.3549652 156.6524658  33.4438629  70.2469330 154.9949493  34.7100105
  70.2983246 153.9883118  34.7743187  70.5479584 155.8308563  35.8821983
  69.9537048 156.7433929  35.8347816  70.1559448 155.0434418  37.1660118
  70.2343979 155.7427826  37.9984016  69.1240540 154.7009125  37.0886574
  71.0314865 153.8482208  37.6458855  71.9111557 153.3323364  36.9162636
  70.8889313 153.4133759  38.8098717  71.9795990 156.3963013  36.0127563
  72.2633438 157.3519592  36.7549591  72.9739075 155.8252716  35.3371696
  72.8276978 155.0165253  34.7500992  74.3798752 156.2111511  35.4595261
  74.6329880 156.5251923  36.4721527  75.3057938 155.0518951  34.9933395
  75.0298386 154.8030090  33.9686470  76.7073746 155.5328522  35.0368462
  77.0775909 155.6949615  36.0491486  77.2626419 154.7118073  34.5833435
  76.8629761 156.4225769  34.4267082  75.2834702 153.8782349  35.7903633
  75.4124222 154.1091309  36.7132149  74.5982666 157.4251404  34.5070572
  74.4786148 157.4036102  33.2811089  75.0194244 158.5736542  35.1107712
  75.1202316 158.4755249  36.1109276  75.2104568 159.8899384  34.4776955
  74.4178696 159.9994049  33.7374725  75.0990448 161.0109558  35.5066223
  74.1382294 161.0723267  36.0176697  75.7555313 160.6904449  36.3155746
  75.5628967 162.4086151  35.0383949  76.5278244 162.2505798  34.5567017
  74.9029694 162.7347870  34.2345085  75.8971252 163.3801117  36.1978226
  76.1723862 163.0003510  37.3339577  75.8966751 164.6125488  35.9344673
  76.5213318 159.9189453  33.7234726  77.5520096 159.7469635  34.3129349
  76.4643784 160.2213440  32.4171219  75.5834808 160.5355225  32.0357971
  77.6881180 160.2724457  31.5918388  78.4985123 159.8216400  32.1646767
  77.4511642 159.3814697  30.3382950  76.3831787 159.3936615  30.1206703
  78.1757507 159.9114075  29.1443157  79.2262573 160.1224213  29.3443508
  78.0812912 159.2965240  28.2492771  77.6857910 160.8443146  28.8654919
  77.8849945 157.9633484  30.5149441  77.6496658 157.3657684  29.6342545
  78.9668427 157.9696808  30.6478348  77.2672195 157.1446228  31.6934605
  76.1874008 157.0239258  31.6067924  77.7753601 156.1803131  31.6958866
  77.4379272 157.6746521  32.6304932  78.0915756 161.7319641  31.3822556
  79.3003769 162.0119324  31.4821033  77.1359177 162.6019135  31.1585293
  76.2052307 162.2692566  30.9505577  77.3920364 164.1252899  31.0859604
  78.1364136 164.3549500  31.8483620  77.9681625 164.4719086  29.6466522
  78.8927536 163.9321747  29.4419327  77.0176315 164.1716766  28.4719868
  76.3263321 164.9979248  28.3061066  77.6803970 164.0187225  27.6202488
  76.4311218 163.2668610  28.6313972  78.3165894 165.8344269  29.4762020
  79.2049408 165.9975128  29.8015270  76.1843796 165.0699768  31.3668880
  75.0222702 164.7099762  31.5407753  76.4275513 166.3910065  31.4304008
  77.2818069 166.7078552  30.9945602  75.5338669 167.4728394  31.8800564
  74.5433960 167.0422668  31.7328339  75.7278137 167.8920746  33.3290482
  75.4681396 167.0791779  34.0071793  77.0427780 168.4746857  33.7263374
  77.1128464 169.4014282  33.1568413  77.0352936 168.5899353  34.8102036
  77.8315811 167.7731476  33.4547768  74.7676773 168.9120178  33.6203995
  74.1946182 168.5323334  34.2905045  75.5148544 168.6660614  30.9236259
  76.5029907 169.0026245  30.2293549  74.3386765 169.2511597  30.8444462
  73.6263962 168.7955627  31.3968773  73.9650574 170.3505859  29.9515877
  73.8920670 169.9375305  28.9455299  72.5428543 170.9008636  30.3454742
  71.8013763 170.1033936  30.2970371  72.5572968 171.2464600  31.3791332
  72.1348343 172.0757294  29.4903049  72.8420410 172.8766174  29.7060108
  72.1547394 171.7958069  28.4370461  70.7330246 172.5402679  29.7233734
  70.0921860 171.7439117  29.3448868  70.6276321 172.5598450  30.8080902
  70.4918213 173.9499817  29.0679417  71.3883438 174.5197754  29.3122845
  70.4271545 173.8498077  27.9844818  69.3134918 174.6556091  29.6466751
  69.3997650 174.9171906  30.6183929  69.1722107 175.5165863  29.1378956
  68.4577942 174.1323395  29.5280972  75.0305862 171.5158691  29.8515224
  75.2898941 172.0183105  28.7229023  75.7451630 171.8540649  30.9170094
  75.3167114 171.4632874  31.7439480  76.7882614 172.8906097  30.9294033
  76.3109894 173.7458191  30.4509373  77.1340332 173.3095856  32.3025703
  77.4924469 172.4391174  32.8520470  77.9245300 174.0595398  32.2744446
  75.9907990 173.9579315  33.0710144  75.5142441 175.0457611  32.7573853
  75.5443573 173.3066101  34.0972252  74.7579880 173.7335510  34.5656738
  75.7991791 172.3525391  34.3091621  78.0948944 172.4885406  30.1270981
  78.7955856 173.3225098  29.5667648  78.3172302 171.1940308  29.9423618
  77.6701889 170.5308533  30.3444023  79.4176941 170.6369629  29.1426659
  80.2646255 171.3163300  29.2389469  79.8592377 169.2019043  29.5504360
  79.1459351 168.5179901  29.0904980  80.8076859 169.0117798  29.0480328
  80.0226898 168.9842682  31.0066967  79.0325699 169.0053711  31.4620247
  80.4316330 167.9837036  31.1471043  80.9871368 169.9627075  31.6811180
  81.8874588 170.5911713  31.1105556  80.8922043 170.1369629  32.9344101
  79.0679779 170.5187225  27.6611881  79.8829346 170.1210327  26.8352203
  77.8711319 170.8538818  27.2611694  77.1418533 171.2054596  27.8650227
  77.4363403 170.7629395  25.8493862  77.9250336 169.8785858  25.4404926
  75.9078827 170.5947876  25.6864090  75.4332428 171.4440613  26.1778851
  75.5217667 170.6845856  24.2113266  76.1141815 169.9952087  23.6097374
  74.4665222 170.5104675  24.0009956  75.6783600 171.7174683  23.9003067
  75.4282608 169.2531738  26.3383961  75.9495392 168.4322205  25.8460388
  75.6392059 169.3475342  27.4036179  73.9397202 169.0720062  26.1780357
  73.7329330 168.8209229  25.1377010  73.5980072 168.1865082  26.7139740
  73.3344879 169.9044037  26.5370789  78.0105438 171.9550018  25.0563583
  77.8077316 173.1026154  25.4512920  78.6564255 171.7393646  23.9386921
  78.6022491 170.7669830  23.6710567  79.2052994 172.7654572  23.0345325
  78.5881500 173.6428528  23.2279644  80.6137085 173.1028595  23.4301147
  80.8031769 174.1674957  23.2931805  80.7596130 172.8329926  24.4760532
  81.6820450 172.2957458  22.7819271  81.8546982 170.9767151  23.0582485
  81.2435303 170.4222260  23.7549648  82.7656631 170.1432190  22.2871552
  82.8642044 169.0924225  22.5162868  83.5374756 170.7370605  21.3500252
  84.3139420 170.2476044  20.7808723  83.4068222 172.1180420  21.0560074
  84.1110077 172.6641541  20.4458485  82.4651413 172.8437042  21.7842159
  82.3325729 173.8980713  21.5914421  78.9615402 172.4409485  21.5454655
  78.5792923 171.3620911  21.1995697  79.0655670 173.5410767  20.7496204
  79.2253189 174.3991089  21.2578983  78.8895187 173.4339142  19.2735958
  78.4475174 172.4683685  19.0277367  77.9571991 174.4233246  18.8229122
  78.4297485 175.3875580  19.0101719  77.8500061 174.2531433  17.7516308
  76.6317749 174.3082275  19.3627968  76.2035751 175.1673126  19.3770962
  80.2627716 173.4424438  18.5003834  80.7445145 174.4707642  18.0749950
  80.8737488 172.2608337  18.3742523  80.3506470 171.4464722  18.6628418
  82.0044327 172.1435547  17.4265785  82.7463989 172.9148407  17.6332302
  82.6548386 170.8057251  17.7404728  82.7136765 170.6684113  18.8201885
  81.9786453 170.0734711  17.2992611  84.0254974 170.4923096  17.1376438
  83.9399261 170.2956085  16.0689602  85.1175919 171.5743561  17.2937298
  85.3319092 171.6580353  18.3591747  85.9788589 171.2747040  16.6966209
  84.7496719 172.5348206  16.9328423  84.5374603 169.1522675  17.6761799
  83.9544449 168.3073578  17.3096886  85.5537491 169.0289001  17.3019867
  84.5628510 169.1536713  18.7658844  81.6149673 172.2186279  15.9408798
  82.4637833 172.3650055  15.0712652  80.3084641 172.3270111  15.6253824
  79.6029358 172.3541260  16.3476048  79.8313141 172.3605804  14.2747307
  80.6428986 172.4330292  13.5507288  79.0911407 171.0160217  14.0553617
  79.7043457 170.1162415  14.1051130  78.2641068 170.9019165  14.7561474
  78.5622101 170.9698486  12.7664194  78.2818298 170.0771027  12.5519371
  78.8904877 173.5503235  14.0407057  78.1506119 173.9239044  14.9262791
  78.8778915 174.1054840  12.8056250  79.4514618 173.7159271  12.0712032
  77.8491058 174.9233704  12.2307529  77.8455505 175.8970642  12.7206783
  78.0608902 175.3633270  10.7495613  78.2290497 174.5128937  10.0888128
  77.0954742 175.7138367  10.3845530  79.0938416 176.4335785  10.3914309
  80.0496979 176.0880127  10.7851696  79.2410355 176.6319427   8.8349514
  78.2705307 176.7949677   8.3663120  80.0355835 177.3428955   8.6083498
  79.6084900 175.7101135   8.3840427  78.7697678 177.8165894  11.0362940
  78.6971588 177.7437744  12.1214314  79.5039673 178.5830688  10.7881536
  77.8184509 178.1701660  10.6386909  76.3796463 174.4248505  12.3778248
  75.4474869 175.2404022  12.5279531  76.1883621 173.1199646  12.5306015
  76.9896317 172.5131073  12.4316750  74.8687286 172.5293274  12.9224806
  74.1642303 173.0202637  12.2510853  74.8039169 171.0489960  12.6217604
  75.4736252 170.5681763  13.3347912  73.8493347 170.6477661  12.9621935
  75.2497101 170.6983948  10.8799467  75.4557343 169.3838501  11.0000353
  74.2716293 172.8534241  14.2553806  73.0732727 172.7031097  14.4343271
  75.1127319 173.1858521  15.2338209  76.0883713 173.3522186  15.0324316
  74.8083420 173.2303925  16.7024670  75.2220688 174.1457520  17.1256256
  73.7434769 173.2822266  16.9293232  75.4720306 172.0893402  17.4121475
  76.4177246 171.5030975  16.8142586  75.0906830 171.6496735  18.6289291
  73.9059906 172.0617981  19.2704105  73.0598373 171.9193573  18.5982170
  73.8908081 173.1170197  19.5431442  73.8081055 171.1609955  20.4855862
  73.4297333 170.1880188  20.1721153  73.2465820 171.5851746  21.3179703
  75.2443619 170.9670258  20.8737926  75.3214798 170.0795898  21.5019741
  75.6970139 171.8037109  21.4059048  75.8776245 170.7526398  19.4869919
  76.9089203 171.0880280  19.5967197  75.9046402 169.2692719  18.9528751
  76.4127121 168.3733521  19.5980587  75.1998596 168.9494324  17.8929806
  74.7218781 169.6941833  17.4061756  75.0154953 167.6037140  17.3934288
  76.0225830 167.2262726  17.5706730  73.9732742 166.8916626  18.2684441
  74.4554062 166.8642578  19.2456360  73.0499420 167.4645081  18.1824074
  73.6048355 165.4085236  18.0059948  73.4748611 165.2869720  16.9306183
  74.3491211 164.7390137  18.4371490  72.0382080 165.1373596  18.8461208
  70.9473190 165.0849152  17.4874992  71.3157578 164.2447205  16.8989162
  69.9365234 164.8835907  17.8422565  70.9700470 165.9828796  16.8700504
  74.7621536 167.5570068  15.8762197  74.2698288 168.5310974  15.2883854
  75.2695923 166.4855652  15.2427149  75.8343811 165.8376312  15.7731018
  75.0992432 166.2251282  13.8266392  74.2107162 166.6691742  13.3778095
  76.2983093 166.8801270  13.1601400  77.2142410 166.4954529  13.6086750
  76.3656464 166.6076965  12.1068850  76.2205963 167.9564362  13.3138819
  74.9814301 164.6728058  13.6264324  74.9220352 163.9250183  14.5721483
  74.9432907 164.2322540  12.3601837  75.2685013 164.8264465  11.6110086
  74.8226242 162.8178101  11.9246874  74.7774353 162.2016907  12.8227158
  73.4421463 162.7913971  11.1964397  73.4573746 163.3678741  10.2714758
  73.1957092 161.7544556  10.9681311  72.6802063 163.1592255  11.8836470
  76.0581894 162.4731750  11.0040045  76.3434601 163.2918549  10.0947790
  76.7042923 161.3634186  11.1215973  76.5439606 160.7587280  11.9145231
  77.8932114 161.0386505  10.3782978  78.0351257 161.5259399   9.4136667
  79.1198883 161.4959259  11.2249250  79.2497253 160.7344360  11.9939404
  80.0122223 161.4101410  10.6048508  79.2150650 162.9315643  11.7649918
  79.5748138 163.9688416  10.8961735  79.8652115 163.6797333   9.8969278
  79.6843948 165.2756653  11.3868465  79.8947601 166.0928650  10.7127934
  79.4850464 165.5518951  12.7350912  79.6088409 166.8088531  13.1901646
  79.7115631 167.3906250  12.4334660  79.0289841 164.5023346  13.5768852
  78.8526382 164.6799316  14.6274881  78.9293365 163.1752014  13.0850544
  78.7664871 162.3538055  13.7671108  77.9656525 159.4890747  10.1809387
  77.1125946 158.8127899  10.6927185  78.9926834 158.8968506   9.5245752
  79.7409897 159.4716492   9.1643486  79.0534973 157.4049377   9.4339352
  78.4843750 156.9474335  10.2431917  78.4658966 156.8053284   8.1300592
  78.3473053 155.7379608   8.3164406  77.0796509 157.2867889   7.8965697
  77.1000519 158.3671265   7.7531195  76.5421143 156.7432098   7.1196070
  76.4994202 157.2140503   8.8164282  79.4071732 157.1442413   6.9644837
  80.3510895 156.6065826   7.0543137  78.8415833 156.9184723   6.0604706
  79.6732635 158.2006226   7.0010300  80.4738770 156.8039856   9.6213589
  81.4797287 157.3321838   9.1581717  80.5178833 155.5634155  10.1773539
  79.6577530 155.0995941  10.4325886  81.6988220 154.6904755  10.0626040
  82.5687103 155.3297424  10.2134457  81.6520157 153.7797852  11.2549095
  82.6526566 153.5561981  11.6248178  81.1373444 154.3101654  12.0560951
  80.8138123 152.5256348  11.0706263  79.9253082 152.4642487  10.2288961
  81.1606674 151.3910675  11.6749182  80.7557220 150.5422363  11.3066778
  81.9872513 151.3589172  12.2544155  81.8496017 154.1355591   8.6437683
  80.8774719 154.1400452   7.8457384  83.0120621 153.4107361   8.2913008
  84.1570816 153.2188568   9.1644039  83.9877167 152.4283600   9.8955107
  84.3639755 154.1759186   9.6432896  85.2970505 152.6823273   8.2646036
  85.8495636 151.8541412   8.7083635  86.0546188 153.3897552   7.9273381
  84.5853653 152.1011658   7.0280337  84.4323120 151.0325165   7.1786084
  85.2062149 152.2807617   6.1503129  83.2456360 152.8172760   6.9934916
  83.2446213 153.6757660   6.3218575  82.2268295 151.7667389   6.5416336
  81.8237534 151.5895081   5.3836541  81.7721024 151.0025787   7.4634042
  82.2500381 151.0952606   8.3483315  80.7132645 149.9765015   7.4438596
  80.7827454 149.4723358   6.4799666  80.9503021 149.0788422   8.6197271
  80.5093231 149.5965424   9.4715643  80.4457626 148.1431580   8.3788633
  82.3311768 148.8303528   9.1156893  83.1097946 149.7539520   9.7846384
  84.2592621 149.1592407  10.0900974  85.0262909 149.6465454  10.6736908
  84.2471542 147.8973236   9.5321989  85.0209656 147.2655792   9.6812220
  82.9977646 147.6414185   8.9945154  82.7526321 146.7663422   8.4109354
  79.2750320 150.5292358   7.4576497  78.3207245 149.7652740   7.7004123
  79.0590134 151.8006897   7.0718346  79.8718338 152.3831635   6.9298968
  77.7661667 152.3903046   6.7939134  77.9928818 153.3900452   6.4234748
  77.2552795 151.9121399   5.9581752  76.8052368 152.5833740   7.9498854
  75.8258438 153.2799225   7.7236433  77.0996933 152.1562195   9.2377043
  77.9810944 151.7346802   9.4937258  76.1510849 152.3772278  10.3500538
  75.1574936 152.0539856  10.0395908  76.6051941 151.6059875  11.5939722
  76.7945786 150.6032562  11.2108889  77.5929642 151.9344330  11.9172726
  75.6381378 151.6213989  12.7663708  74.6864777 150.6272888  12.8818407
  74.6953888 149.7957306  12.1927624  73.7063065 150.7028351  13.9215126
  72.9144592 149.9788208  14.0447168  73.8855515 151.6657867  14.9237127
  72.9403381 151.7615051  15.9305182  72.5015945 150.9441376  16.1775570
  74.8694916 152.6448669  14.7885332  74.9113998 153.3972626  15.5621910
  75.6832123 152.6910400  13.6620951  76.3921432 153.4999695  13.5649319
  76.2181931 153.8761292  10.6396389  77.2490387 154.5709534  10.6743021
  75.0022278 154.4677429  10.7909184  74.1510391 153.9282990  10.7232618
  74.8599854 155.8990631  11.0033398  75.6515274 156.3301697  10.3903961
  73.5871582 156.5221863  10.3664570  72.6703339 156.0747223  10.7502642
  73.5832672 158.1171112  10.6935692  74.5000839 158.6398926  10.4210911
  72.9255981 158.6365967   9.9966507  73.2129974 158.3617859  11.6891270
  73.6044312 156.2311401   8.8466148  74.0842819 157.0665131   8.3367167
  74.1363754 155.2986908   8.6577244  72.2595901 156.0956421   8.1983671
  71.8022995 157.0825348   8.2693062  72.3516159 155.7985992   7.1536679
  71.5903320 155.4054718   8.7120256  75.0254974 156.1228027  12.5314217
  74.3086929 155.5173492  13.3272381  75.9236679 157.0393372  12.8765087
  76.4616623 157.4787140  12.1432924  76.0809021 157.5308228  14.2625599
  75.4793930 156.9704742  14.9783154  77.5181122 157.4083099  14.6277494
  78.1055603 157.9363098  13.8766003  77.6971283 157.8758087  15.5960007
  77.8940659 156.0031891  14.7982435  77.7024612 155.2490997  15.9813137
  78.2562943 154.0697937  15.7103252  78.2055435 153.1601257  16.2902775
  78.9056778 154.0862122  14.4701166  79.5612335 153.3874054  14.1507359
  78.6547470 155.3189697  13.8629456  78.9537888 155.6452637  12.8778038
  75.6426239 159.0061340  14.3194923  76.1021957 159.7696075  13.4844246
  74.8328094 159.4160004  15.2807713  74.3076401 158.7503052  15.8295393
  74.5208664 160.8192291  15.6757383  74.8882599 161.5278168  14.9334230
  73.0347900 161.0522003  15.9092541  72.5824127 160.3721466  16.6310444
  72.9104156 162.0488434  16.3327293  72.2877426 161.2018890  14.5838213
  72.8377609 161.8742981  13.9254541  72.2007904 160.1692657  14.2458248
  70.8036880 161.7138062  14.7686548  70.0989075 161.1565399  15.6687069
  70.3448792 162.7073822  14.1122093  75.2922363 161.0676880  16.9756317
  75.0702133 160.3235168  17.9289818  76.2403946 162.0132446  16.9868622
  76.2541580 162.6683502  16.2182636  77.0863571 162.2194366  18.1682911
  76.8028259 161.4600525  18.8970222  78.5582962 161.9518433  17.8783665
  79.1556015 162.1687317  18.7639656  78.7676697 160.4866486  17.4934196
  78.4111938 160.3100586  16.4786015  79.8432999 160.3309479  17.4105320
  78.3558807 159.7131348  18.1416645  78.9757843 162.6380310  16.7217388
  79.8733215 162.3495331  16.5406513  76.9374390 163.5795593  18.7923508
  77.0358810 164.6068573  18.0947895  76.5542831 163.6974945  20.0537491
  76.4447250 162.8525238  20.5960922  76.5429306 164.9511414  20.8316956
  76.1081390 165.7980499  20.3008633  75.8521271 164.6938629  22.1719685
  74.8338623 164.4480591  21.8706074  76.3014603 163.8381348  22.6758728
  75.7325745 165.8759918  23.1289921  76.7729187 166.1566010  23.2934418
  74.9143600 167.0326233  22.6057205  74.1172104 166.7335052  21.9251556
  74.5368805 167.6926880  23.3866959  75.5721436 167.7012787  22.0504475
  75.0952988 165.3090820  24.4328346  75.6793137 164.5050964  24.8807621
  74.8885040 166.1449127  25.1012115  74.1585922 164.8244781  24.1574497
  78.0311203 165.2880096  21.1084881  78.7428360 164.4904327  21.7485409
  78.3865128 166.5417480  20.7656250  77.7514648 167.1738129  20.2994537
  79.6759262 167.1158905  21.2007351  80.3696289 166.2756042  21.2290382
  80.2551804 168.1127167  20.0922470  81.1791458 168.5097198  20.5127010
  80.5927048 167.3418579  18.8209858  79.6349258 167.1893005  18.3235130
  81.2669983 167.9092712  18.1795197  81.1505203 166.4179077  18.9735222
  79.4760513 169.2420502  19.7207470  79.5627213 170.0027008  20.2999763
  79.6249466 167.7258606  22.6052113  78.7507935 168.5329285  22.9090996
  80.4566574 167.3139801  23.5591183  81.0813980 166.5254517  23.4695473
  80.6425018 167.8078156  24.9614334  80.2384338 168.8173676  25.0365047
  79.9027023 166.9178467  26.0178509  80.0122375 167.3611755  27.0075779
  78.4306107 166.7667542  25.6192112  78.3170471 166.1669464  24.7161942
  77.8381882 166.3659515  26.4417114  78.0313644 167.7535095  25.3846817
  80.3940506 165.4349213  26.2022610  81.4330673 165.4239655  26.5315418
  79.7329941 164.9446106  26.9168949  80.2435837 164.7913513  25.3354988
  82.1068802 167.9917297  25.3179989  82.9035568 167.0839539  24.9307137
  82.4694443 169.0463104  26.0658722  81.7941666 169.7565765  26.3100433
  83.8988419 169.2236023  26.5384007  84.5271225 169.1645508  25.6496449
  84.0797195 170.5610657  27.2510796  83.4508667 170.6180878  28.1395588
  85.1171951 170.6180267  27.5804749  83.8686676 171.7674255  26.3579788
  84.6872864 172.0110779  25.2611942  85.3520355 171.2091217  24.9758873
  84.5334473 173.1640625  24.4651566  85.1795959 173.4042358  23.6337643
  83.6028442 174.0989532  24.8306866  83.5786133 175.2814026  24.1517086
  84.1365280 175.2587891  23.3708000  82.7879105 173.8964386  25.9926167
  82.1653519 174.7113647  26.3313313  82.9593201 172.7498779  26.7639523
  82.3630524 172.5538483  27.6428394  84.2566376 168.0988159  27.4720612
  85.4807892 167.8512268  27.5785294  83.3646698 167.4854279  28.1846218
  82.3927612 167.6818390  27.9924812  83.6289291 166.6778564  29.3451653
  84.5950928 166.1844330  29.2395439  83.7444763 167.6387787  30.5665131
  84.3156815 168.5113373  30.2495708  82.7668991 168.0484009  30.8207855
  84.4479752 167.0533600  31.7805748  83.9544144 166.1218414  32.0576820
  85.5082626 166.8546600  31.6243725  84.4282913 168.1194305  32.9287071
  85.0212021 168.9904327  32.6495934  83.4050598 168.4770508  33.0435257
  84.7367020 167.4674683  34.3506012  84.6338348 168.2326355  35.1200447
  83.8965454 166.7904816  34.5052643  86.0983047 166.9089966  34.5373611
  86.7622757 167.5354767  34.1052170  86.2978516 166.8606110  35.5262718
  86.1325836 165.9876404  34.1249924  82.5806046 165.5683594  29.4927406
  81.3961411 165.8182831  29.4229164  83.0075455 164.4363708  29.9109230
  84.0032730 164.2845459  29.9855766  82.1645660 163.3296051  30.4054890
  81.1793976 163.7039795  30.6836681  81.8591995 162.4181824  29.1897774
  82.8265457 162.1158447  28.7886086  81.2174072 161.5791321  29.4585133
  81.2694702 163.0827332  28.5583553  82.7897720 162.5510254  31.5668793
  84.0120621 162.4178925  31.7057915  81.9385986 162.0048370  32.4857674
  80.9376907 162.1190643  32.4133339  82.3961411 161.5768433  33.8088036
  83.4027176 161.9949646  33.8180122  81.6029587 162.2577057  34.9060974
  80.5583420 161.9477844  34.8770714  82.0157089 162.0476532  35.8928146
  81.6387253 164.0560913  34.7487869  82.7197571 164.2432404  35.5111732
  82.5037537 160.0951538  33.9638023  83.5636368 159.6340179  34.5114250
  81.4594955 159.3286896  33.8260002  80.6693344 159.7062988  33.3228531
  81.4672241 157.8887177  34.1047325  82.3372498 157.6269073  34.7069092
  80.1524811 157.5092468  34.7974091  79.2884216 157.8695526  34.2391167
  80.1925964 156.4344025  34.9740791  80.0659637 158.1139526  36.1946754
  80.6640701 157.6256104  37.1635399  79.3037491 159.1327972  36.4090271
  79.3624268 159.6130219  37.2956238  78.6782913 159.3892212  35.6585922
  81.6089249 157.0615997  32.7493744  80.6925354 156.2506409  32.3590393
  82.7993088 157.2342224  32.1057243  83.4077606 157.9699249  32.4352989
  83.2307129 156.4788208  30.8990765  82.5047302 155.6773529  30.7623596
  83.2584000 157.3843842  29.6404209  84.0153275 158.1686401  29.6506939
  83.5084381 156.7528076  28.7879639  81.8453598 157.9700317  29.2798290
  81.4984207 158.4936066  30.1706734  81.9985046 158.9804993  28.1702538
  82.4405518 158.5036163  27.2954464  81.0779724 159.4479218  27.8206558
  82.7558746 159.7246857  28.4165745  80.9635620 156.8591003  28.6824989
  80.6572800 156.1456757  29.4475574  80.0431671 157.3106384  28.3122406
  81.3982239 156.2724762  27.8731556  84.6052780 155.8143463  31.1534996
  85.5346069 156.3636475  31.8013935  84.7658005 154.5731506  30.6248245
  83.9459305 154.2974091  30.1034126  86.0297241 153.8681641  30.3772202
  86.8035049 154.2322540  31.0530910  85.9289093 152.3563538  30.7370701
  85.1249542 151.9058380  30.1550102  86.8424835 151.8737183  30.3898697
  85.6835632 152.1406097  32.1918869  85.1464233 153.0015717  32.9074936
  86.0151215 150.9773712  32.6822090  85.7226028 150.7229614  33.6148453
  86.5073776 150.3415985  32.0709915  86.4979935 154.1110535  28.9285049
  85.6762619 154.2746735  27.9921913  87.8251953 154.0630951  28.7169952
  88.4023819 153.8061676  29.5049953  88.5158234 154.0645752  27.4258137
  87.8459015 154.4539795  26.6592045  89.7441101 155.0234528  27.4251995
  90.4412689 154.6069641  28.1522465  90.2614670 155.0103149  26.4658947
  89.4410553 156.4514313  27.7930431  89.0383453 156.4785461  28.8055592
  90.7976379 157.1647034  27.6609898  91.2278366 157.0388031  26.6674213
  90.6960220 158.2331696  27.8511276  91.5247879 156.8588257  28.4131775
  88.5280075 157.0523682  26.6782627  87.6026535 156.4892883  26.5567074
  88.3111954 158.1130219  26.8051662  89.1317902 157.0747375  25.7710438
  88.8853607 152.6561584  27.0137711  89.3374100 151.8550110  27.9066010
  88.6554413 152.3072052  25.7683964  88.0701141 152.9309387  25.2313232
  89.1001663 151.0546417  25.1654682  89.9239349 150.7025757  25.7863903
  88.0794678 149.9338379  25.2419949  88.5159149 149.0182953  24.8427505
  87.8029175 149.8759155  26.2947369  86.8888855 150.2565155  24.5861359
  86.2232513 149.6823578  24.9719791  89.7811966 151.1938324  23.7551785
  89.4041138 152.0624542  22.9788895  90.7701492 150.3289795  23.4240627
  91.1364517 149.7341919  24.1535454  91.5846252 150.4185333  22.2827587
  91.9216843 149.4330444  21.9613228  90.9364853 150.7923889  21.4901371
  92.7783203 151.3464966  22.4121361  93.2390900 151.6081238  23.5068951
  93.2554626 151.8792877  21.2574692  92.8389664 151.6126099  20.3768349
  94.1152496 153.0515289  21.2119770  94.1145325 153.5374298  22.1876812
  95.5886307 152.7016602  20.7582664  95.5831299 152.1325378  19.8286572
  96.2096939 153.5366211  20.4339008  96.3877411 151.8297119  21.6738300
  95.6937485 150.9945068  21.7682362  97.2404404 151.5284576  21.0653496
  96.9070511 152.3959198  23.0078526  97.4817581 153.3109131  22.8643322
  96.0298004 152.7372742  23.5573959  97.5582123 151.3184357  23.7474079
  98.5326385 151.1611938  23.5332623  97.0548401 150.5365143  24.7001095
  95.8296051 150.5626984  25.0564709  95.2293396 151.1652222  24.5117264
  95.4865952 149.8439331  25.6776066  97.7705688 149.5815887  25.1991024
  98.7510452 149.4754486  24.9811649  97.3319092 148.8694153  25.7652359
  93.5289154 154.1847687  20.3307762  92.5980682 153.8951721  19.5107117
  94.0222092 155.4318542  20.5051022  95.1263580 155.9264526  21.3868637
  96.0840912 155.6778412  20.9296513  95.0341949 155.4700165  22.3723927
  95.0439911 157.4617615  21.4421234  95.9711075 158.0198517  21.5727882
  94.3185425 157.6398773  22.2359085  94.3149414 157.7769470  20.1014938
  95.0771027 157.9662476  19.3456001  93.6342316 158.6137238  20.2581310
  93.5903168 156.4466400  19.6166134  92.5135803 156.5557251  19.7463455
  93.8891220 156.1979218  18.1201763  94.9743042 155.7090759  17.7057476
  92.9579391 156.4473572  17.2155609  91.9891891 156.4234009  17.5002728
  93.1542206 156.3268585  15.7573719  94.2033844 156.3015900  15.4628868
  92.4893341 155.0034637  15.2533922  92.9011993 154.2064056  15.8723841
  91.4146271 155.0703888  15.4225922  92.7055893 154.7593384  13.8926992
  92.1406403 154.0137634  13.6769543  92.6604080 157.5593414  15.0550394
  91.8475037 158.3030548  15.6201458  93.2208633 157.9067993  13.8972120
  94.0516129 157.4168243  13.5974293  92.7183838 158.9830322  13.0377455
  92.1358490 159.7535400  13.5427961  93.9868011 159.7513733  12.4781132
  93.6451111 160.5424347  11.8106089  94.7687912 160.4154510  13.5928802
  95.4321518 159.6798248  14.0477552  95.3328171 161.2610016  13.1991596
  94.1103821 160.7894135  14.3769398  94.7730942 158.7707214  11.8948240
  95.1921921 159.1272125  11.1081429  91.9060440 158.4019470  11.8774471
  91.3915176 159.1959839  11.0593987  91.8681107 157.0773926  11.7107840
  92.0954971 156.3816681  12.4067392  91.2695847 156.5188141  10.5064869
  91.8140869 156.9864349   9.6861563  91.4419174 154.9790192  10.4975901
  90.9540558 154.6193237  11.4035244  90.8428726 154.5632324   9.6874170
  92.8902893 154.4426422  10.2930355  93.4371414 154.7597351  11.1810131
  92.8393326 153.3538666  10.3017855  93.5446014 154.9081268   8.9966593
  92.9012070 155.1495056   7.9491305  94.7811890 155.0290070   8.9950686
  89.7462463 156.8665466  10.4312010  88.9969864 156.6732178  11.3925285
  89.3989868 157.3623047   9.2791853  90.0739670 157.5091705   8.5423384
  88.0279007 157.6740723   8.9513588  88.0148849 157.9790802   7.9049821
  87.2428513 156.3064423   8.9221296  87.9926300 155.5521545   8.6834078
  86.8703766 156.0686493   9.9185305  86.1533890 156.2280121   7.9099989
  84.8181458 156.6333160   8.0926132  84.2029877 156.2954559   6.9520097
  83.1382217 156.3518372   6.7802434  85.0926056 155.7864532   6.0506849
  84.8045959 155.4908447   5.1288557  86.2621155 155.7077179   6.6824594
  87.1725693 155.2465820   6.3291574  87.4119186 158.7611084   9.8900623
  86.1972351 159.0017395  10.0011406  88.2657852 159.5638580  10.6062555
  89.2619400 159.4769440  10.4640532  87.7398605 160.3393097  11.7493601
  87.1856918 159.6898499  12.4270201  89.0369263 160.8413849  12.4402094
  89.6520844 159.9956360  12.7474251  89.5914688 161.5006714  11.7724218
  88.6512909 161.6903992  13.5349655  89.4158173 162.1264801  13.9182768
  86.8747330 161.5800018  11.2678556  87.2151260 162.2290497  10.2958307
  85.7629776 161.8610077  11.8892698  85.6252136 161.5000458  12.8224545
  84.7659302 162.8574371  11.4825144  84.5612411 162.7241058  10.4202385
  83.4211197 162.4541321  12.1477203  83.5192947 162.5126190  13.2317142
  82.6410446 163.1694336  11.8870878  82.8310776 161.1527557  11.8275518
  82.9477234 160.4450073  10.7593517  83.4215317 160.8083344   9.8594084
  82.2741241 159.2160339  10.9071016  82.2265320 158.5437317  10.1548691
  81.8742599 158.9985962  12.1630220  81.2996368 157.9718475  12.8491364
  81.0106430 157.0406799  12.3845825  81.0380096 158.1194305  14.2412567
  80.8692856 157.1975250  14.7779388  81.2677460 159.3149719  14.9444942
  81.2121735 159.3181152  16.0230618  81.7946777 160.3928680  14.1801357
  82.0201569 161.3226013  14.6812868  82.1941910 160.2233734  12.8111134
  85.0288544 164.3294525  11.7986116  84.3679199 165.1564026  11.1549397
  85.9871902 164.6162262  12.6528988  86.4979324 163.8329620  13.0346670
  86.4549561 165.9808960  13.0767479  85.9393005 166.7799683  12.5441132
  86.2393112 166.1242218  14.5526819  86.6918564 165.3194580  15.1320381
  86.6657562 167.0752869  14.8715992  84.7493057 166.2643127  14.8964500
  84.0497360 167.4975128  14.7053051  84.6558609 168.3224640  14.3611050
  82.7089233 167.6558533  14.9498425  82.2304153 168.5913544  14.7002687
  82.0529633 166.5621948  15.4529724  81.0217361 166.7023468  15.7416296
  82.6469193 165.3234863  15.5923624  82.0213394 164.5073090  15.9223595
  83.9846573 165.1619263  15.3611307  84.5045395 164.2317505  15.5369549
  88.0315704 166.1153870  12.7924089  88.8324127 165.5451355  13.5689411
  88.4125671 166.8818207  11.6808891  87.6330643 167.5767365  10.6692028
  87.4275360 168.6005402  10.9817696  86.7048035 167.0327148  10.4946480
  88.4179535 167.5818176   9.3253851  88.0647812 168.4019623   8.7002983
  88.1982574 166.6131592   8.8764439  89.8933105 167.5801239   9.8058720
  90.2269592 168.6141205   9.8932886  90.4747925 167.1234894   9.0049553
  89.8016129 166.8140106  11.1616793  89.8656235 165.7565002  10.9054651
  90.8563766 167.1688995  12.1645126  90.9547577 168.2893829  12.7245951
  91.8536835 166.2686768  12.3969679  91.7916870 165.3363037  12.0136423
  92.9924698 166.4591370  13.2380562  93.7750778 165.7260742  13.0424967
  93.3829269 167.4730835  13.1511126  92.7748871 166.2085419  14.6997337
  93.4227676 166.8428497  15.5049801  91.8623734 165.3007660  15.0306158
  91.2350159 164.9372253  14.3275089  91.6399765 164.6708984  16.3279858
  92.4998474 164.9839630  16.9201946  90.3845596 165.1641998  17.0445061
  89.5482864 164.9428101  16.3813839  90.2605591 164.5175018  17.9131298
  90.3183289 166.6141815  17.4564228  90.4614944 166.8624115  18.8332214
  90.5258026 166.0576019  19.5505409  90.4116440 168.1748047  19.2960472
  90.4884567 168.4178772  20.3455334  90.1315002 169.1891022  18.4075756
  90.0460358 170.4477997  18.8618908  90.2981720 170.4885406  19.7872906
  89.9239502 168.9333344  17.0816059  89.6839828 169.7839508  16.4608898
  90.0361404 167.6025391  16.5514584  89.8416748 167.3125610  15.5294514
  91.6936951 163.1830597  16.2190742  91.0680695 162.5974884  15.3759136
  92.3964996 162.5444794  17.1565590  92.9500275 163.0323944  17.8462276
  92.3488312 161.1175232  17.3068542  92.1600876 160.6264038  16.3522377
  93.6792984 160.6089325  17.8793373  93.8925705 161.0435791  18.8559113
  93.5897675 159.5476379  18.1111641  94.4749680 160.7962799  17.1582909
  91.2353287 160.6693726  18.2380924  91.0700531 161.0885162  19.3856010
  90.3191452 159.7907410  17.6786289  90.4898911 159.4586945  16.7401810
  89.2426453 159.1160278  18.3978481  88.7923965 159.9207458  18.9790516
  88.1900787 158.7464600  17.3672848  87.3317490 158.4148254  17.9515591
  87.8201675 159.6491547  16.8810577  88.4910431 157.8013611  16.2812271
  88.6010818 158.1135406  14.9869003  88.6095428 159.1194611  14.5939074
  88.8696518 157.0049744  14.2444439  89.0068588 156.9997406  13.2438211
  88.8499222 155.8388977  14.9657955  89.0688858 154.4839935  14.6839952
  89.2348633 154.1300812  13.6772203  88.9861221 153.5566559  15.7575693
  89.1984100 152.5265045  15.5123196  88.7444611 154.0687256  17.0684776
  88.8022308 153.4689178  17.9647369  88.5823517 155.3934021  17.2771282
  88.4997711 155.7282562  18.3005810  88.6187439 156.3411102  16.2777729
  89.6708374 157.9303284  19.2727261  90.5396118 157.1771851  18.8260212
  89.1208725 157.6586761  20.4138565  88.5286942 158.4320374  20.6809311
  89.5022202 156.5107422  21.2929649  89.8140488 155.7008667  20.6334457
  90.6956940 156.8214111  22.2026901  91.5724335 156.9702148  21.5723820
  90.7535172 158.0652771  23.0372238  90.0018463 157.9422302  23.8169403
  91.7452850 158.0576172  23.4893684  90.6150436 159.0427246  22.5751324
  90.8598251 155.7298584  23.0479126  91.2834625 155.9851379  23.8706875
  88.1920013 156.0646973  21.9541435  87.4146881 156.9169312  22.4357853
  87.7593307 154.7975922  21.7577248  88.5087433 154.1207428  21.7765446
  86.3850555 154.3279572  21.9716778  85.7598267 154.9530182  21.3341122
  86.2850189 152.8699799  21.5732384  87.0077744 152.3032379  22.1601944
  84.8359680 152.2860260  21.8181934  84.0841751 152.8151703  21.2325974
  84.8635330 151.2412872  21.5085983  84.5915985 152.2350159  22.8792210
  86.6295853 152.5691223  20.0723228  86.1648941 153.2550812  19.3640614
  87.7008896 152.7472839  19.9791641  86.3906479 151.1502838  19.5145988
  85.3318024 150.9004364  19.4474392  86.8778534 151.0385132  18.5459728
  86.9262466 150.4265289  20.1289463  85.9267654 154.5320740  23.4543762
  86.5626907 153.9949799  24.3279495  84.8261795 155.2872314  23.6041851
  84.4002991 155.7244263  22.7994537  84.1449051 155.4414215  24.8953781
  84.8651886 155.4568634  25.7133408  83.3811569 156.7925568  24.8627529
  82.7255096 156.7397766  23.9935932  82.6600723 156.7553558  25.6793022
  84.0608139 157.6406097  24.7791615  83.1921005 154.2312622  25.1008587
  82.3609848 153.9039001  24.2401886  83.3472366 153.5164185  26.2685070
  84.1048126 153.7268677  26.9024620  82.2714386 152.6707458  26.8548679
  81.5096436 152.8175201  26.0892105  82.8425903 151.2073822  26.9495144
  83.6994019 151.1387634  27.6197872  82.0767136 150.5552979  27.3694019
  83.2957535 150.5340729  25.6055450  82.4330597 150.5311432  24.9393234
  84.1747589 151.0554352  25.2265625  83.8985825 149.1768341  25.8241863
  85.0438232 148.8684845  25.7982521  83.0513535 148.2082825  26.1911926
  83.4076157 147.2913513  26.4201355  82.0752258 148.3873444  26.3788395
  81.7299805 153.2179871  28.1096649  82.3317795 153.9001770  28.9443588
  80.4827042 152.9154663  28.4269638  79.9313736 152.3936005  27.7607880
  79.8811417 153.1506195  29.7187958  79.7773972 154.2186737  29.9100647
  78.4012985 152.6726990  29.7111664  77.9048157 153.0556946  28.8195820
  78.4563217 151.5846405  29.6766872  77.6134720 153.3013916  31.2058773
  76.3450317 153.0672150  30.8578377  80.6211853 152.4520416  30.9124565
  80.8080750 151.2667084  30.9029484  80.9661255 153.1717834  31.9708366
  80.7753525 154.1544342  31.8363037  81.7088852 152.7526855  33.1336708
  82.6367645 152.2435150  32.8731499  82.1358719 153.8756561  33.9488602
  82.8937607 154.4376831  33.4031258  81.2702179 154.4782410  34.2239037
  82.8213120 153.4781952  35.2696533  82.1338196 152.9332886  35.9165993
  83.5747452 152.7151947  35.0739670  83.5179596 154.6596680  35.8965378
  82.7843170 155.4533997  36.0374336  83.9300537 154.4254303  36.8780708
  84.6659622 155.1422424  35.0558090  85.0090485 154.5157928  34.3417091
  85.4989319 156.1768341  35.2835274  85.4268875 156.9783783  36.2862129
  84.6430435 156.8738098  36.9145012  85.9743576 157.8264160  36.3212624
  86.5141449 156.3521729  34.4183388  86.4636154 156.0538635  33.4547234
  87.2337265 157.0464935  34.5606079  80.9946899 151.6203766  33.9151001
  81.6642151 150.7291412  34.3983078  79.6204681 151.6546936  34.0038719
  79.0854263 152.3135376  33.4563713  78.9570312 150.6751404  34.8930244
  79.6271744 150.2991943  35.6661110  77.7938385 151.4588623  35.6748238
  77.1704865 151.9457703  34.9248581  76.8975296 150.6230927  36.4896202
  77.4143982 149.9733276  37.1958466  76.1530380 151.2319489  37.0025787
  76.3664780 149.9025879  35.8675575  78.4074860 152.6859894  36.5402489
  78.7121658 153.4638367  35.8400917  77.5302048 153.1368256  37.0041656
  79.4924622 152.3301239  37.5266571  80.4111862 151.9634857  37.0688248
  79.8170853 153.1586761  38.1561279  79.0925598 151.5585632  38.1845894
  78.4440842 149.3797150  34.2368317  78.3591919 148.3432007  34.9431458
  78.1258545 149.4031067  32.9499702  78.2712250 150.2847137  32.4790840
  77.6132660 148.2225189  32.2007942  77.4835663 147.3673096  32.8640327
  76.1600723 148.5747528  31.7248402  75.7450867 147.6967163  31.2299538
  75.5227890 148.8566132  32.5630150  76.3334732 149.9480438  30.5615807
  75.1979752 149.7340698  29.8909492  78.5089645 147.7175903  31.0405865
  78.2631226 146.6467285  30.4736252  79.4941635 148.5171967  30.6037579
  79.6210632 149.3744965  31.1224194  80.3958511 148.2347565  29.4905224
  81.3030396 148.8205109  29.6388302  80.7260437 147.1998291  29.5798855
  79.8102341 148.4329834  28.0320530  80.3789444 147.8947754  27.0735626
  78.6716461 149.1538239  27.8743858  78.1268005 149.3744202  28.6957130
  78.0535355 149.5259094  26.5587196  77.9063187 148.6483612  25.9291630
  76.6428146 150.0388336  26.8479595  76.1497955 149.2301331  27.3874264
  76.6775894 150.9551392  27.4372559  75.8181152 150.3557739  25.6216927
  75.7597351 149.6122742  24.6520214  75.1906204 151.5025330  25.5883274
  74.8543320 151.7059174  24.6579266  75.2224121 152.2020569  26.3161755
  78.8564301 150.5768433  25.7864227  79.5798111 151.3418884  26.3779125
  78.7875748 150.5798340  24.4636345  78.3095093 149.7552948  24.1294365
  79.4115448 151.5334473  23.5289478  80.4750748 151.6772919  23.7194958
  79.2567215 151.0842133  22.0804806  79.8443298 150.1747284  21.9553356
  78.2287827 150.8634338  21.7928810  79.7363968 152.0568390  21.0389690
  79.0706940 152.2595367  19.8122807  79.8006744 153.2733307  19.2647381
  79.4516068 153.7457581  18.3584538  80.8778839 153.5980072  19.9991016
  81.6084824 154.2729492  19.8236370  80.8684692 152.8103333  21.1063461
  81.5926285 152.8480072  21.9067135  78.7180405 152.9533539  23.6597118
  77.4873657 152.9384308  23.7393780  79.4852753 154.0643768  23.7573128
  80.4864960 153.9587402  23.6766624  78.9744339 155.3779449  24.0555496
  77.8911896 155.3654633  23.9349537  79.1668243 155.7356110  25.5376167
  80.1895218 155.4558868  25.7905159  78.9915085 156.7919159  25.7415333
  78.2510986 154.9266510  26.4919987  78.3801498 153.8593597  26.3121605
  78.5756760 155.0701904  27.5226021  76.4841766 155.1921387  26.2181664
  76.3459549 156.9467926  26.5771542  76.8829880 157.6335297  25.9228764
  75.2801971 157.1753845  26.5791779  76.7426529 157.1622467  27.5692768
  79.5198441 156.3888397  23.0681610  79.1914597 157.5502777  23.2540283
  80.2760468 156.0536652  22.0479469  80.4057770 155.0755005  21.8323536
  80.8541260 156.9675140  21.0848598  80.6711426 156.6854095  20.0480232
  80.4208221 157.9644165  21.1658249  82.3601837 157.0774384  21.3356972
  83.0063095 156.0494385  21.5010242  82.8884583 158.2778473  21.3878708
  82.2322083 159.0301208  21.2344875  84.3659058 158.5367584  21.3764400
  84.9694595 157.7665253  21.8566132  84.8984451 158.6135101  19.8941917
  84.4332581 159.4945526  19.4521103  85.9651566 158.8155823  19.9911594
  84.6518555 157.4409332  19.0413914  85.5099869 156.4032440  18.9072208
  86.5162888 156.3391571  19.2940769  84.9691162 155.4058228  18.2048798
  85.5036011 154.5862274  17.9545383  83.6505356 155.6307068  18.0114346
  82.6675644 154.8237152  17.4721470  82.8676453 153.7845306  17.2566071
  81.4098892 155.4430084  17.1980076  80.6100845 154.8509064  16.7783241
  81.1610107 156.8095856  17.4340897  80.1781921 157.2463379  17.3355465
  82.1993484 157.5837860  18.0312004  82.0713196 158.6414795  18.2080402
  83.4515686 157.0247955  18.3416805  84.7839279 159.7838745  22.0996571
  84.2938614 160.9019623  21.9050694  85.9000244 159.6120148  22.8107014
  86.3411865 158.7335663  23.0426617  86.7710953 160.7927246  23.2359905
  86.2126999 161.6752930  23.5480518  87.7337646 160.2609711  24.3557453
  87.2237396 159.9950104  25.2816181  88.2967377 159.4070587  23.9789295
  88.7101898 161.3417206  24.7967148  89.4944000 161.4861450  24.0535774
  88.1852570 162.2837982  24.9550266  89.3488007 161.0426025  26.1892509
  88.5963211 161.0055389  26.9769650  89.8470612 160.0788727  26.0840645
  90.2896805 162.2226868  26.5292549  91.1358185 162.2780762  25.8443508
  89.7606506 163.1576538  26.3446693  90.8252258 162.0361633  27.8850937
  91.3634338 161.1860046  27.9726448  91.5971146 162.6604767  28.0708790
  90.1466522 162.0054626  28.6325550  87.6591110 161.1027832  21.9723949
  88.0064392 160.1863098  21.2323246  88.0158310 162.3952179  21.9004574
  87.7718201 163.0353699  22.6425877  88.8357391 163.0732117  20.8253860
  89.3799210 162.3498230  20.2181950  87.9083939 163.8720703  19.9280128
  87.2690582 164.4748535  20.5730038  88.5285568 164.4305115  19.2268391
  87.0705795 163.0494080  19.0028000  87.6142349 162.7293396  17.7435570
  88.6679077 162.8297882  17.5288868  86.7757492 162.1972961  16.7564487
  87.1821365 161.9369354  15.7902889  85.4250183 161.9727325  16.9772396
  84.8377991 161.5687408  16.1658421  84.9055099 162.2493439  18.2386208
  83.8485031 162.0707245  18.3699265  85.6793671 162.7664337  19.2613735
  85.1437759 163.0336914  20.1603298  89.9106293 163.8931580  21.4867115
  89.6495209 164.8211517  22.2571964  91.1752167 163.5908661  21.2259426
  91.3970795 162.8110657  20.6236324  92.4011688 164.3374481  21.6093311
  92.0508652 165.0965271  22.3087482  93.3749619 163.4586639  22.4506874
  94.2812347 164.0422668  22.6125278  92.9036484 163.1359100  23.8297405
  91.9756012 162.5765533  23.7115784  93.5450134 162.4289246  24.3559875
  92.6332779 164.0382233  24.3782120  93.7500458 162.1530304  21.9369488
  94.5810165 162.1970062  21.4582558  93.0147018 164.9496613  20.3851585
  93.0303650 164.3231812  19.3657722  93.5688934 166.1502533  20.4830627
  93.5984268 166.7239075  21.3138161  94.1006088 166.7680817  19.3043804
  93.3491440 166.6011963  18.5326614  94.1626816 168.2696686  19.5344543
  94.6715469 168.5058899  20.4689903  94.6215057 168.8066864  18.7042713
  93.1239166 168.5975494  19.4949589  95.4268265 166.1784210  18.8526421
  96.2746048 165.8945312  19.6633816  95.6895218 166.1340790  17.5078678
  94.9819717 166.3470917  16.8193207  97.0222549 165.7395325  17.0314999
  97.4392548 165.0254517  17.7416439  97.0268555 165.0744476  15.6399946
  98.0360413 164.7224579  15.4260941  96.2456512 163.7628479  15.7095919
  95.1743393 163.9633331  15.7240829  96.4417267 163.1659393  14.8188887
  96.5656662 163.2630615  16.6238632  96.5595093 165.8737183  14.5995312
  97.1822357 166.5666351  14.3678570  98.0169907 166.8503876  17.0494537
  99.1401825 166.6957703  17.4792156  97.6478500 168.0505676  16.6338482
  96.7234879 168.2871246  16.3026409  98.4768372 169.2632294  16.7645607
  99.5217361 168.9557648  16.7227097  98.2951508 170.1678619  15.5708704
  97.2465591 170.4571381  15.5011024  98.8277740 171.1075287  15.7172003
  98.6977005 169.5406799  14.1870136  99.7480774 169.2798767  14.3165932
  98.1054611 168.6483154  13.9844427  98.5403595 170.4326477  12.9466038
  99.3340302 171.1797333  12.9383831  98.6575089 169.7644043  12.0934820
  97.1737366 171.1670074  12.8395939  96.4315262 170.5826416  13.3834124
  97.3552628 172.0851440  13.3983173  96.7976456 171.5327301  11.4481630
  96.5830612 170.7141876  10.8967686  95.9506302 172.0808868  11.4949551
  97.5884247 171.9913940  11.0187511  98.3701401 169.9454803  18.0845795
  97.2615356 170.0718384  18.6155567  99.4999847 170.5101929  18.6090927
 100.3540573 170.3292847  18.1012173  99.6485519 171.1281586  19.9550800
  99.2932663 170.3673401  20.6500721 101.1618958 171.1790771  20.2001362
 101.2936020 171.3145447  21.2736378 101.7078476 170.2761383  19.9267712
 101.8678818 172.3886719  19.4779301 101.7856522 172.2848663  18.3960037
 101.4109879 173.3261261  19.7949657 103.3932114 172.4158630  19.8963833
 103.5268784 172.4849396  20.9759483 103.9650574 171.5740204  19.5059967
 103.9960098 173.6835327  19.3570080 103.4444809 174.5386810  19.7476940
 105.0032272 173.7005768  19.7733326 104.1099243 173.6789246  17.8604164
 103.3140564 173.2703094  17.3916645 104.1171875 174.6008759  17.4480362
 104.8923492 173.1290283  17.5355606  99.0537949 172.5331116  20.1907749
  98.9553986 172.9374847  21.3231907  98.7449951 173.3215332  19.1092186
  98.8009567 172.9461212  18.1732521  98.1605530 174.6832275  19.1530571
  98.3271255 175.1704102  20.1137886  98.8688812 175.5766296  18.0606022
  98.4013290 176.5612030  18.0496655  99.9066238 175.8301239  18.2772522
  98.8519287 175.0955200  16.5940800  98.3977051 173.9376678  16.3698101
  99.2153473 175.8632812  15.7527504  96.6431427 174.6959686  18.9703693
  95.9890747 175.7266083  19.1531982  95.9964066 173.5369720  18.7675629
  96.5840149 172.7404022  18.5667992  94.5606308 173.4327087  18.6657600
  94.2022934 174.2001038  17.9796124  94.1705933 172.0623932  18.1124763
  94.6424408 171.2925568  18.7230644  93.0824432 172.0720062  18.1751289
  94.6707382 171.8676147  16.6802826  94.1470490 172.5821991  16.0452824
  95.7559662 171.9636993  16.6463909  94.3187866 170.1442413  15.9814224
  92.5727386 170.3643646  15.7368574  92.3873062 171.0158844  14.8829117
  92.1507797 169.3988800  15.4577599  92.0868530 170.6579285  16.6673584
  93.7950439 173.6229401  19.9544258  94.2679443 173.2300415  21.0399475
  92.6156540 174.1769867  19.8449783  92.3436279 174.5662994  18.9536133
  91.6629105 174.3547363  20.9146442  91.8590622 173.6600952  21.7314129
  91.7248077 175.7651825  21.4303761  92.6268768 175.8643036  22.0341568
  91.6473312 176.4452362  20.5820599  90.5965500 175.9567413  22.2424793
  90.7247467 176.7233429  22.8059578  90.2492371 174.1181946  20.2836876
  89.9559021 174.7269287  19.2288189  89.4037018 173.3075409  20.9905300
  88.0039978 172.9918823  20.6001530  87.8747711 172.6465454  19.5744114
  87.3169098 173.8307800  20.7108688  87.6318054 171.8667450  21.6051102
  88.1375504 170.9330902  21.3589268  86.5493164 171.7703400  21.6889267
  88.3564758 172.2655334  22.8598022  88.5973740 171.4362946  23.5249691
  87.8872223 173.0879974  23.3996563  89.7408066 172.7649384  22.3039227
  90.1935959 173.5329895  22.9309635  90.7521515 171.5912628  22.3448505
  90.8270874 170.8382263  21.3732529  91.6057205 171.4705963  23.3511333
  91.6663055 172.3000336  23.9242573  92.6447601 170.3987579  23.4493675
  93.2434540 170.5057373  22.5448074  93.6168213 170.6725464  24.6458111
  94.2401199 171.5228577  24.3690948  93.0493393 170.9267731  25.5410442
  94.5312729 169.5538635  25.1104202  95.0570526 170.0046844  25.9520931
  94.0007629 168.7139587  25.5590019  95.5399017 169.0322723  24.1046982
  96.0695801 169.7391357  23.2423973  95.9071808 167.7947083  24.2161083
  96.6415024 167.4665985  23.6051903  95.5129623 167.1820831  24.9156761
  92.1306000 168.9095612  23.5066910  92.8645172 167.9739990  23.0705280
  90.8963013 168.7330475  23.9533558  90.3992767 169.5971680  24.1157017
  90.0597839 167.4583282  23.9536228  90.3509750 166.8350983  23.1081161
  90.3551941 166.7606049  25.3170776  89.7964706 165.8258667  25.2705345
  91.3987732 166.4640961  25.2116261  90.0877151 167.5603943  26.5647736
  90.4925613 168.5722351  26.5455570  89.0073624 167.6627197  26.6671429
  90.4997101 166.8475647  27.8753700  89.7655258 167.0964966  28.6416073
  90.5202942 165.7695007  27.7158356  91.8695679 167.2974854  28.3797436
  92.5949402 166.9627380  27.6382027  91.8082581 168.3784027  28.5060024
  92.2727432 166.7246094  29.7076645  92.2057190 165.7349701  29.8979816
  93.2479401 166.9439545  29.8525257  91.7534561 167.2415161  30.4028187
  88.5793991 167.7855530  23.8600368  88.0578842 168.8343811  24.2890453
  87.7542267 166.8299866  23.3281136  88.2472000 165.9937897  23.0490799
  86.3131790 166.7649994  23.5154533  85.9595795 167.1600037  24.4678440
  85.6558304 167.6685181  22.5035362  84.5983353 167.7747803  22.7454071
  86.0777969 168.6687775  22.4058018  85.6448517 167.0290375  21.0647430
  86.7037506 167.3589325  20.2109451  87.5576324 167.9437866  20.5195427
  86.6802979 166.9923859  18.8644409  87.4321899 167.2021027  18.1180668
  85.5694046 166.2583008  18.3982754  85.4947357 165.9408264  17.3686943
  84.4504318 165.9551544  19.2089634  83.6015854 165.4330902  18.7926521
  84.4861603 166.3616638  20.5640984  83.6243134 166.1388550  21.1756268
  85.7731247 165.3238525  23.5032997  86.5158997 164.3826752  23.3731747
  84.5084915 165.1483917  23.6569099  83.9776840 165.9786682  23.8782253
  83.7846298 163.9515991  23.6062756  84.3704376 163.1605072  23.1381741
  83.4628525 163.3326263  24.9283772  82.8071213 164.0374756  25.4395733
  82.8343811 162.4470673  24.8340740  84.5710754 162.9900360  25.8540020
  85.2197037 163.8760529  26.6101589  85.0854874 164.9421234  26.5011311
  85.9829025 163.3427277  27.5559082  86.4947357 163.9047089  28.2209759
  85.8558960 161.9407501  27.5078087  86.2407227 160.9915771  28.3959427
  86.7830276 161.2539825  29.2922993  85.9712753 159.6242218  28.1018429
  86.1897202 158.8825378  28.8558941  85.2699738 159.2961578  26.9333515
  84.9394913 158.2874451  26.7341785  84.7496033 160.3485260  26.1141548
  84.1883698 160.1013641  25.2251472  85.0658875 161.7052612  26.3545685
  82.5396805 163.9806976  22.6661568  81.6764069 164.8587189  22.7566280
  82.5433044 163.1496429  21.6801739  83.2928009 162.4728699  21.6984081
  81.5079956 162.8305969  20.7356720  80.7239151 163.5791168  20.6215363
  81.9095688 162.6453400  19.7394180  80.7611465 161.5179443  21.1436310
  81.1664276 160.4264221  20.8245983  79.6840591 161.6795807  21.8934402
  79.3191299 162.6210175  21.9185371  78.8859940 160.6088257  22.4782543
  79.4895401 159.7039185  22.5487823  78.4980774 160.9194641  23.9260807
  77.7625427 161.7193909  23.8411179  77.9265976 160.0826874  24.3277206
  79.6546631 161.3734436  24.8802605  80.0139771 162.3109741  24.4559689
  78.9872131 161.6920319  26.1805401  78.7141418 160.7467194  26.6495075
  79.7416458 162.2689972  26.7153702  78.1241379 162.3329315  26.0004234
  80.7750626 160.3632202  25.0564880  81.4086685 160.2558289  24.1760807
  81.4163284 160.6128235  25.9018116  80.3615189 159.3684540  25.2224617
  77.6730270 160.2452850  21.6335373  77.1028214 161.2429047  21.1694794
  77.4093704 158.9792328  21.4455719  77.7433167 158.2433472  22.0514278
  76.3117142 158.4779663  20.5496521  76.4646225 159.0742798  19.6501369
  76.5734558 156.9635010  20.1156960  75.6473465 156.5873871  19.6809883
  77.6495285 156.7505493  19.0525360  78.5748825 157.2252960  19.3787994
  77.9289246 155.7104645  18.8844414  77.3071976 157.2306366  18.1357841
  76.9898071 156.1869354  21.2218132  76.2723923 156.1041260  21.8543243
  74.9423065 158.7159271  21.2359695  74.5687332 158.0728760  22.2069321
  74.2039566 159.7426453  20.7213173  74.6515350 160.2344208  19.9610958
  72.9179840 160.2549591  21.2340431  73.1337509 160.4691162  22.2807903
  72.5406876 161.6248474  20.6430626  71.7914810 162.0998840  21.2764206
  73.4709549 162.1881561  20.7164783  72.0351105 161.5437012  19.1963863
  72.6883316 162.1627655  18.5814362  72.1376343 160.5060883  18.8786831
  70.6245041 161.9836731  18.9941730  70.4412766 162.9816437  19.3924141
  70.4650955 161.9643250  17.9160652  69.6613464 161.1018066  19.6884365
  69.3154449 161.3306580  20.6093464  68.8984070 160.2419434  18.9948788
  68.9976196 159.8633118  17.7612495  69.5547104 160.3637085  17.0835056
  68.1543121 159.4564667  17.3825321  67.9153748 159.7798157  19.6718292
  67.7711258 160.1942139  20.5815372  67.2046967 159.1990967  19.2501488
  71.7456360 159.2397766  21.2761936  70.8992767 159.3035583  22.1572971
  71.8445129 158.2393188  20.3306618  72.4715805 158.4570160  19.5694160
  71.0584869 157.0277863  20.3158703  70.0050507 157.3061218  20.3459682
  71.4458237 156.2718506  19.0510921  70.8907013 155.3536530  18.8591576
  71.2206573 156.8864441  18.1795006  72.7723846 155.7723999  19.0752029
  72.7843246 154.9507599  18.5788517  71.2449112 156.0552521  21.5334301
  70.3165283 155.3326416  21.9004841  72.3535614 156.2133942  22.2665977
  73.0532684 156.7929535  21.8254433  72.7304382 155.5179291  23.5557270
  72.1002655 154.6297302  23.6015472  74.2344742 155.0609283  23.3892994
  74.8955994 155.9245300  23.4615288  74.4701538 154.3742981  24.2023716
  74.4003677 154.6324921  22.4008541  72.4306030 156.3811493  24.8434734
  72.5871048 155.8706665  25.9198341  72.0207520 157.6051025  24.7078743
  71.6859741 158.0022278  23.8416615  71.7441711 158.4224091  25.8933239
  72.1447144 157.9053802  26.7653027  72.5146408 159.7971802  25.7064056
  72.0916138 160.2844543  24.8279400  72.2368317 160.3807831  26.5840988
  74.0080566 159.8659821  25.6118050  74.4455261 159.0916901  24.9815807
  74.4020691 161.2916260  25.1217041  73.7187042 162.0218048  25.5552368
  75.4353561 161.5117340  25.3899689  74.4052963 161.2602997  24.0321579
  74.5468216 159.7802734  26.9916363  74.0856628 158.9994354  27.5963745
  75.6155853 159.5662079  26.9956169  74.4349976 160.7455444  27.4854431
  70.2945251 158.7456970  26.2861252  69.4245071 158.7938995  25.4167614
  70.0571823 158.8318329  27.6113396  70.8488007 158.7953186  28.2375298
  68.7406616 158.9845581  28.2559986  67.9494247 159.2224579  27.5450478
  68.3419189 157.7103577  28.9763126  68.5356827 156.8517609  28.3333893
  69.0888062 157.5518646  29.7542229  66.9270401 157.6237030  29.4652328
  66.7678680 158.5583801  30.0029392  65.9129715 157.3873749  28.3482037
  66.1832123 156.4840851  27.8012714  64.9082260 157.2604523  28.7512932
  65.8465729 158.2581787  27.6959801  66.7524719 156.4541016  30.4555454
  67.4373398 156.6075592  31.2895241  65.6988983 156.4702148  30.7345085
  66.9500504 155.5086060  29.9504719  68.7550125 160.1898499  29.1982822
  69.4297485 160.1770935  30.2002449  68.0174866 161.2826233  28.8728962
  67.3862000 161.6268463  27.6395302  66.3371811 161.3354950  27.6921864
  67.7746887 161.0884552  26.7750607  67.7284393 163.1244202  27.4082775
  66.9566727 163.5077362  26.7407856  68.7515259 163.3207397  27.0875874
  67.6261520 163.6451874  28.8562260  66.5876846 163.9586182  28.9632168
  68.3341293 164.4609528  29.0024929  67.9404984 162.4489288  29.7544422
  68.8981628 162.6125946  30.2485886  66.9287415 162.2355957  30.8910351
  65.8712006 162.8262939  30.9331017  67.2673798 161.3974457  31.8512650
  68.1079254 160.8583221  31.6998482  66.5923004 161.1617432  33.1281624
  65.5290070 160.9792786  32.9725227  67.2672806 159.8798981  33.8090324
  67.1675186 159.0549011  33.1036644  68.3226929 159.9797363  34.0624657
  66.6302567 159.4394379  35.1406784  67.0315475 160.0964203  35.9123344
  65.5546570 159.5975952  35.0621376  66.9696045 158.0477905  35.5523834
  67.9985046 157.8148499  35.2781296  66.8694153 157.8940430  36.6268234
  66.1010742 157.0319214  34.9151230  65.4906235 157.4592133  34.2333031
  65.8351517 155.8592072  35.3527527  66.3424835 155.4624481  36.5068207
  67.0070343 155.9658051  37.0769997  66.0689468 154.5991211  36.9539680
  65.0718842 155.0403442  34.7084579  64.7110596 155.2800751  33.7960815
  64.7924652 154.1828918  35.1632271  66.6427002 162.3674011  34.0942078
  65.5737076 162.8284912  34.5469437  67.7576752 162.8236237  34.4404640
