Cpptraj Generated Restart                                                       
   37  4.0000001E-01
  85.0489273 153.8290100  13.8808784  85.2315292 152.9269104  14.9387445
  85.3999863 153.2385864  12.7572832  85.9362411 151.7653656  14.7644405
  85.9291763 152.2216949  12.4854450  86.2236710 151.2407684  13.4544020
  86.4278412 150.8631287  15.6894026  86.7989960 149.9966278  13.6237259
  86.0178986 149.7990875  14.8451376  87.7757339 150.8516693  15.6737490
  88.1257095 150.1169891  14.0830879  84.7843170 149.2006836  14.9023323
  88.8655624 151.0351868  14.8277912  84.4685059 148.4328766  14.0088253
  83.7986526 155.5864868  11.8678970  84.2918396 156.0582581  12.8619194
  84.6622238 155.2127991  13.9633274  84.4495621 157.5199585  12.9532871
  85.0260544 156.0022430  14.9226542  84.9697342 158.2275543  14.1254377
  85.2311935 157.1450806  15.0818605  85.3058090 159.4082184  14.0808840
  84.2586823 158.1165009  12.1568832  84.7769012 153.2013702  16.1989231
  83.9700546 152.3554993  16.8843231  84.1540604 149.4344635  16.0985012
  82.8977661 148.7327728  16.4044361  83.1133041 147.2654724  16.3943443
  81.8271637 149.1136780  15.4413910  82.4899597 149.1701050  17.7121735
  88.9462128 149.8429871  15.4907598  89.8129883 149.2685242  16.4431419
  89.5265274 149.1010742  17.8429241  91.1069183 148.8410339  16.0777569
  90.4383163 148.7646484  18.5754490  91.8936768 148.4610138  16.9459820
  91.5387650 148.4286041  18.1573086
