Cpptraj Generated Restart                                                       
   35  4.0000001E-01
  86.2278214 147.3740997  15.6980858  85.4321365 148.3155975  16.5107136
  85.0985641 147.7779999  14.8007259  84.4181671 148.9792328  16.7841320
  83.9313431 148.2326355  14.6084576  83.3154297 149.1552582  15.6799126
  81.9638138 148.6990509  16.1804829  82.7619095 150.6028900  15.3901501
  81.7882767 149.9540558  15.8514118  83.1321259 151.7632599  14.8001738
  84.4403534 152.2440643  14.3232012  82.1766968 152.9071045  14.7042427
  84.8669891 153.4922485  13.9917126  82.7018433 153.9889221  14.4372396
  83.8994522 154.5126801  14.1050377  84.1101303 155.9379578  13.9504557
  84.6290665 156.6769257  12.7236767  84.1418610 156.7874603  14.9355478
  84.6754150 156.1718292  11.6178484  85.0850525 158.0482178  12.8703365
  84.5748825 157.8799744  15.0800705  85.1495590 158.7941437  14.0596266
  85.6026001 159.9111938  14.2109175  85.4194107 158.4115601  11.9855947
  86.1592712 153.7651978  13.5041065  86.5349655 153.5040588  12.2793770
  86.5109253 148.6068878  15.1801891  91.2159958 150.7987518  14.5336161
  89.5580444 150.2922211  14.0887308  88.7175217 149.5922546  14.9125328
  88.8888245 150.6349335  13.0067329  89.1236877 149.2162628  16.0904846
  87.4284515 149.3966370  14.4935274  87.7834396 150.5738373  12.4255753
  87.0040359 149.9168854  13.1703081
