Cpptraj Generated Restart                                                       
   37  4.0000001E-01
  85.5575867 151.3479919  13.4898176  86.0148087 152.4802246  12.8357143
  84.7005920 152.1106720  14.3030853  85.9930801 153.7766113  12.7643623
  84.2547226 153.3371582  14.4862556  84.9972916 154.2321320  13.6522274
  84.4798508 146.4835205  16.5656433  85.6566467 147.3983612  16.2312984
  84.0444870 147.2667236  15.4017334  86.2681122 148.2040253  15.4459009
  84.2165146 147.9974976  14.3659992  85.5960999 148.6794281  14.1363039
  86.3685684 147.9702148  13.0136395  85.8964310 150.0371094  13.4304628
  86.5797882 149.2162323  12.7021694  84.0606995 147.7083130  17.0351009
  84.2685318 147.9668121  22.2874775  83.7566452 148.4243927  20.6501579
  84.2577209 147.8494720  19.5076141  82.8611984 149.3797913  20.3767624
  85.2694321 146.9196167  19.5271187  83.7058716 148.3192444  18.3076496
  82.2755737 149.9409180  19.4446907  82.7398758 149.4834442  18.3989563
  84.6933823 155.5798798  13.7165661  84.7560730 156.5633545  12.5636530
  84.8782806 156.3319092  14.7511311  84.5764313 156.2149963  11.4026518
  84.9692459 158.0148010  12.8204060  85.1641846 157.4537354  14.9981976
  85.2278214 158.6023102  14.1213627  85.5003815 159.7740936  14.3295794
  84.9217682 158.6195526  12.0088692  86.6666718 154.4768677  11.7674408
  87.6695023 153.9618378  11.0734158  83.1800919 153.6311646  15.2669907
  81.9872360 153.7676849  14.6529446
