Cpptraj Generated Restart                                                       
 6188  4.0000001E-01
  90.4438095 180.3657990  24.5336227  91.3246384 180.1751862  24.0776443
  90.1351929 179.5225677  24.9960518  90.5417175 181.0808105  25.2402096
  89.4827042 180.6914215  23.3767071  88.4766006 180.5591736  23.7746563
  89.6556854 182.2051544  22.8564091  90.6800079 182.2737579  22.4901218
  88.9622574 182.4324341  22.0467167  89.2958221 183.2195282  23.9752102
  88.2372665 183.1269836  24.2180862  89.7554626 182.9981384  24.9384499
  89.6028595 185.0531464  23.8397274  88.3623276 185.3448334  22.5467243
  87.4225159 185.4692688  23.0846596  88.5778046 186.2863770  22.0415802
  88.3077240 184.5230255  21.8327541  89.6141891 179.6775513  22.2119198
  90.6946793 179.1847992  21.9140568  88.4870911 179.3130188  21.6366405
  87.6554718 179.8255920  21.8931007  88.4483871 178.2497253  20.5507336
  88.9976578 177.4241486  21.0032978  87.0220108 177.7825165  20.2064095
  86.4042282 178.6788177  20.1509476  86.9964752 177.0898590  18.8230610
  87.6869125 176.2504730  18.9057827  86.0008698 176.6946564  18.6213074
  87.2802124 177.8157654  18.0610580  86.4080734 176.8535614  21.3064137
  85.3702927 176.6512451  21.0414906  86.9784927 175.9313507  21.1957207
  86.4283295 177.3346100  22.7357311  86.1050949 178.3687134  22.8551674
  85.8809128 176.7236786  23.4535007  87.4481583 177.4164734  23.1116905
  89.3333664 178.7339630  19.3825779  89.4039078 179.9092255  19.1552181
  89.9284592 177.8953094  18.5432644  89.9241562 176.9133759  18.7797089
  90.4889984 178.2826691  17.2409954  90.0365067 179.2161102  16.9062901
  92.0545044 178.5677795  17.3041840  92.5172577 178.8480835  16.3579388
  92.2429047 179.4363251  17.9352474  92.8918915 177.4064178  17.8932762
  92.7175369 176.2855682  17.4470501  93.6999283 177.6119690  18.9082031
  94.3495560 176.8623657  19.0984402  93.9767685 178.5214386  19.2492657
  90.0599365 177.3066711  16.1431618  90.4787903 177.4189911  15.0055857
  89.2114182 176.2928772  16.4383640  88.9717941 176.0962982  17.3996334
  88.7646408 175.2816467  15.4948015  89.5541306 174.8159180  14.9049711
  87.9796600 174.1618347  16.1641903  88.7180710 173.5822144  16.7181625
  87.2113571 174.6288452  16.7804050  87.3938217 173.0960541  15.2497263
  88.2648163 172.2689667  14.5207891  89.3247604 172.4750366  14.4994583
  87.7382355 171.2365265  13.7261438  88.3880844 170.5276337  13.2346306
  86.3709869 171.0592957  13.6480227  85.9169159 170.2921753  13.0383272
  85.5042572 172.0363617  14.1469412  84.4301376 171.9503021  14.0744038
  86.0403214 173.0278320  14.9910717  85.3725281 173.7238617  15.4768724
  87.8300934 175.9640503  14.4957466  87.0961075 176.9526520  14.7780247
  87.9040604 175.5577087  13.2641487  88.5490952 174.8186493  13.0236444
  86.9825211 176.0648499  12.2295485  86.7080688 177.1022034  12.4210558
  87.7382355 176.0443420  10.9421091  88.5060501 176.7841797  11.1684046
  88.0490952 175.0401306  10.6539755  86.9957581 176.6854706   9.7709255
  85.8848877 177.1939850   9.9979248  87.5683746 176.6081085   8.6271257
  85.7060165 175.1988068  12.1869726  85.6674423 174.1020050  11.6485872
  84.6218033 175.7511902  12.7008152  84.7317505 176.6962128  13.0398483
  83.3133469 175.0627441  12.8866386  83.5502625 174.1755981  13.4739695
  82.2151794 175.8872528  13.5644217  81.2476654 175.3866730  13.5263414
  82.5997620 176.1784058  14.9967985  83.5146790 176.7414246  15.1812716
  81.7670898 176.7326508  15.4299021  82.7979431 175.2637482  15.5555725
  82.1491547 177.1770782  12.9403782  81.6009445 177.7666931  13.4632730
  82.7535706 174.6031952  11.5327282  81.7777481 173.8533478  11.5043135
  83.2564545 175.0391388  10.3471146  83.9385757 175.7731628  10.4736881
  82.9020081 174.5136108   9.0177078  81.8216934 174.3841095   8.9524536
  83.2442245 175.5665131   7.9420543  82.7086029 175.2794342   7.0371842
  82.9317017 176.5676270   8.2390604  84.6057434 175.6237335   7.7494044
  84.9148026 176.3852234   8.2455883  83.4892197 173.1220856   8.6963987
  82.8104858 172.3558807   8.0417442  84.6872406 172.7808685   9.2141953
  85.0946426 173.4110260   9.8902340  85.3370743 171.4981232   8.9272747
  85.6679993 171.5070190   7.8887615  86.6201324 171.4600220   9.6898508
  86.4491196 171.7185822  10.7348404  87.1268005 170.4970398   9.6261272
  87.6262360 172.4749298   9.0640125  87.2456970 173.4856720   9.2113113
  88.9585648 172.3690491   9.7798691  89.3489456 171.3765259   9.5548983
  89.6855240 173.0979919   9.4217291  88.8076553 172.3868713  10.8592253
  87.9899521 172.4179993   7.5840549  87.1137314 172.6090546   6.9645166
  88.6455078 173.1839905   7.1697869  88.3276062 171.4017181   7.3809385
  84.5538635 170.1458130   9.0972471  84.7822495 169.1983185   8.3648043
  83.6104889 170.0573425  10.0625525  83.5177536 170.8855438  11.2515459
  82.8649826 171.7467041  11.1087770  84.5561905 171.1553650  11.4437647
  82.7944031 170.0451813  12.3231936  82.2449951 170.7349091  12.9639225
  83.5237274 169.3787231  12.7836313  81.8753281 169.1591492  11.4989309
  80.9709854 169.7327728  11.2959366  81.6901779 168.2514954  12.0733795
  82.5560150 169.0195160  10.1175718  83.1388474 168.0993347  10.1584082
  81.5582047 168.9453430   8.9368277  81.3177948 167.8677826   8.4610081
  80.9808426 170.0869751   8.5543509  81.3815613 170.9555817   8.8784819
  79.8168488 170.2094116   7.5961509  79.2237549 169.3119049   7.7717652
  78.9622650 171.4613190   7.8288116  78.1780701 171.4482574   7.0718679
  78.3125763 171.3167877   9.1911879  79.0463409 171.5996246   9.9459620
  77.4717331 171.9996948   9.3124409  78.0605392 170.2791138   9.4098625
  79.7323837 172.6497498   7.7800126  79.5671844 173.0574646   6.9267387
  80.1996918 170.1892548   6.0431376  79.3599777 169.9754028   5.1808538
  81.4878159 170.2916107   5.7526064  82.1394730 170.5038300   6.4944944
  81.9750748 169.9000854   4.4030004  81.3389816 170.3466492   3.6387560
  83.4394760 170.4522247   4.2269449  83.8331680 170.3473053   3.2159548
  83.4238739 171.5354004   4.3476048  84.3492355 169.9793396   5.2155614
  85.1715393 170.4429321   5.0409198  81.9712296 168.3889923   4.2063398
  81.8564606 167.9299164   3.0200737  81.9766846 167.5951843   5.2800570
  82.0420609 168.0088196   6.1991506  81.9774475 166.1173706   5.3417735
  82.2196579 165.8230743   6.3629603  80.6405640 165.4467316   4.9798360
  80.3470459 165.6569519   3.9513640  80.7565994 164.3715057   5.1158800
  79.4889908 165.8000488   5.9280381  79.3622513 165.1857605   7.1920834
  78.2746048 165.8037567   7.7214012  77.8884048 165.5691986   8.7023363
  77.7364120 166.7643890   6.8803306  76.9258728 167.3388977   7.0622034
  78.5055389 166.7530670   5.7471590  78.3050690 167.4357452   4.9346576
  83.1593781 165.3859406   4.5929461  83.0330658 164.2767639   4.0875816
  84.3141174 166.0508270   4.4873257  84.3235550 167.0152740   4.7870555
  85.5779037 165.5071869   3.8723981  85.5117950 165.4598389   2.7854352
  86.8107681 166.3453827   4.3018932  86.8990936 166.4285278   5.3851228
  87.6739426 165.8029480   3.9161515  86.9076233 167.7786255   3.6674302
  87.4845352 167.6347198   2.7538850  85.9118729 168.0791626   3.3414705
  87.6898956 169.0236511   4.8110461  89.4623260 168.6264496   4.6408725
  89.7849503 168.7514191   3.6072364  90.0187302 169.2358093   5.3530459
  89.6692200 167.5791779   4.8611121  85.9421387 164.0365753   4.2154970
  86.5537109 163.4341431   3.3570354  85.5919876 163.3245544   5.3231282
  85.0232010 163.7573090   6.0367885  85.9603500 161.8814850   5.5212393
  86.9982071 161.7387848   5.2202735  85.7277298 161.3823395   6.9396806
  86.0089722 160.3421631   7.1040487  86.3537674 161.9324188   7.6422424
  84.2615814 161.5659637   7.3278027  83.8510056 162.9157104   7.6847219
  84.5493317 163.7383270   7.7298398  82.4908524 163.0966187   7.8679476
  82.1707993 164.1092987   8.0639753  81.5420990 162.0411530   7.7307501
  80.2389145 162.2304840   7.8412132  80.0283127 163.1536560   7.6830902
  81.9785538 160.7321930   7.5528669  81.2381973 159.9463501   7.5794692
  83.3646240 160.4923248   7.2738695  83.6213989 159.4502258   7.1534433
  85.1601486 161.0050659   4.5959072  85.7711029 159.9785767   4.2075491
  84.0497208 161.4811249   4.0261579  83.6492844 162.3558044   4.3338776
  83.3333511 160.8318787   2.8760931  83.4216385 159.7725067   3.1170588
  81.8481445 161.2290955   3.0632982  81.6113205 161.1324921   4.1228652
  81.7977219 162.2732697   2.7546370  80.8894119 160.4277039   2.1854050
  81.1643524 160.3887177   1.1313726  80.6902542 158.9855804   2.7428610
  80.1260529 159.0704498   3.6716154  80.1403656 158.3510437   2.0478082
  81.6147919 158.4668579   2.9963622  79.5267944 161.1289368   2.2230954
  79.5592651 162.1363220   1.8080961  78.8438110 160.5298004   1.6208775
  79.2150497 161.2535095   3.2601147  84.0506287 161.1392975   1.5761422
  83.5060272 160.8786316   0.5060173  85.2002029 161.7913818   1.5959506
  85.5448608 162.1277618   2.4837310  86.0819016 162.0799408   0.4478331
  87.1346054 162.0594330   0.7297726  85.9522400 161.3696899  -0.3687570
  85.8761139 163.4811859  -0.1733213  84.8940811 164.1580505   0.0034319
  86.8410645 163.9291534  -0.9179344  87.6454163 163.3183136  -0.9190476
  86.7749405 165.1142273  -1.7532666  86.2018967 165.8968658  -1.2560669
  88.2223892 165.6757660  -2.0004985  88.1064301 166.6579590  -2.4586780
  88.7028885 165.7402649  -1.0242461  89.0013657 164.8502502  -2.7392383
  89.9152069 165.1428375  -2.7094116  86.1041641 164.7994690  -3.1573298
  85.7111588 163.6663971  -3.4453716  85.9327850 165.8826904  -3.9228342
  86.0118484 166.8249207  -3.5677767  85.7263794 165.7350769  -5.3633528
  85.5593109 166.7263336  -5.7847819  87.1222305 165.3539581  -5.9858274
  87.8689575 165.7815704  -5.3167615  87.3113785 164.2907257  -5.8379107
  87.4671249 165.7444153  -7.4486384  86.8100128 166.6293945  -8.0052538
  88.4472427 165.1708527  -7.9777703  84.4914932 164.8995361  -5.7760611
  84.5726624 163.9676666  -6.5880084  83.3699036 165.1893768  -5.1876473
  83.2905884 165.7981873  -4.3856754  82.0795822 164.6096649  -5.5356245
  82.2684174 163.6063843  -5.9175720  81.1531143 164.5327606  -4.3322902
  80.7291641 165.5259857  -4.1844239  80.3089676 163.8753052  -4.5403209
  81.8970566 164.0094910  -3.0797150  82.3916855 163.0757294  -3.3471563
  82.6914749 164.6642761  -2.7215917  80.8054123 163.7656708  -1.6643766
  79.8707123 162.2423859  -2.1095841  80.6005096 161.4530487  -2.2896965
  79.1796036 162.0318146  -1.2934159  79.2332535 162.4374237  -2.9719758
  81.3943176 165.4262390  -6.6885796  81.5451736 166.6397705  -6.8758221
  80.4662476 164.8109741  -7.4701037  80.2176514 163.8391876  -7.3521409
  79.5744781 165.5848389  -8.3531437  80.1048203 166.3435211  -8.9286795
  78.9376755 164.5346985  -9.2849894  79.6421432 164.0028076  -9.9244509
  78.5909195 163.6602020  -8.7344418  77.8269119 165.0734253 -10.2133818
  77.0447769 165.4678497  -9.5646877  78.2121048 165.8964691 -10.8153143
  77.2428284 164.0307312 -11.2527599  77.4383850 162.7734833 -11.0655861
  76.5128860 164.4207611 -12.2074327  78.5297165 166.3615723  -7.4658017
  77.8446732 165.6842346  -6.7067466  78.3566055 167.7283478  -7.5770621
  78.9273758 168.1849060  -8.2741041  77.2168274 168.4776764  -7.0048485
  76.9408112 168.0461578  -6.0427074  77.5586472 169.9323730  -6.7139750
  77.9730377 170.4870148  -7.5558467  76.6918564 170.5149536  -6.4019237
  78.5562363 170.0299530  -5.5150347  78.4946594 169.1508789  -4.8735404
  79.5591812 170.0631714  -5.9406047  78.5033188 171.2633820  -4.6268454
  77.8314896 172.2938690  -4.8659439  79.2409439 171.2445984  -3.6218390
  75.9719772 168.4992981  -7.9137473  76.1271820 168.5002899  -9.1173019
  74.6844788 168.5573730  -7.3711629  74.6778412 168.5135651  -6.3621354
  73.4993515 168.9958496  -8.0375605  73.6972198 169.1274261  -9.1013432
  72.3910141 167.9127960  -7.9440241  72.2742767 167.7416534  -6.8738914
  71.4422302 168.3589478  -8.2421198  72.7210464 166.5819397  -8.6012640
  72.4226761 166.3205109  -9.9608335  71.9796143 167.0878754 -10.5782804
  72.6355515 165.0097504 -10.4364748  72.4692154 164.8000793 -11.4827881
  73.2222061 164.0181885  -9.6156635  73.4926834 163.0228271  -9.9358416
  73.3800049 164.3083801  -8.2866602  73.8164673 163.5637970  -7.6374326
  73.1985550 165.5842133  -7.7684116  73.3775406 165.7656403  -6.7189107
  72.8651581 170.3365631  -7.4683132  72.9805832 170.5201569  -6.2912536
  72.3901825 171.2493134  -8.2791386  72.4003830 171.0665894  -9.2724218
  72.0083389 172.6304321  -7.9240441  72.3170776 172.8016205  -6.8927946
  72.8499985 173.6264496  -8.7482195  72.7651825 174.6393127  -8.3544922
  73.9012375 173.3863220  -8.5890388  72.6079178 173.6327972 -10.2805204
  73.0485611 172.6557770 -11.1823339  72.5982361 173.0602112 -12.3951950
  72.7821198 172.5658569 -13.3376455  71.8358002 174.1697998 -12.2556133
  71.3396225 174.5677338 -13.0401917  71.9127731 174.6157379 -10.9445248
  71.4139786 175.4930115 -10.5597973  70.4910965 172.9933167  -8.0540199
  70.0318298 173.9403381  -7.4669018  69.7725143 172.1592255  -8.8084326
  70.1816406 171.4141235  -9.3539047  68.3132706 172.2853241  -8.8530502
  68.0079651 173.3304596  -8.9040394  67.9548645 171.9082947  -9.8109093
  67.5938797 171.5265350  -7.7223868  68.1454239 170.6580658  -7.0388350
  66.4484024 172.0423279  -7.3082638  65.9471283 172.7328644  -7.8486137
  65.7730103 171.6583252  -6.0376377  66.2508545 170.8138123  -5.5410762
  65.7248764 172.9376678  -5.1003337  65.0505219 173.7102356  -5.4697833
  65.3469162 172.5913696  -4.1383867  67.1189880 173.5026703  -4.7989879
  67.6764450 173.6356049  -5.7261715  67.0001984 174.4860229  -4.3439975
  68.0129471 172.5516815  -3.9963481  67.6826019 172.3473663  -2.9779038
  67.9813156 171.5793152  -4.4878831  69.4778519 173.0192566  -3.9122722
  70.0904846 172.5756989  -4.5816250  69.9193649 174.0447388  -3.1423125
  69.1943512 174.8544922  -2.4690754  68.1979599 174.7852783  -2.6191161
  69.5536575 175.5778198  -1.8626139  71.1762466 174.2795563  -3.1186175
  71.8537750 173.6692657  -3.5528932  71.6102295 175.0523224  -2.6342852
  64.3849792 170.9663696  -6.2881980  63.7186661 171.1076050  -7.2879181
  63.9358139 170.1658478  -5.3578300  64.5548325 169.9937592  -4.5785265
  62.7168045 169.3441315  -5.5014319  62.3377495 169.6425323  -6.4788685
  63.0306091 167.8482208  -5.4127250  63.6608658 167.7248230  -4.5320134
  61.7863731 166.9775085  -5.3505001  61.0403366 167.2115021  -6.1099572
  62.0980415 165.9401093  -5.4719996  61.3730698 167.0310059  -4.3433185
  63.6963577 167.4067535  -6.5722756  63.5901833 166.4661102  -6.7320118
  61.7291985 169.7337799  -4.3544135  62.1375656 169.6177063  -3.2146626
  60.5338631 170.1280060  -4.5811076  60.3348007 170.4528809  -5.5164852
  59.4769173 170.1700745  -3.6218748  59.6476135 169.4429169  -2.8280237
  59.3079605 171.5836334  -2.9494634  59.1271553 172.2214813  -3.8146491
  58.4225960 171.5710754  -2.3137925  60.4374695 172.1010284  -2.0534701
  61.3748245 172.0742035  -2.6091216  60.1243668 173.5040741  -1.5443749
  59.1455956 173.5101013  -1.0647191  60.8895569 173.9383240  -0.9009416
  60.0558167 174.1610870  -2.4113982  60.6325111 171.2635803  -0.7664623
  60.8063393 170.2355957  -1.0844606  61.3605042 171.6765900  -0.0682073
  59.6763153 171.2689514  -0.2432361  58.1784096 169.7713623  -4.3352151
  57.7736244 170.3520050  -5.3684807  57.5513992 168.7500763  -3.9171588
  57.9856300 168.2487030  -3.1554677  56.1906967 168.2173615  -4.2440944
  56.1570320 168.1682434  -5.3324666  56.0468788 166.6982269  -3.7733970
  55.9025650 166.5709534  -2.7005143  55.1492119 166.4232635  -4.3271918
  57.2266617 165.7939301  -4.1964025  58.4677505 165.7272034  -3.6064851
  59.1559601 164.8151855  -4.3023725  60.2000275 164.5804291  -4.1567121
  58.4684830 164.2873383  -5.3261127  58.7270737 163.4819794  -5.8780470
  57.2273102 164.9515533  -5.2831321  56.3327408 164.7640533  -5.8584447
  55.0710983 169.1330414  -3.7037971  55.2458229 169.8711700  -2.7519441
  53.9131088 169.2751465  -4.3630905  53.8226547 168.6865692  -5.1788702
  52.7668495 170.0447540  -3.9137139  53.0271454 171.1014252  -3.9752676
  51.6460457 169.8989258  -4.9531322  51.3582153 168.8553619  -5.0805159
  50.7157707 170.2821960  -4.5338407  51.8783226 170.7029572  -6.2557321
  51.2061462 171.7853699  -6.3726697  52.6888809 170.3042145  -7.1157308
  52.2391548 169.6700134  -2.5893900  52.2860451 168.5141296  -2.1261520
  51.6414032 170.6701050  -1.9032954  51.5224533 171.5909576  -2.3007550
  51.2239838 170.3201752  -0.5142247  52.1226654 169.9158478  -0.0484121
  50.8690414 171.6011505   0.2501880  49.9479332 171.9742889  -0.1975038
  50.6289482 171.3558044   1.2847227  52.0151329 172.6359253   0.2559554
  53.1977310 172.3078308   0.4975406  51.6814308 173.8085632   0.0877494
  50.1086311 169.2519073  -0.4714112  49.2308960 169.1961365  -1.3707432
  50.2527351 168.4532166   0.5690111  51.0271301 168.5899200   1.2028356
  49.4212608 167.2630768   0.8087341  50.0274925 166.6467133   1.4725760
  48.0684967 167.6778259   1.4778595  47.6493721 168.4791107   0.8692802
  47.3706284 166.8480225   1.3659997  48.3301926 168.1652222   2.9211557
  48.8265762 167.3880768   3.7898579  47.9319916 169.3130493   3.2989328
  49.2071724 166.3278351  -0.3972355  48.1558456 165.6662140  -0.5718174
  50.0951538 166.4053497  -1.3756790  50.9079056 167.0041199  -1.3439549
  50.0637627 165.4824371  -2.5102100  49.0756798 165.3422241  -2.9485371
  50.8866920 166.0300751  -3.7063468  50.7115822 165.3718262  -4.5573196
  50.4604073 167.0156555  -3.8934593  52.2389336 166.0400696  -3.3827686
  52.4783630 166.8652802  -2.9546323  50.5111694 164.0254211  -2.1014228
  51.4427643 163.9007263  -1.2645147  49.6602364 163.1167755  -2.4872532
  48.8649101 163.3071594  -3.0799675  49.9695473 161.6738892  -2.3351192
  50.2721214 161.4744110  -1.3071319  48.7328720 160.7776031  -2.6723619
  47.8496246 161.3031311  -2.3093467  48.4973335 160.6108398  -3.7234633
  48.8057632 159.1265106  -1.9640123  47.8323822 159.3332825  -1.0725725
  51.1243286 161.3372650  -3.2701154  50.9701614 161.5502930  -4.4553361
  52.1928253 160.7576904  -2.6845875  52.2329826 160.6927490  -1.6774777
  53.4339943 160.3798828  -3.3595176  53.2115097 160.3831329  -4.4265652
  54.5237389 161.4181824  -3.0641394  54.7568550 161.4017944  -1.9994847
  55.4894028 161.0919037  -3.4503360  54.2405243 162.8631134  -3.5061097
  53.3950958 163.2748413  -2.9548919  55.1130638 163.4797974  -3.2905018
  53.8573151 163.0031738  -4.9888620  54.1150322 162.1204987  -5.8113880
  53.3397598 164.1266327  -5.5257506  53.0199203 164.1001892  -6.4834065
  53.0072060 164.9061737  -4.9763608  53.9046516 158.9026031  -3.0261962
  53.7842941 158.4984589  -1.8629421  54.4813728 158.2024384  -4.0029511
  54.6033630 158.5664368  -4.9371481  55.3229103 157.0082245  -3.6769767
  55.1109695 156.7506561  -2.6392696  54.8667641 155.7591858  -4.4894276
  53.7982216 155.6434021  -4.3080273  54.9153633 155.8112488  -6.0429997
  55.9303246 156.0723724  -6.3426189  54.5944710 154.9040527  -6.5549817
  54.3045349 156.6507263  -6.3750734  55.5691261 154.4854584  -3.9302020
  55.3258820 154.3005981  -2.8838887  55.1669388 153.6333771  -4.4782209
  56.6245728 154.4476166  -4.1998396  56.8132133 157.2181702  -3.7356124
  57.2326546 157.7861633  -4.7623014  57.6721725 156.8898468  -2.7105584
  57.2581253 156.4034729  -1.9281839  59.1114960 157.1260529  -2.6864026
  59.3649216 157.1609650  -3.7459569  59.3875656 158.4553528  -1.9369538
  59.1903152 158.1780548  -0.9014351  60.8432617 158.9629364  -2.1059566
  60.9628181 159.5095367  -3.0413940  61.1174316 159.6526031  -1.3076531
  61.5562439 158.1393280  -2.1436348  58.3495026 159.5765381  -2.3159034
  58.3898964 159.8414001  -3.3724644  57.3122711 159.2970581  -2.1311264
  58.5245857 160.8280945  -1.4728391  59.4488983 161.2827759  -1.8292290
  57.7322884 161.5648956  -1.6050681  58.6090164 160.6212769  -0.4059720
  59.9094429 155.9534454  -2.1026452  59.5632553 155.3263397  -1.0890763
  61.0372200 155.5076294  -2.7203751  61.6375961 155.9944000  -3.9650283
  61.6386642 157.0820770  -4.0360742  61.1255836 155.5502319  -4.8186488
  63.0841446 155.3835449  -4.1103401  63.8301430 156.0030212  -3.6125040
  63.3737946 155.1579742  -5.1366544  62.9805183 154.0554657  -3.3702757
  63.9189873 153.6174164  -3.0304546  62.4706078 153.3328705  -4.0074091
  61.9356155 154.4265747  -2.2288473  61.2609138 153.6199341  -1.9420946
  62.6373291 154.8493805  -0.9076836  62.8885574 156.0202179  -0.6350583
  63.0380554 153.8236847  -0.1410179  62.7417831 152.8912964  -0.3920030
  63.6642990 153.9804077   1.1954030  63.9523125 155.0240936   1.3213404
  62.7398453 153.4210815   2.3623240  62.4191284 152.4171600   2.0841360
  63.3487244 153.2611542   3.7797844  63.8521805 154.1775208   4.0878410
  62.5035400 153.0704193   4.4411321  64.1583328 152.5361786   3.8637893
  61.5644989 154.4040985   2.6409035  61.0042305 154.4395599   1.7065929
  60.9495926 154.0579834   3.4716852  61.9023743 155.3851318   2.9748349
  64.8870773 153.1060181   1.2447070  64.7428207 151.9015350   1.0219872
  66.0764465 153.5862732   1.7420495  66.2774200 154.5436554   1.9933153
  67.2317581 152.7011566   1.9513475  67.3235321 152.1091156   1.0407506
  68.4213943 153.7334747   2.0803599  68.2351761 154.3965302   2.9252231
  69.2965012 153.1866455   2.4314353  68.8798676 154.5160980   0.7791925
  68.0922012 155.1213531   0.3304773  69.8989258 155.5469360   1.1566998
  70.8849030 155.1611176   1.4157273  69.9963455 156.1631622   0.2628998
  69.4832230 156.1874542   1.9345399  69.4482193 153.4934845  -0.2345601
  68.6251221 152.8923492  -0.6208931  69.8526382 154.0022736  -1.1095880
  70.2016907 152.9044342   0.2883236  67.0966492 151.8251953   3.2380722
  67.0333252 152.4132538   4.3551660  66.9732285 150.4779663   3.1565151
  67.1531525 149.7721252   1.9130895  68.0644913 150.1407318   1.4422520
  66.3120346 149.9845428   1.2531713  67.1975555 148.3145447   2.3410780
  68.2422180 148.0677490   2.5304987  66.8154221 147.6189575   1.5939221
  66.3385010 148.2345276   3.6698787  66.7617798 147.4451141   4.2909894
  65.2814560 148.0111084   3.5255075  66.5619659 149.6117859   4.2706614
  65.6705246 150.1406097   4.6079717  67.5557938 149.5055695   5.4916229
  67.1841278 149.0575714   6.5782943  68.8028641 149.9229584   5.3158097
  68.9860916 150.2922211   4.3937612  69.8069000 150.0213013   6.3928771
  69.5420151 149.2359009   7.1007504  71.1462555 149.5308228   5.8485904
  71.3953857 150.0700226   4.9346471  71.9462128 149.7899475   6.5421476
  71.1358490 148.0407257   5.5811381  70.3222580 147.4095612   4.6942458
  70.5920334 146.1213684   4.9435902  70.1201553 145.2828827   4.4530034
  71.5197372 145.9362946   5.8778267  71.8486328 145.0433197   6.2162471
  71.8535919 147.1340790   6.3776593  72.4927979 147.3466492   7.2218323
  69.8417892 151.3676758   7.1514797  70.6397400 151.5597076   8.0226583
  69.0142746 152.3546448   6.7603936  68.4138031 152.2152863   5.9603224
  68.9427490 153.6895142   7.4211760  69.8576889 153.8349762   7.9954753
  68.6108170 154.8615112   6.4322515  67.6453934 154.5764923   6.0141406
  68.5113297 156.1880341   7.1322036  69.4996719 156.3951263   7.5425615
  68.2111130 156.9400177   6.4024940  67.7933807 156.1253357   7.9499555
  69.6393433 154.8395691   5.3044949  69.6100540 153.9558716   4.6670713
  69.5895309 155.7163086   4.6587791  70.6352692 154.9855652   5.7227349
  67.8388901 153.5995331   8.5272141  66.7195663 153.4360046   8.1930723
  68.2703629 153.8353119   9.7370863  69.2705994 153.8910370   9.8656139
  67.4356918 153.5815735  10.9113216  66.4016190 153.4176788  10.6081238
  67.8250961 152.2538910  11.5743465  68.8358841 152.3406525  11.9729614
  67.0819321 152.0149689  12.3350782  67.7926941 151.0986023  10.6185303
  66.8971481 151.1468506   9.9990301  68.6295242 151.2144012   9.9297609
  67.8616714 149.5290070  11.3907547  68.2903519 148.4655151  10.0083284
  69.3547058 148.5499573   9.7889595  68.0809402 147.4409485  10.3157654
  67.6802368 148.6001129   9.1151667  67.2189102 154.6759338  11.8798065
  66.3117905 154.6074524  12.7226105  68.0290680 155.7428284  11.7646275
  68.6389847 155.7618103  10.9597988  67.8970261 157.0258179  12.5404978
  67.3332520 156.8508606  13.4568262  69.2442474 157.7282715  12.9757233
  69.0077133 158.5865326  13.6046486  70.0693436 156.7387543  13.8039827
  70.4105377 155.8946838  13.2046089  71.0167236 157.1091614  14.1956081
  69.4046097 156.3587494  14.5797634  70.1104813 158.2600403  11.8322344
  69.5824127 158.8923645  11.1184978  70.8768082 158.8894043  12.2847395
  70.5430984 157.4459839  11.2506552  66.9802856 158.0801392  11.8426781
  67.0844116 158.3092346  10.6299553  66.1505356 158.8023071  12.5679493
  66.1854858 158.6703033  13.5686779  65.1723709 159.7322388  12.0606966
  64.6294708 159.3463440  11.1978865  64.1362762 160.0155640  13.1282215
  63.6550636 159.0543518  13.3087864  64.7565308 160.3930969  13.9411554
  62.9832039 160.9381561  12.7538013  63.3061142 161.8009033  12.1711359
  62.3234215 160.3179321  12.1470652  62.1235161 161.6328278  14.1801424
  61.6622467 160.1352844  15.0254478  62.4992371 159.7978668  15.6367521
  60.8476906 160.4662170  15.6697168  61.3017731 159.3314819  14.3835421
  65.8800201 161.0765686  11.6119890  66.5271072 161.7636414  12.4399681
  65.7347565 161.3795624  10.3245468  65.1622086 160.8384857   9.6924572
  66.1637650 162.6055298   9.7699957  67.0789642 162.9351807  10.2617788
  66.4446640 162.4026489   8.2600927  67.1294022 161.5757294   8.0718603
  65.5088348 162.2399139   7.7254510  67.0796585 163.5812988   7.6013222
  66.5398331 164.5145111   7.7620015  68.5432205 163.7567749   8.0151110
  69.0155792 162.7745819   7.9989052  69.0299377 164.4598694   7.3391895
  68.5361557 164.0923462   9.0521488  67.0994110 163.3485413   6.0713396
  66.0916290 163.1125793   5.7295671  67.3192368 164.2758331   5.5422592
  67.7517395 162.5078735   5.8350329  65.0777893 163.6313324  10.0173531
  63.8791084 163.2907104   9.8685465  65.4510727 164.8296967  10.4355345
  66.4482880 164.9899292  10.4359283  64.6001053 166.0439911  10.5795650
  63.5466919 165.7878418  10.4664116  64.7922134 166.8276062  11.8802576
  65.8256226 167.1651001  11.8011293  63.8095055 168.0165863  12.0156221
  62.8304520 167.6423645  11.7164392  63.8598709 168.3900146  13.0384178
  64.0826035 168.7844391  11.2917929  64.6219025 165.9067230  13.0318098
  65.4001694 165.1551819  12.8992071  64.8375092 166.5222931  13.9051313
  63.3731995 165.0484924  13.2623281  63.2207375 164.4690552  12.3517771
  63.4555283 164.5234528  14.2139835  62.4868507 165.6821289  13.2306681
  64.9823380 166.9198608   9.2794409  66.1539154 166.9720764   9.0631104
  64.0446472 167.5477295   8.5278978  62.6168404 167.6436615   8.7067823
  62.3866615 168.2719879   9.5672007  62.2119560 166.6679688   8.9754848
  62.0633965 168.1516724   7.3537936  61.0757751 168.6126556   7.3680277
  62.0967560 167.3377075   6.6296062  63.1060753 169.1738586   7.0486698
  63.0812149 170.1033630   7.6174502  63.0899811 169.4354706   5.9906459
  64.4226456 168.5136414   7.4351425  64.7027588 167.9088135   6.5726929
  65.5013885 169.4919891   7.8526926  65.6509857 169.8023224   9.0334024
  66.2381744 170.0645905   6.8581100  65.9295273 169.9564362   5.9025292
  67.4280930 170.9552307   7.0690269  67.6397400 171.4551544   6.1238356
  67.1853714 171.8043823   7.7078686  68.6728134 170.2713928   7.5335503
  69.7595520 170.7850494   7.2976155  68.5474243 169.1052399   8.1966839
  67.5689392 168.8956146   8.3335772  69.6010590 168.2073517   8.6559238
  70.2967300 168.8095551   9.2402868  69.0316620 167.0154724   9.5467358
  68.4253464 167.4517975  10.3405218  68.4299850 166.3862000   8.8909178
  70.1339264 166.2111969  10.2125244  70.6321335 165.6508179   9.4214067
  70.8295975 166.9039307  10.6860628  69.5309525 165.2183533  11.2358093
  68.3247681 165.2076569  11.5069818  70.2563705 164.3027191  11.7953634
  69.8887711 163.5986938  12.4193163  71.2416458 164.2319031  11.5848408
  70.2685394 167.6726837   7.4201736  69.6664658 166.9657440   6.6436143
  71.5935135 167.8757629   7.3847756  71.9805298 168.4437408   8.1248550
  72.4592056 167.1390228   6.4199591  71.9379959 167.0805206   5.4644375
  73.7458496 167.9796143   6.1321754  74.2517395 168.1040039   7.0896249
  74.6512604 167.3280182   5.1127815  74.0728226 167.1768036   4.2013793
  75.5308609 167.9606476   4.9937639  74.9846573 166.3812408   5.5377307
  73.4924622 169.2616272   5.6651225  74.2691116 169.8067017   5.8111115
  72.7264099 165.7116547   6.8686409  72.8682632 165.3740845   8.0495672
  72.7406921 164.7614441   5.8921256  72.5421753 165.1284943   4.9723592
  72.8127213 163.3108673   6.0583210  73.0585251 163.0686340   7.0922475
  71.3798676 162.7895966   5.7231965  70.6851807 163.0935822   6.5062108
  71.0313950 163.2088470   4.7793217  71.3359833 161.2298126   5.5830116
  71.8048248 160.9150696   4.6506882  71.9627991 160.4622803   6.7187233
  71.6318741 160.9310760   7.6454420  71.7571335 159.3923187   6.6874385
  73.0504990 160.4913177   6.6542130  69.8541260 160.7341461   5.5523033
  69.3719254 161.2241516   4.7064404  69.7923050 159.6645508   5.3516779
  69.2993622 161.0223236   6.4452181  73.9136047 162.7484741   5.0285716
  73.6597290 162.6328735   3.8358324  75.0736008 162.4558716   5.5559845
  75.5726547 162.8294983   6.9187512  74.9423828 162.4128418   7.7044125
  75.6120453 163.9177856   6.9651752  76.9860153 162.3181152   7.1066942
  76.9554443 161.3279877   7.5614767  77.5916977 163.0023956   7.7008400
  77.4183350 162.0811310   5.6703777  78.1371841 161.2642212   5.6069760
  77.8323212 163.0346985   5.3426099  76.1222382 161.7158356   4.9491968
  76.2895432 161.9294281   3.8935058  75.8612289 160.2494659   4.9215899
  75.3913498 159.7017822   5.9423280  76.2433777 159.5476990   3.8332593
  76.6627808 160.0346985   3.0541391  75.8857269 158.0950775   3.5583830
  75.6639023 157.5474243   4.4743423  74.5231400 158.0610809   2.7890866
  74.6492386 158.8723450   2.0721114  74.4314346 157.1649323   2.1754160
  73.2546616 158.3335876   3.6044703  73.3265610 159.2832184   4.1346965
  72.0885544 158.5351105   2.6271298  71.9274445 157.6458588   2.0177302
  71.2062073 158.8205872   3.1999025  72.2942886 159.3737640   1.9619590
  72.8525238 157.2224579   4.6148138  73.5577545 157.2761993   5.4441862
  71.8406754 157.3077393   5.0110469  73.0348663 156.2940674   4.0735545
  77.0283051 157.4735413   2.7643905  77.6064224 158.0861206   1.8818704
  77.3850098 156.2025299   3.0370696  76.9307175 155.7827759   3.8355222
  78.2683640 155.3436737   2.2839496  78.4441605 155.7136536   1.2738456
  79.6146927 155.2625580   3.0857244  80.0332184 156.2688599   3.1021576
  79.4218979 154.8860168   4.0902896  80.7176895 154.3062286   2.4886060
  80.3992538 153.2637939   2.4929633  80.9432755 154.6800537   1.4898684
  82.0398712 154.4288635   3.2451572  82.0890808 154.7862396   4.4077921
  83.1241989 154.1662598   2.5582535  84.0513306 154.2383575   2.9523695
  82.9483719 153.7518921   1.6541076  77.6502075 153.9372559   2.1168985
  77.4071579 153.2014923   3.0928795  77.2633896 153.6351471   0.8744469
  77.5352097 154.2525940   0.1228000  76.4016418 152.5437317   0.4597365
  76.1038208 152.0210114   1.3686749  75.0957184 153.1701813  -0.1451634
  75.3366089 153.3198853  -1.1976174  74.3844757 152.3442230  -0.1397578
  74.3514557 154.3323212   0.5027478  75.0583420 155.1617432   0.5246365
  73.1419907 154.8217621  -0.3483859  72.5274582 153.9539185  -0.5877386
  72.6061859 155.5865021   0.2139185  73.5382309 155.2367554  -1.2751440
  73.8637314 153.9651184   1.9182172  74.6973190 153.8419189   2.6096368
  73.2941818 154.7636108   2.3937414  73.4095001 152.9762421   1.8559048
  77.0902863 151.5718231  -0.5565073  77.5113602 151.8578796  -1.7050956
  77.2444763 150.3169556  -0.0180033  76.9450684 150.2234039   0.9420511
  78.1080170 149.2495270  -0.4995919  78.4125900 149.4729156  -1.5220551
  79.3157120 149.1083832   0.4447966  79.9521179 148.3332214   0.0179445
  79.8902893 150.0344543   0.4258841  78.9502411 148.6874084   1.8830265
  78.5712128 149.6516113   2.8525944  78.4626007 150.6587372   2.4779909
  78.2810135 149.2330627   4.1563401  77.8431396 150.0060730   4.7704520
  78.4623947 147.9055939   4.5868521  78.2535248 147.5953674   5.6000285
  78.8283844 146.9540253   3.5932384  78.9005890 145.9190521   3.8932848
  78.9842682 147.3287506   2.2585835  79.1151199 146.5958710   1.4761674
  77.3936157 147.8896942  -0.6002604  78.0208359 146.9100342  -1.0371386
  76.1019440 147.7625122  -0.2164178  75.7129974 148.5065460   0.3450361
  75.2479095 146.6211548  -0.5769032  75.8423691 145.7083588  -0.6159015
  74.2263641 146.3220367   0.5186589  73.5872955 147.2029877   0.5788885
  73.6601639 145.4216614   0.2802210  74.9662399 146.0356750   1.8007423
  75.9487991 145.0861816   1.9152889  76.3547516 145.1837463   3.2060831
  77.2014465 144.6755829   3.6434433  75.6070175 146.0445862   3.8870227
  75.6425171 146.2929382   4.8653698  74.6573944 146.5251770   3.0293632
  73.8015060 147.1338348   3.2811284  74.5856094 146.8567047  -1.9470463
  74.1745529 147.9917908  -2.2186327  74.4473114 145.7907410  -2.8384109
  74.8098068 144.4013672  -2.6409895  74.4367294 143.9761047  -1.7092863
  75.8913574 144.3164978  -2.7465801  74.2606430 143.6221008  -3.8317735
  73.1999435 143.4446411  -3.6541889  74.7584152 142.6770325  -4.0489211
  74.3449631 144.6182556  -4.9486852  73.6279221 144.4978485  -5.7607555
  75.3106842 144.5545349  -5.4501152  74.1627274 146.0034332  -4.3164678
  74.8997955 146.6856384  -4.7400513  72.8215866 146.6221161  -4.5855041
  72.7342072 147.5899963  -5.3875299  71.7922897 146.2845306  -3.8150613
  71.7893295 145.4828033  -3.2007985  70.4967651 146.9119720  -3.9104614
  70.2565002 146.9831238  -4.9712687  69.3700180 145.9938202  -3.2001987
  68.4227448 146.3182983  -3.6308844  69.5616074 144.9670563  -3.5118856
  69.2290955 146.0682220  -1.7159284  69.3337250 147.1018219  -1.3860661
  68.1820450 145.8585968  -1.4972171  70.1565933 145.2307587  -0.9021158
  71.2257996 144.8714752  -1.2950101  69.8073654 144.9001770   0.3486551
  70.5310364 144.3717346   0.8146330  68.8391876 144.9951782   0.6201395
  70.4724503 148.3432007  -3.3300939  69.6260452 149.1361694  -3.7406228
  71.3803711 148.7332306  -2.4504564  72.0641403 148.0528717  -2.1510234
  71.5058365 150.1375275  -2.0155368  70.5212708 150.6050415  -2.0026364
  72.1528854 150.2394714  -0.6145925  73.1598206 149.8335571  -0.5175153
  72.1800842 151.2939301  -0.3399035  71.2969971 149.4675140   0.3982744
  70.2583847 149.6551514   0.1259126  71.5956116 148.4223785   0.3169788
  71.6565857 150.0263824   1.7931678  72.8087921 149.8033600   2.2889438
  70.8115158 150.7296448   2.4049120  72.1774292 151.0191345  -3.1293194
  71.6978760 152.0899811  -3.4589274  73.2555542 150.4770508  -3.7271125
  73.6522064 149.6399689  -3.3245416  73.8919067 151.0095825  -4.9355927
  74.2837448 151.9936523  -4.6783500  75.1197968 150.1628113  -5.3040490
  74.8116150 149.1312714  -5.4745574  75.8629532 150.7090454  -6.4969616
  76.2767410 151.6803894  -6.2261057  76.6565628 149.9975128  -6.7250128
  75.2066116 150.7679138  -7.3652120  76.1816711 150.0622406  -4.1987166
  75.8511429 149.6072235  -3.2650104  77.0316620 149.4362793  -4.4703341
  76.5491104 151.0550995  -3.9392400  72.9093781 151.1827545  -6.1179042
  72.8229980 152.2453308  -6.7530375  72.1521683 150.1264343  -6.4461598
  72.3724060 149.2385559  -6.0180645  71.2616653 150.0737305  -7.6156740
  71.8199692 150.3288422  -8.5164022  70.6223755 148.6567688  -7.8364811
  71.4174347 147.9114838  -7.8136015  69.9399567 148.4066620  -7.0241647
  69.9498138 148.6746826  -9.0843878  70.3641891 147.9575043  -9.5697222
  70.2152100 151.1933289  -7.5586081  70.1735001 152.0718384  -8.4101009
  69.4455872 151.2412262  -6.4661312  69.5083008 150.5261993  -5.7555614
  68.4128723 152.2735443  -6.2221308  67.5905304 152.1286163  -6.9227443
  67.8333054 152.0107117  -4.8060017  67.5442963 150.9599609  -4.7833147
  68.5980530 152.2481842  -4.0664940  66.4235153 152.6537628  -4.4750156
  65.7168198 152.4384308  -5.2764621  66.0320358 152.2117004  -3.5588117
  66.4480057 154.4747772  -4.3053379  67.1119919 154.5973969  -2.6637475
  68.1471786 154.2561646  -2.6564400  67.2507172 155.6075745  -2.2785227
  66.4430237 154.0230713  -2.0228646  68.8470230 153.7038574  -6.3974743
  68.1982727 154.4681854  -7.1814890  69.9467468 154.1435852  -5.7676935
  70.4099274 153.5091095  -5.1328702  70.4801407 155.4587708  -6.0182409
  69.6187592 156.0972137  -5.8219619  71.4132767 155.9749451  -4.9152212
  71.6052017 157.0404663  -5.0415192  70.9232483 155.7918243  -3.4692197
  70.8173294 154.7185822  -3.3110721  71.5857925 156.3074188  -2.7740254
  69.8992538 156.1471405  -3.3538697  72.7260742 155.2904816  -4.9433641
  73.1193237 155.3589478  -5.9576421  73.3820648 155.6505890  -4.1508346
  72.5568237 154.2257233  -4.7829852  70.9312134 155.7668152  -7.4089255
  70.6620331 156.8947296  -7.8978753  71.5028305 154.7918549  -8.1156769
  71.5315781 153.8675995  -7.7094302  71.8735809 154.9123688  -9.5013943
  72.5744324 155.7441559  -9.5724211  72.6105194 153.6900330 -10.0085239
  73.4459763 153.5657959  -9.3195591  72.0418854 152.7602234 -10.0235586
  73.1250992 154.0118713 -11.3814077  72.3976440 154.3085785 -12.1369753
  73.8649521 154.8118896 -11.3548717  73.9199677 152.7469177 -11.9750919
  73.1140442 152.0138855 -12.0105324  74.1691208 152.9875641 -13.0085878
  75.0961304 152.3861694 -11.1759977  75.5203323 153.1467590 -10.6644793
  75.6686401 151.2051697 -11.0727692  75.3855057 150.1639252 -11.7767220
  74.6869736 150.2628479 -12.4994688  75.7880859 149.2812958 -11.4956541
  76.6870193 151.0754852 -10.3285732  77.1908951 151.9202881 -10.0993443
  77.2374420 150.2344971 -10.2292738  70.6521606 155.2845001 -10.3798981
  70.6341248 156.2589874 -11.0747566  69.6014328 154.4823151 -10.2752485
  69.6623764 153.7067261  -9.6311646  68.3495483 154.5270081 -10.9184666
  68.4967422 154.4566345 -11.9961882  67.5066071 153.2433167 -10.5506735
  67.2562103 153.2759705  -9.4903259  66.5339050 153.3875427 -11.0209475
  68.1440125 151.9616547 -11.0675669  69.1712952 151.9796753 -11.7333908
  67.5363388 150.8035889 -10.8925457  68.0792542 149.9896545 -11.1432600
  66.7672195 150.7595520 -10.2393932  67.5444260 155.8649445 -10.6026163
  67.0431747 156.4179077 -11.5557632  67.5352249 156.3395691  -9.3496542
  68.0337601 155.7463837  -8.7018089  67.0434494 157.6223145  -8.9146929
  66.0306854 157.7182922  -9.3061152  67.0516281 157.4736176  -7.3278804
  66.3875351 156.6429443  -7.0890188  68.0479889 157.1865082  -6.9918494
  66.7282028 158.6938934  -6.5018620  67.2309113 159.5400085  -6.9703364
  65.2537384 159.0176239  -6.6910720  64.6445770 158.1812897  -6.3481808
  65.0190277 159.9157410  -6.1197786  64.9816666 159.3171234  -7.7031932
  67.0838394 158.4546509  -5.0250688  68.1311646 158.6082764  -4.7650499
  66.5746765 159.1325836  -4.3400407  66.7536469 157.4600372  -4.7253523
  67.9123383 158.8355408  -9.4007578  67.3553238 159.9064331  -9.7842407
  69.2911758 158.7177277  -9.4023848  69.6901779 157.7916260  -9.3455095
  70.1895142 159.8278351  -9.8185816  69.8924103 160.6480560  -9.1650705
  71.7603531 159.5307617  -9.5875521  71.8825912 158.5690918  -9.0891809
  72.5778046 159.5749054 -10.8455591  72.5351334 160.5523529 -11.3260365
  73.5903244 159.3577728 -10.5053234  72.1594162 158.8341827 -11.5270090
  72.2899170 160.6612091  -8.6699066  73.3585815 160.4964905  -8.5323753
  72.0538559 161.6066589  -9.1582651  71.7397919 160.7332916  -7.2697277
  71.8476486 159.8577271  -6.6295285  72.3007889 161.5301514  -6.7814608
  70.6889496 161.0104980  -7.3533359  69.9137955 160.3751984 -11.2563448
  69.9621658 161.6010742 -11.4194775  69.3643188 159.5341797 -12.1165028
  69.2161102 158.5896454 -11.7909546  68.8359375 159.9394684 -13.4416580
  69.5309906 160.6678314 -13.8593979  68.8495865 158.7067261 -14.3789654
  68.4366150 157.8621216 -13.8274221  68.0434570 158.8291473 -15.1023464
  70.1610718 158.3907928 -15.2008018  69.9455719 157.4773712 -15.7551785
  70.2018433 159.2178345 -15.9096241  71.4619141 158.1767273 -14.4176140
  72.2333450 159.1116028 -14.1483746  71.6124268 157.0140839 -13.8656397
  72.4205322 156.8206329 -13.2914915  70.9447250 156.2601471 -13.7891779
  67.4970551 160.7655487 -13.4657660  67.1315613 161.4651794 -14.4355030
  66.7756348 160.8056030 -12.3435678  67.1346436 160.3833466 -11.4992237
  65.4807205 161.4409027 -12.2119703  65.5073700 162.2486572 -12.9433498
  64.3338013 160.4293518 -12.4451551  63.3828773 160.8813934 -12.1631985
  64.3358994 160.2400818 -13.5185947  64.5186920 159.0604706 -11.7416849
  65.4792099 158.7008972 -12.1107540  64.5420837 159.2386627 -10.6666031
  63.4450798 158.0402222 -12.1204653  63.6113815 157.0572052 -11.6798820
  62.5202675 158.4429474 -11.7073812  63.3402596 157.8143311 -13.6803446
  62.9042130 158.6665955 -14.2015257  64.3330994 157.6091614 -14.0806847
  62.4980812 156.6082458 -13.9833803  61.5131378 156.8104706 -13.8879881
  62.5163574 156.3256683 -14.9528723  62.7508087 155.7653198 -13.4877129
  65.4599762 162.2453766 -10.8526669  66.2840347 163.2074890 -10.6624966
  64.4386215 162.0692444 -10.0539618  63.8160553 161.3053589 -10.2753038
  64.0097885 163.0446930  -8.9570045  63.7934074 164.0071411  -9.4206734
  62.6906319 162.5814056  -8.2978373  62.0749321 161.9494629  -8.9378872
  63.0022774 161.9517212  -7.4644814  61.7656021 163.7580261  -7.9356637
  62.0767975 164.9593964  -8.0113926  60.6658745 163.4852295  -7.4678068
  65.0347824 163.2619019  -7.7639880  64.8236465 164.2487335  -7.0588613
  66.0356445 162.3889618  -7.5461211  66.0264282 161.6561127  -8.2410736
  67.0416565 162.4138031  -6.4158821  67.5712738 161.4644012  -6.4948826
  68.1260986 163.5696564  -6.6283584  67.4756851 164.4403381  -6.5448289
  68.8583374 163.6759644  -5.8279691  68.7514877 163.5443573  -8.0350981
  69.3193283 162.6273193  -8.1922665  67.9437027 163.6371613  -8.7610292
  69.7138596 164.6842651  -8.1573620  70.4552536 164.7652283  -7.3624482
  70.3298950 164.4772949  -9.0324383  68.9459381 165.9947968  -8.3659487
  68.5864716 166.1862030  -9.2902040  68.7143707 166.8699799  -7.3914604
  69.3923340 166.8017273  -6.3013773  70.0987473 166.1303558  -6.0361633
  69.1302567 167.5554047  -5.6821847  67.7709656 167.7685852  -7.4852495
  67.1592407 167.7566681  -8.2888403  67.5593567 168.3889160  -6.7167950
  66.5596161 162.4513397  -4.9820213  67.3816833 162.5853882  -4.0523548
  65.2438354 162.4150848  -4.7178588  64.6258163 162.3359680  -5.5127797
  64.6627350 162.3239899  -3.3544557  65.4758987 162.6271362  -2.6949334
  63.3682365 163.1733704  -3.1201921  62.9702492 162.6024170  -2.2813063
  63.6364288 164.6269836  -2.8127191  64.0888290 165.1155243  -3.6757138
  62.6359520 165.0538483  -2.7424183  64.1963196 164.6142883  -1.8775940
  62.5650520 162.9872589  -4.2785416  61.6812744 163.3341370  -4.1363759
  64.3070679 160.8790131  -3.0856321  63.4406433 160.2600555  -3.7591856
  65.0106812 160.2893066  -2.1169226  65.7650375 160.8132019  -1.6967165
  64.5569687 159.1224670  -1.4371133  63.9367905 158.6042328  -2.1684861
  65.7765274 158.1793060  -1.1618350  65.4469299 157.1790924  -0.8807508
  66.2847366 158.0366058  -2.1154881  66.7595978 158.6730347  -0.2165501
  67.8039246 159.4892120  -0.7244626  67.8619690 159.7800903  -1.7629328
  68.8081436 159.9189148   0.1709819  69.6621552 160.5092468  -0.1266570
  68.7571716 159.6002045   1.5365741  69.4522552 160.0050201   2.2572653
  67.7424164 158.7288055   2.0155253  67.8189926 158.3254089   3.0144327
  66.7522278 158.2793427   1.1547246  65.9929352 157.6470337   1.5906777
  63.8089333 159.5416107  -0.1678829  63.6887093 160.7432709   0.1336283
  63.2562866 158.5789948   0.5209277  63.2633057 157.6172943   0.2124004
  62.6958084 158.7588654   1.8573600  62.9096184 159.7623749   2.2252820
  61.1322632 158.5711823   1.7656945  61.0144539 157.5337524   1.4526813
  60.6464691 158.7990112   2.7144847  60.7371674 159.2010345   0.9686450
  63.4661789 157.9587250   2.9740801  63.9647942 156.8518829   2.7261682
  63.5220871 158.6325073   4.1453581  63.0192833 159.5039368   4.2342486
  63.9139786 158.0964355   5.4812493  64.2964096 157.0793915   5.3947291
  65.0533829 158.9754028   6.1466470  64.8256607 160.0379639   6.2314343
  65.4165573 158.4954071   7.5670438  65.7512283 157.4707489   7.7287769
  66.2451172 159.0700531   7.9810157  64.5917130 158.7089539   8.2468576
  66.2612305 158.9160919   5.2539907  66.2070160 159.6141663   4.4186082
  67.1634903 159.2720184   5.7513189  66.5493088 157.9398499   4.8640614
  62.7041435 157.9991608   6.3668165  61.9802094 159.0019073   6.5486183
  62.3790207 156.8609467   6.9595613  62.9117737 156.0429688   6.7003493
  61.2039528 156.7975464   7.8297739  60.3562317 157.4066010   7.5158858
  60.7268448 155.3650970   7.8416710  61.5777550 154.7025299   7.9999399
  60.1512909 155.1689758   8.7463112  59.9592819 154.8352051   6.6107073
  60.4714050 155.1456146   5.6999512  60.0070343 153.3200378   6.6120992
  59.4305534 152.7191315   7.3154373  59.6354103 152.9215851   5.6680512
  61.0606384 153.0417175   6.6356230  58.5013275 155.3605804   6.6076417
  58.5282555 156.3996429   6.2794385  58.0177155 154.6949310   5.8927097
  58.0737114 155.1747437   7.5928874  61.5447884 157.1849365   9.3252029
  62.6843109 157.1376190   9.7340584  60.5860214 157.7309113  10.0116386
  59.6949425 157.8948975   9.5653353  60.5547218 157.8847351  11.4838486
  61.5867500 158.0961761  11.7636919  59.7377167 159.1376495  11.8619080
  58.7479553 159.1739807  11.4067554  59.5715637 159.1706696  12.9386644
  60.3544197 159.9552765  11.4887199  60.0095329 156.5582428  12.1174583
  58.8518372 156.2599792  12.1338472  60.9688148 155.7310181  12.5125980
  61.9364357 155.9713440  12.3511887  60.6844902 154.4121094  13.1032839
  59.9360580 153.9563904  12.4550028  61.8802261 153.4695129  13.1065531
  62.7498665 153.9894409  13.5084352  61.6681404 152.5377502  13.6309032
  62.3063202 153.1134491  11.6664028  61.5664368 152.1327057  10.9852257
  60.6765366 151.6561890  11.3691740  61.9121590 151.7057037   9.6938000
  61.3068848 151.0018768   9.1418219  62.9321785 152.3992004   9.0827494
  63.1932449 152.1589050   7.7533493  62.6105499 151.5165100   7.3417730
  63.6385040 153.3980408   9.7374744  64.4696503 153.8347473   9.2037182
  63.4065056 153.7446747  11.0689812  63.9553452 154.5741272  11.4899015
  60.0909767 154.4376678  14.5199480  60.8214417 154.6768341  15.5161877
  58.7724075 154.1517639  14.6791992  58.2932014 154.0105743  13.8013992
  57.9890747 153.9185181  15.9314985  58.2817345 154.6888123  16.6450157
  56.5057220 154.1484375  15.6634645  55.9976311 154.0576630  16.6235180
  56.3318863 155.1519012  15.2749224  56.0937386 153.1421814  14.6784840
  55.2026138 152.8675079  14.9066391  58.2997856 152.5457458  16.5783634
  58.0853386 152.4396362  17.8296127  58.9486809 151.6228027  15.8739653
  59.0247192 151.7885742  14.8805695  59.6420135 150.4485016  16.4428215
  60.1212425 150.6382751  17.4032555  58.6286163 149.3204041  16.8421154
  57.9213295 149.7680969  17.5402660  58.0342636 149.0784912  15.9610291
  59.1198006 148.1416321  17.5582867  60.1792374 147.5466461  17.2458572
  58.2683792 147.5768890  18.3883018  58.5776825 146.6997986  18.7821789
  57.3376312 147.9333801  18.5517883  60.5724182 149.9172516  15.3894148
  60.2054176 149.3558350  14.3327799  61.8692703 149.9592133  15.6851330
  62.1780281 150.2664642  16.5963821  62.8588753 149.6203308  14.6911182
  62.5492439 149.9958191  13.7158031  64.0965805 150.4540253  14.9594345
  63.7758217 151.4857788  15.1033888  64.8753357 149.9312439  16.1828136
  65.2783508 148.9477386  15.9411077  65.7178802 150.5530396  16.4854355
  64.3053284 149.9586792  17.1114864  65.0258102 150.4264526  13.7676516
  64.4694901 150.9623260  12.9985991  65.9445877 150.9280701  14.0714979
  65.2300873 149.3770599  13.5551414  63.0401382 148.0623932  14.6626625
  63.2936783 147.5843964  13.5865631  62.8106194 147.2614441  15.7587109
  62.6533813 147.7014618  16.6541233  62.8635788 145.7485504  15.7524595
  63.8607597 145.4729767  15.4092522  62.6956978 145.2615509  17.2078724
  63.4750595 145.7392578  17.8015881  61.7736282 145.5576019  17.7081146
  62.9030838 143.7554779  17.2820129  62.2925720 143.2588196  16.5278893
  63.9746628 143.6974487  17.0910854  62.6760864 143.2253876  18.7141647
  62.9407768 143.9456024  19.4883213  61.5932617 143.1244202  18.7876129
  63.4496765 141.9730530  18.9085026  64.4339600 142.0629272  19.1163635
  63.0413628 140.7465210  18.9504070  61.8190765 140.4327545  18.6527843
  61.1347923 141.0116425  18.1872139  61.5598755 139.4579926  18.6002636
  63.8929329 139.7789459  19.2996044  64.8832474 139.9654541  19.3674088
  63.5083885 138.8452454  19.3203716  61.7514458 145.1631317  14.8050137
  62.0242920 144.2180328  14.0657644  60.5677643 145.7735748  14.8254099
  60.4794540 146.5099182  15.5110340  59.3784599 145.3399048  14.0663071
  59.5468750 144.3074036  13.7602139  58.1155891 145.3816528  14.9709301
  57.9201508 146.4428558  15.1250677  57.2694664 144.9778290  14.4149618
  58.1946945 144.7121124  16.3384132  59.0410500 145.1392212  16.8763390
  57.3533134 144.9241180  16.9981327  58.2289162 143.1352844  16.2667847
  57.6127930 142.4613495  15.4243383  58.9162102 142.5189514  17.1000500
  59.1540337 146.1201477  12.7660732  58.3402214 145.6968689  11.9764128
  59.9798508 147.1504669  12.5531559  60.6557579 147.3388062  13.2796412
  60.0498581 147.9894409  11.3560228  60.6516151 148.8629608  11.6069574
  60.6639099 147.2944031  10.1229858  59.9480629 146.6832886   9.5732565
  60.9487572 148.0333557   9.3740349  61.8699722 146.3955841  10.3868179
  62.3787880 146.6126251  11.3260183  61.4748344 145.3804474  10.4250250
  62.9912148 146.3368073   9.2563810  63.7620239 145.5915833   9.4528427
  62.4130249 146.0977478   8.3638306  63.6028366 147.6600800   9.1162214
  63.2368774 148.3704224   9.7339373  64.6430664 147.9469299   8.3676729
  65.3530197 146.9773560   7.9008670  65.1391983 146.0411377   8.2137022
  66.0903168 147.1310730   7.2279096  65.0466614 149.1688690   8.0944042
  64.5711975 150.0084076   8.3931274  65.8793793 149.2810822   7.5339670
  58.6907883 148.6896515  11.0943518  58.1746445 148.7121124   9.9694347
  58.1355972 149.2471008  12.1756878  58.7201996 149.2035675  12.9981537
  56.9906616 150.1335144  12.1445389  56.3651543 149.9729767  11.2664328
  56.0104904 149.8535309  13.3414946  56.5781784 150.1035461  14.2377758
  55.1906815 150.5544739  13.1843224  55.5016060 148.3854980  13.4419727
  55.0008430 148.1721802  12.4976006  56.3129845 147.6713562  13.5825500
  54.4856300 148.2659912  14.5933266  54.7131119 148.9705048  15.6252823
  53.5778427 147.3763885  14.5637741  57.4625435 151.5639954  12.0145607
  58.4443130 152.0233917  12.6194391  56.7027168 152.3300018  11.2109566
  56.0351715 151.9281311  10.5683107  56.9399147 153.8086700  11.0005693
  57.2650185 154.2801056  11.9280233  58.1011467 153.9013824   9.9816647
  57.9127426 153.2523346   9.1264801  58.2305107 154.9572754   9.7440586
  59.0745354 153.6588898  10.4080515  55.7053108 154.5351105  10.4517469
  55.1403618 154.0845337   9.4313374  55.3155975 155.5520020  11.2000723
  55.8546638 155.8783264  11.9893923  54.0753250 156.2510376  10.9117928
  53.4258919 155.5605469  10.3736801  53.3199654 156.5798492  12.2200098
  54.1027489 157.0331268  12.8282013  52.3929024 157.0927887  11.9639997
  52.8138123 155.3755493  12.9680853  51.8067245 154.5572205  12.4910412
  51.5668793 153.6770172  13.4964294  50.9010162 152.8288879  13.4356585
  52.2079506 154.0439758  14.6126213  52.3104134 153.4886475  15.4500036
  52.9463463 155.1285095  14.2814026  53.4623947 155.7551575  14.9937201
  54.2925644 157.5688629  10.1185503  53.3747597 158.1208191   9.5222158
  55.5280075 158.0541687   9.9321022  56.3228493 157.4994049  10.2159319
  55.9222679 159.3274384   9.3077002  55.2337379 159.4973145   8.4799509
  55.8480721 160.5024109  10.3435497  56.5947647 160.3390961  11.1206474
  56.0126534 161.4533386   9.8368568  54.5038147 160.6650543  11.0505676
  53.6187897 161.6480865  10.5856438  53.7930069 162.2241821   9.6888971
  52.4064293 161.8818665  11.2199183  51.7433586 162.6608734  10.8736792
  52.1214485 161.1738129  12.3752308  51.1820450 161.1971130  12.9075661
  53.0503120 160.2617493  12.9028959  52.8964958 159.8018799  13.8679209
  54.2055016 159.9936218  12.2453804  54.9186935 159.3381348  12.7229805
  57.3617477 159.2555084   8.7769690  58.0051079 158.2421112   8.9064903
  57.9142799 160.3729553   8.2830486  57.3128700 161.1720581   8.1421289
  59.3228836 160.4296112   7.9644661  59.9095573 160.3755951   8.8815250
  59.5528412 159.6460876   7.2424407  59.6606216 161.7534332   7.2787800
  58.8403473 162.6960907   7.3520975  60.8283463 161.8293304   6.6459332
  61.4065018 161.0021820   6.6865449  61.3582497 163.0032654   5.9309483
  60.5243073 163.6614227   5.6870527  62.3093605 163.7544556   6.8618789
  62.8040733 162.9907990   7.4620371  63.3274879 164.5591583   6.0588479
  62.8528481 165.2123413   5.3266125  63.8058891 165.2836151   6.7179360
  64.0786591 163.9220428   5.5920458  61.5273476 164.7041168   7.5302253
  60.8814735 164.2385864   8.0666246  61.9819565 162.5401459   4.6249862
  62.6592712 161.5589142   4.5272360  61.6601257 163.2459869   3.5336149
  60.9954529 163.9962616   3.6577513  62.2784309 163.0259552   2.1853490
  62.4714088 161.9697571   1.9974393  61.4744377 163.6717529   0.9876260
  61.9668083 163.4770203   0.0348687  59.9978828 163.1646118   0.9140975
  59.3919983 163.6254578   1.6942432  59.6860847 163.3964386  -0.1043057
  59.8466225 162.1026001   1.1073692  61.2109299 165.0112915   1.1904125
  62.0886688 165.4001007   1.1923357  63.6103668 163.6649170   2.1909099
  63.7838936 164.8497620   2.3982115  64.6856766 163.0048676   1.7706759
  64.4966965 162.0835114   1.4025706  66.0309753 163.4587250   1.5967296
  66.2054749 164.4114227   2.0967531  66.9497986 162.4762573   2.3721530
  66.7815781 161.4438019   2.0658567  67.9879303 162.7583313   2.1965985
  66.7717133 162.4862671   3.4474609  66.4735794 163.5834961   0.1123464
  66.4591599 162.5872345  -0.6125861  66.9241714 164.7507935  -0.3170655
  66.9653931 165.5278931   0.3267623  67.4988861 164.9860535  -1.6127272
  67.1222153 164.2229614  -2.2938399  67.0696106 166.3186188  -2.1684916
  65.9809113 166.3517303  -2.1267450  67.4031143 167.1612854  -1.5628572
  67.4807129 166.5619049  -3.6003287  68.5255203 166.2865295  -3.7440329
  66.9704361 165.9642334  -4.3556476  67.3265381 168.0503082  -4.0327520
  66.3190155 168.7363281  -3.6741323  68.2590637 168.5618744  -4.6520033
  68.9642487 164.8798676  -1.5529355  69.6646805 165.3675232  -0.6857893
  69.5007935 164.0839081  -2.4909072  68.8913879 163.5281982  -3.0739317
  70.8951187 163.9387665  -2.8037350  71.4604034 163.8250122  -1.8787389
  71.1631241 162.5799713  -3.5720944  70.5935669 162.6159821  -4.5007529
  72.7116547 162.5198364  -3.8880346  73.3051682 162.7071838  -2.9931941
  73.0503845 161.6507568  -4.4520040  72.9712601 163.3085480  -4.5941949
  70.7354660 161.3376312  -2.7542503  71.3295822 161.2177124  -1.8482963
  69.6963425 161.4616394  -2.4493914  70.8186188 160.0612030  -3.6729207
  71.7778625 159.9132080  -4.1689534  70.6708069 159.1301117  -3.1258347
  69.9668198 160.0841522  -4.3526273  71.4296646 165.1798401  -3.4831989
  71.1084976 165.4051056  -4.6454902  72.3592758 165.8808289  -2.7875681
  72.5294266 165.6498718  -1.8191658  73.0061188 167.0570831  -3.4375563
  72.4855194 167.2579193  -4.3739009  72.8621597 168.3135071  -2.5427980
  72.9589310 169.1702728  -3.2096579  71.8226852 168.4182281  -2.2319572
  73.7832184 168.5178375  -1.3450954  74.9169312 169.3325806  -1.3443017
  75.1414566 169.8656006  -2.2563791  75.6745224 169.5384216  -0.1684409
  76.5503998 170.1698303  -0.1919007  75.2291031 168.9606934   1.0462544
  75.8979874 169.1785126   2.2498312  76.3611755 170.0162354   2.1773419
  74.1045685 168.1037292   1.0652642  73.7446213 167.6171417   1.9597360
  73.4330826 167.8609772  -0.1672808  72.5384293 167.2578735  -0.2149887
  74.4562531 166.7762451  -3.8799758  74.9896011 167.5303345  -4.7112150
  75.1070938 165.7064514  -3.3107040  74.6466599 165.1910706  -2.5741751
  76.5007858 165.2967072  -3.6920912  76.5565872 165.7671509  -4.6737576
  77.5342789 166.0805054  -2.9304955  77.5479660 165.7951050  -1.8786114
  78.5275345 165.9667206  -3.3647764  77.3862915 167.1466980  -3.1020129
  76.7101517 163.7834930  -3.7409434  76.2491684 163.0796356  -2.8839700
  77.3425522 163.3160706  -4.8621416  77.5095520 164.0484924  -5.5372515
  77.3537445 161.9394989  -5.3552046  77.1557159 161.3268127  -4.4757142
  76.1472702 161.7947845  -6.2677636  75.2451096 162.0900116  -5.7320018
  76.3468323 162.4369659  -7.1255994  76.0598221 160.4641266  -6.9885211
  75.1003799 159.5148621  -6.5154238  74.4938583 159.7618866  -5.6566343
  74.8897247 158.3459930  -7.1975288  74.0501099 157.6802063  -7.0627265
  75.6673660 158.0334320  -8.3433447  75.3668671 156.9741821  -9.1660061
  74.7182312 156.3886261  -8.7685232  76.7122803 158.9297180  -8.7369823
  77.2929153 158.6819153  -9.6132603  76.8387756 160.1537933  -8.1121550
  77.5141907 160.8820801  -8.5362034  78.7243576 161.4549713  -5.9117546
  79.3893433 162.2288055  -6.6233611  79.1549683 160.2236176  -5.5677691
  78.4928055 159.6700897  -5.0431418  80.4309540 159.6186829  -6.0267754
  80.7010498 159.9707947  -7.0223470  81.5030289 160.1279907  -5.0849905
  81.3347092 161.1614685  -4.7821875  81.5114746 159.6166229  -4.1224284
  82.9414825 159.9910889  -5.5894742  83.2758026 158.9537048  -5.6027908
  83.0086517 160.3078003  -6.6302814  83.9619598 160.8456573  -4.8677011
  83.5344315 161.8265381  -4.6598516  84.2364273 160.3272552  -3.9490001
  85.0792236 161.1692810  -5.7255597  84.9654083 162.0521393  -6.2027535
  86.3063507 160.6464844  -5.7456331  86.7069397 159.6269073  -5.0952272
  86.0330429 159.0196533  -4.6511354  87.6252441 159.2102356  -5.1519070
  87.1763458 161.1026306  -6.5686975  87.0154266 161.9600220  -7.0776978
  88.0636292 160.6203613  -6.5841951  80.4088516 158.0600586  -6.1526365
  80.0527649 157.3517456  -5.2118659  80.6270676 157.5038452  -7.3861847
  81.0094910 158.1757812  -8.0360785  80.6569748 156.0543365  -7.6480823
  80.1603165 155.4514923  -6.8878183  79.9782333 155.7879028  -8.9594822
  80.2279053 156.5488434  -9.6988964  80.3609390 154.8011780  -9.2202206
  78.4282074 155.7012939  -8.9044075  78.1304703 155.2466736  -7.9595385
  78.0424194 156.7162628  -8.9998417  77.8829346 154.8717346 -10.1333113
  77.2021790 153.8736725  -9.8063107  78.1673355 155.2254333 -11.3331785
  82.1197128 155.4993134  -7.5877347  82.9623260 156.0154724  -8.3408985
  82.3497543 154.5097809  -6.7639117  81.5467911 154.0795898  -6.3277121
  83.6862869 153.8307648  -6.6169300  84.2699127 154.1018219  -7.4967122
  84.6203537 154.3705597  -5.5280104  84.0146942 154.1812744  -4.6417484
  85.5748291 153.8606415  -5.3973932  84.9166641 155.8890991  -5.6361566
  85.6326599 156.1050262  -6.4291434  84.0009918 156.4712219  -5.7399468
  85.5776215 156.4313965  -4.3460646  86.5950317 155.8583832  -3.8895292
  85.3348465 157.5653534  -3.8713853  83.6451187 152.2586212  -6.7101507
  82.6262283 151.6095581  -6.5280905  84.7674026 151.5825043  -7.0485578
  85.5842056 152.1063690  -7.3287458  84.9073792 150.1572418  -7.3631978
  84.2588806 149.5605469  -6.7217131  84.4663391 149.9506073  -8.8661671
  83.4550476 150.2740936  -9.1126499  85.1340408 150.6077728  -9.4233084
  84.6858749 148.4978485  -9.3650990  85.7693558 148.3788910  -9.3616228
  84.2185440 147.7665558  -8.7056141  84.3233566 148.1952209 -10.8546314
  84.8093948 147.2186584 -11.4627113  83.5472870 148.9785309 -11.5312672
  83.3161469 148.7678070 -12.4916201  83.2557373 149.8508759 -11.1140022
  86.3527145 149.6956787  -6.9503489  87.4042130 150.0049286  -7.5884399
  86.4469452 148.8596344  -5.8601332  85.5960007 148.4606171  -5.4903169
  87.7286377 148.3787842  -5.2413168  88.4211807 148.2278748  -6.0693936
  88.3101654 149.3102722  -4.1108971  87.4846649 149.5663300  -3.4467602
  89.0291061 148.8444214  -3.4369464  89.0237808 150.5113525  -4.6993008
  89.7934952 150.0249023  -5.2984686  88.3435898 151.0184174  -5.3836455
  89.7756424 151.4631348  -3.7362037  89.1298218 152.2751160  -3.0234210
  91.0487289 151.4156342  -3.6888583  87.4715958 146.9636688  -4.6027088
  86.3505859 146.6827850  -4.2493329  88.4641418 146.0624390  -4.5870848
  89.3539886 146.3247223  -4.9864426  88.3168335 144.7039490  -3.9979122
  89.3070602 144.2484131  -4.0039330  88.0086060 144.7379913  -2.4818890
  86.9409485 144.9358521  -2.3866479  88.0498734 143.7217712  -2.0898609
  88.7573547 145.6593475  -1.5253420  90.0063171 145.2767792  -0.9813924
  90.4577560 144.3744049  -1.3665169  90.7214432 146.0906525  -0.1200335
  91.7055817 145.8669281   0.2644387  90.1679840 147.3968201   0.2826735
  90.8728867 148.1784363   1.1725042  91.7375412 147.8041687   1.3566122
  88.9292603 147.7553406  -0.2692041  88.4673233 148.7076721  -0.0545085
  88.1953964 146.9063721  -1.1368486  87.2393265 147.2418976  -1.5106745
  87.4300156 143.7035217  -4.7259359  87.2324982 142.5486298  -4.3377814
  86.9238739 144.0320587  -5.9075379  87.1968460 144.9708405  -6.1610670
  85.8549881 143.3523254  -6.6175513  85.7874908 143.5775909  -7.6818819
  86.1028595 142.2909698  -6.6320553  84.4613647 143.5969391  -6.0601225
  83.6287308 142.7398987  -6.3247786  84.2273407 144.6785583  -5.2638183
  85.0186539 145.2530365  -5.0110340  82.8688126 145.1875000  -4.9907870
  82.1969910 144.4696655  -5.4613872  82.5281754 145.2776642  -3.4944482
  81.4725876 145.5263367  -3.3848999  82.7181091 143.8857422  -2.8514411
  83.7613907 143.6167450  -2.6861880  82.3605118 143.7472382  -1.8311243
  82.2942886 143.1488800  -3.5337217  83.3359756 146.3426971  -2.7790489
  84.3565826 145.9811096  -2.9044070  83.1926193 147.2940216  -3.2914340
  82.9777756 146.6028595  -1.3091273  83.0736465 145.6087494  -0.8725041
  83.7625885 147.2286682  -0.8842230  81.9904556 147.0561676  -1.2206410
  82.5632858 146.4956207  -5.6602411  83.4943695 147.3117828  -5.8024769
  81.2994232 146.7263641  -6.0752382  80.5802689 146.0758820  -5.7927542
  80.8162613 148.0852356  -6.4098530  81.6170578 148.6155396  -6.9252205
  79.7082520 148.0274506  -7.4629760  78.9351120 147.3983002  -7.0219231
  79.4755630 149.0730896  -7.6644721  80.1313477 147.3340912  -8.7946053
  81.2010269 147.5012512  -8.9208736  80.1156082 146.2485657  -8.6972036
  79.2925415 147.7616119  -9.9973450  78.3826447 148.6256866  -9.9524260
  79.5695267 147.1933136 -11.0877571  80.3910599 148.8493805  -5.1231394
  79.8590546 148.2613525  -4.2220993  80.5780411 150.1499176  -5.0473180
  81.1056595 150.6161957  -5.7714057  80.1627884 151.0698242  -3.9197128
  79.2478333 150.6644287  -3.4877169  81.2659454 151.0306244  -2.7950332
  81.4215546 149.9672546  -2.6130068  82.6221466 151.5708008  -3.2694240
  82.4995270 152.4743652  -3.8666019  83.2033081 151.8250275  -2.3830173
  83.2120209 150.8594208  -3.8474422  80.9115753 151.8004150  -1.7565068
  81.4662628 151.5879822  -1.0023214  79.8169098 152.5308990  -4.3202405
  80.3191528 153.0179443  -5.3272948  79.0272980 153.2327423  -3.5883114
  78.7219543 152.7308502  -2.7667511  78.7180634 154.6553650  -3.8397844
  79.5901566 155.0483856  -4.3623562  77.3416748 154.7450104  -4.6486778
  77.2072754 154.1528931  -5.5539060  76.1055374 154.3895111  -3.9137967
  75.8823471 155.1754456  -3.1922753  75.3048630 154.0876923  -4.5890222
  76.2905731 153.4675446  -3.3625786  77.1171722 156.1458282  -5.1925168
  77.8755417 156.3590240  -5.9458547  76.1260605 156.3669891  -5.5886183
  77.2183990 156.8579407  -4.3735189  78.6419754 155.4698944  -2.5666957
  78.2096252 155.0429077  -1.5137779  79.2328262 156.6830597  -2.6277156
  79.4630814 156.9197388  -3.5822115  79.2203293 157.6925659  -1.5233250
  78.8297729 157.2325287  -0.6156219  80.6881027 158.1868286  -1.3591802
  80.9836044 158.5400543  -2.3471150  80.7516174 159.1239319  -0.8060846
  81.6744308 157.0908051  -0.9228934  81.5961838 156.7742004   0.1171729
  81.4964981 156.1859741  -1.5040281  83.0911942 157.6137695  -1.1622804
  83.2218018 158.0950928  -2.1314926  83.2888107 158.3391876  -0.3730882
  84.0959091 156.4394226  -0.9587895  84.0049591 156.0506134   0.0554394
  83.9062729 155.7014313  -1.7382091  85.4861221 156.8790588  -1.0972620
  85.6965103 157.5787201  -0.3998955  86.0685577 156.0890961  -0.8588768
  85.7690048 157.1641693  -2.0239730  78.2731476 158.8933258  -1.8181289
  78.3266602 159.4316559  -2.9088266  77.3567810 159.1902161  -0.8897433
  77.3350677 158.7080688  -0.0025211  76.4158630 160.3488770  -1.0740569
  76.9050827 160.9506683  -1.8399702  75.0242386 159.9123993  -1.5617149
  74.4944534 160.8641205  -1.6023307  75.0029297 159.2301636  -2.9246838
  75.6242676 158.3346863  -2.9369273  73.9837799 158.9887238  -3.2265759
  75.5036926 159.9096527  -3.6143606  74.2479706 158.9379425  -0.6787665
  73.9984589 159.4723053   0.2379174  73.3604355 158.5369415  -1.1682389
  74.8703156 158.0747223  -0.4428808  76.2974854 161.2339630   0.1648210
  76.3655777 160.8116760   1.2887236  75.9302521 162.5020905  -0.0880557
  75.8418579 162.7137451  -1.0716683  75.3490295 163.5102081   0.8859336
  75.2415619 163.0919037   1.8867172  76.2934494 164.7551880   0.9818672
  76.4865952 165.1088257  -0.0309182  75.7641983 165.5243988   1.5442789
  77.5949249 164.3996735   1.7301449  77.3915329 164.5879364   2.7843196
  77.8120193 163.3383789   1.6091999  78.7671204 165.2463074   1.2315432
  79.6763306 164.8997192   1.7227767  78.9222488 164.9684906   0.1890230
  78.7171097 166.7449951   1.2747397  78.0280609 167.2083588   0.5686241
  78.3851624 167.0643616   2.2626235  80.0498581 167.2930603   0.9040521
  80.4855499 166.6346436   0.2741698  79.9972992 168.1990967   0.4608272
  80.6773758 167.3783722   1.6908481  73.9609146 163.9216003   0.4001288
  73.6761703 164.1536560  -0.7855715  73.0741425 163.9593964   1.4011288
  73.3475800 163.7133484   2.3417618  71.6168289 164.2368317   1.2211761
  71.4696350 164.6504211   0.2234894  70.7659760 162.9293976   1.2650589
  70.6605530 162.5565491   2.2838655  69.7906570 163.1323090   0.8227054
  71.3039017 162.1372681   0.7442258  71.2769547 165.2394104   2.2634077
  71.9285660 165.3685608   3.2707107  70.1323090 165.8357391   2.0557935
  69.7465363 165.8303833   1.1223849  69.6426620 166.8820190   2.9870477
  69.9470901 166.5858154   3.9908841  70.3689957 168.1896057   2.6870832
  71.4424896 168.0137634   2.6179225  70.0011368 168.7909088   1.3136468
  68.9746857 169.1572113   1.3315659  70.7340698 169.5183105   0.9646623
  70.1370087 168.0327759   0.5423508  70.0479126 169.2826691   3.7396884
  68.9780121 169.4384155   3.6013050  70.3744278 168.8453827   4.6832323
  70.7586594 170.6620483   3.5832884  70.3849106 171.2237396   2.7271824
  70.4876556 171.3425598   4.3904805  71.8453445 170.5940399   3.5323737
  68.1111450 166.9869232   2.9277816  67.5162201 166.8231659   1.8723743
  67.4499130 167.0535583   4.0864182  68.0666122 167.0540161   4.8862848
  65.9763489 166.8767700   4.2161059  65.6512222 165.9796143   3.6893311
  65.7467422 166.7249146   5.2707744  65.0820847 168.0033264   3.6848893
  65.1466522 169.1830292   4.1047673  64.1683807 167.7067413   2.7083993
  64.1125717 166.7492981   2.3917272  63.2354965 168.7485199   2.0626745
  63.7203979 169.7203674   2.1547778  63.0128288 168.3061523   0.6497735
  62.5072174 167.3415070   0.6936781  62.2845192 169.0076599   0.2428981
  64.1850281 168.3417358  -0.3796461  65.0934143 167.8646240  -0.0117987
  63.8600121 167.6996155  -1.1982719  64.4704971 169.7420502  -0.9162162
  64.7588043 169.6044464  -1.9583523  63.5548401 170.3008728  -1.1095634
  65.5120010 170.5621490  -0.2483056  65.0667877 171.1257477   0.4618093
  66.7901993 170.8437958  -0.5771160  67.3914642 170.1620789  -1.4476919
  66.8346252 169.5626373  -2.0398877  68.3655167 170.3189697  -1.6637969
  67.5010300 171.7548523   0.0831807  67.0613022 172.4012146   0.7226772
  68.4518661 171.9794617  -0.1728977  61.8992653 168.9131622   2.8864563
  61.5935974 170.0625763   3.2314231  61.1912460 167.7913666   3.1718860
  61.5131645 166.8538208   2.9782646  59.7038231 167.7860565   3.5400608
  59.4204025 168.6652527   4.1186628  58.8563232 167.4465332   2.3193758
  59.1538506 166.4396057   2.0266945  57.8391914 167.5204315   2.7041879
  58.8930626 168.5073395   1.1705793  58.1210289 169.2648926   1.3054630
  59.8103065 169.0933838   1.2280865  58.7960625 167.8800507  -0.2315190
  58.2607231 168.4744873  -1.1600956  59.4760323 166.8107300  -0.6359222
  59.2361107 166.4474335  -1.5472720  60.0884666 166.2405853  -0.0702826
  59.4176788 166.6750183   4.5018330  60.0010834 165.5864410   4.4524250
  58.5279465 166.8327026   5.5207505  58.0403862 167.7125702   5.6113129
  58.0885048 165.7518616   6.3351765  58.9721642 165.1435547   6.5280867
  57.6160126 166.2887421   7.6719775  56.7326241 166.9078522   7.5157146
  57.3716812 165.3908234   8.2395582  58.6650124 167.1010437   8.4913816
  59.4206963 166.3752289   8.7917786  59.0116959 167.8732910   7.8046999
  57.9240036 167.6087799   9.7180595  57.3342628 166.8258362  10.1948290
  58.6515198 167.9750366  10.4424133  57.0494385 168.7924652   9.4885674
  57.3800621 169.4684906   8.8149405  56.0145988 169.2464905  10.1961651
  55.4660950 168.4506683  11.0821180  55.9485474 167.5992126  11.3318796
  54.8699684 168.8668976  11.7831726  55.4922676 170.4544067  10.0464268
  56.0217857 171.1228790   9.5052757  54.6259270 170.7621918  10.4645414
  56.8978233 165.0602112   5.6689973  56.0633392 165.7825165   5.1483717
  56.5791016 163.8102417   5.9315410  57.2404251 163.1498718   6.3145018
  55.2703209 163.2344360   5.5661206  54.6555977 164.1176910   5.3926983
  55.4189072 162.3994141   4.2435799  54.4740334 161.9028625   4.0228014
  55.6152611 163.0443726   3.3870852  56.4832115 161.3154144   4.2578502
  56.3103561 160.1455536   5.0459032  55.4273949 159.9538116   5.6375213
  57.3487854 159.2007294   5.1052699  57.2280350 158.3488007   5.7579865
  58.5414772 159.3997498   4.3932495  59.3072701 158.6513367   4.5340695
  58.6559677 160.4893799   3.5243447  59.5845451 160.5961609   2.9832830
  57.6300583 161.4731445   3.4843628  57.6944008 162.3810272   2.9029744
  54.6179466 162.4251709   6.6876078  55.3217506 161.8198090   7.5047302
  53.2511711 162.2841034   6.5859160  52.8364639 162.8550415   5.8633213
  52.4970970 161.0623322   7.0679383  52.9080849 160.7701416   8.0342808
  50.9686165 161.4308319   7.2762361  50.9941559 162.3896027   7.7941232
  50.4402542 161.5658722   6.3324680  50.2845345 160.3742828   8.1495810
  50.5534325 159.3507690   7.8883581  50.5065880 160.5571442   9.2009382
  48.7811890 160.4100342   8.0229368  48.4051361 160.3227844   7.0035887
  48.3512764 159.5265503   8.4948807  48.0984535 161.6360168   8.6757650
  48.4405785 161.7030640   9.7085075  48.3046112 162.5623016   8.1394854
  46.5726852 161.5152893   8.6092434  46.1955032 160.6491852   8.9666204
  46.1875687 162.2512207   9.1838722  46.2581787 161.7542267   7.6796746
  52.6850281 159.8908081   6.0721421  52.5733681 160.0264893   4.8577175
  52.7338219 158.6360016   6.6157794  52.5711441 158.5392914   7.6078887
  52.6634865 157.3752899   5.8855138  53.1490402 157.4585724   4.9131942
  53.5053101 156.2734070   6.6600914  53.2200317 156.2337036   7.7113490
  53.5105743 154.8389282   6.1601090  53.6092606 154.8415833   5.0745878
  54.2340775 154.2135315   6.6831136  52.5753517 154.3350220   6.4041204
  54.9928665 156.6820831   6.6040788  55.1834602 157.6918488   6.9675951
  55.5248451 156.0884247   7.3475032  55.3674736 156.6690979   5.5805540
  51.2257309 156.8415070   5.6551933  50.3036690 157.0334015   6.5120230
  51.0834236 156.0450287   4.6083708  51.8711891 155.9286804   3.9870875
  49.8220558 155.4177094   4.1207609  49.0077667 155.4517670   4.8445535
  49.3589363 156.1454468   2.8594191  50.0261421 155.8806915   2.0391459
  48.4271584 155.6520691   2.5828724  49.1690941 157.6348267   2.9869368
  49.9558105 158.0729523   3.6011145  49.2596397 158.2826538   1.6225187
  48.3679466 158.1318054   1.0140479  49.3220940 159.3671112   1.7128631
  50.1843452 158.0836945   1.0808189  47.7551765 157.9032745   3.5575104
  47.7325020 157.5594635   4.5916214  47.5585823 158.9753876   3.5643485
  46.9920464 157.4026947   2.9615700  49.9208450 153.9254150   3.7663352
  49.0358505 153.1743927   4.1294956  51.0385895 153.4508209   3.1912210
  51.7421608 154.1174927   2.9072518  51.3613396 152.0232849   3.0165491
  51.0293999 151.4741821   3.8976941  50.6713829 151.4137726   1.7541491
  49.6280670 151.2580109   2.0286057  50.8852768 152.2297516   1.0638349
  51.2412148 150.0982819   1.1519800  52.2540245 150.3182220   0.8144264
  51.1681786 149.3367615   1.9284229  50.4399796 149.5662231  -0.0259436
  50.4480629 150.1737213  -1.1342916  49.7870789 148.5453491   0.1066657
  52.8730507 151.8449249   2.9116039  53.5677032 152.7652588   2.3840756
  53.4253616 150.6631470   3.2890701  52.9053040 149.8798981   3.6580853
  54.8366928 150.3480225   2.9604812  55.2791023 151.1605377   2.3841221
  55.7547951 150.2828979   4.2033868  55.4614449 149.4869232   4.8878345
  57.2002182 150.0195007   3.8251588  57.6243820 150.7382660   3.1240575
  57.7873764 150.1314697   4.7366443  57.4021454 149.0353851   3.4022560
  55.7595673 151.6671143   4.9088426  56.4169579 152.3304596   4.3467827
  54.7447166 152.0644684   4.8916774  56.2458687 151.6876221   6.4156055
  57.2321320 151.2285614   6.4837480  56.1708641 152.6891632   6.8391657
  55.6195068 151.0961151   7.0833626  54.9458656 149.0082245   2.2112150
  54.6347885 147.9582520   2.8123381  55.4173889 149.0192108   0.9529920
  55.5567703 149.9329529   0.5458793  55.5872993 147.8538666   0.0305396
  55.0593643 146.9718781   0.3931367  54.9977875 148.1678009  -1.3541455
  53.9476585 148.4467316  -1.2673886  55.5374527 149.0431213  -1.7156359
  55.1852608 146.9666748  -2.3519378  56.2338867 146.6751099  -2.2929807
  54.4579124 146.1831512  -2.1394198  54.9769592 147.4624023  -3.7898443
  53.9406357 147.7938843  -3.8550334  55.7387238 148.2245178  -3.9541080
  55.2044334 146.2921295  -4.7175360  55.3027802 145.4032898  -4.2480760
  55.1561928 146.2800140  -6.0240407  54.9533005 147.3820343  -6.7240486
  54.8263359 148.1517487  -6.0825467  54.6802635 147.4434204  -7.6945033
  55.3642502 145.1464691  -6.6675978  55.6311035 144.2652588  -6.2524219
  55.3991623 145.2133484  -7.6747766  57.0672607 147.4363556   0.0368704
  57.8391190 148.2644348  -0.4192638  57.4379005 146.1864777   0.2508728
  56.8123055 145.4063568   0.3928120  58.7925720 145.7675781  -0.1315363
  59.5804520 146.5108643  -0.0095553  59.3166580 144.6202698   0.7715830
  58.6523972 143.7561646   0.7855226  60.7174416 144.1109924   0.4540760
  61.2702141 145.0495148   0.4125510  61.1073227 143.5474548   1.3017373
  60.6396065 143.6179657  -0.5149283  59.3739700 145.1243134   2.1098468
  58.7114944 144.6502228   2.6177540  58.7759743 145.2931366  -1.6027902
  57.8600006 144.5384216  -2.0022690  59.8358841 145.5943756  -2.4187627
  60.4561958 146.3141022  -2.0762830  60.1395264 144.9104462  -3.6656761
  59.2307091 144.4038544  -3.9905169  60.4746399 145.9269104  -4.7365756
  61.2628136 146.5503998  -4.3144941  60.9793739 145.3957825  -5.5435691
  59.3899918 146.7767334  -5.3049660  58.6312866 146.0686340  -5.6382227
  59.0185127 147.3737946  -4.4721303  59.7488708 147.6732788  -6.4966044
  59.6538467 148.9182434  -6.3855100  60.1054688 147.0878601  -7.5870690
  60.3731842 147.6580505  -8.3765640  60.2362289 146.0973206  -7.7348495
  61.2786789 143.8278503  -3.5221429  62.1359901 143.8336792  -2.6410265
  61.3114815 142.9343719  -4.5225425  60.7596092 143.1264954  -5.3463297
  61.9917221 141.6226196  -4.5373993  61.7551804 141.0278625  -3.6551173
  61.5192947 140.8279266  -5.7517643  61.9141502 141.3220062  -6.6394949
  62.0619087 139.8838959  -5.8016024  60.0901070 140.6909027  -5.6957965
  59.7513771 140.1955719  -6.4451394  63.4965591 141.7804565  -4.6521788
  64.1775360 140.8592834  -4.1909547  64.1175079 142.8177185  -5.1828761
  63.6333046 143.6004791  -5.5987124  65.5576172 143.0057526  -5.0115628
  66.1189270 142.0731964  -5.0694046  66.0395813 143.9971771  -6.0737004
  67.0857086 143.7928009  -6.3016052  65.6439362 143.8611450  -7.0802102
  65.8857193 145.4863586  -5.7801337  64.9483032 145.7422333  -5.0064917
  66.6864395 146.2986603  -6.2893119  65.9999237 143.4425354  -3.5997922
  67.2172165 143.5684662  -3.2622342  65.0253830 143.7559662  -2.7142906
  64.0702896 143.6641998  -3.0296993  65.2179794 144.0253296  -1.2659031
  64.5783539 143.3013611  -0.7610731  66.2554398 143.9010925  -0.9555093
  64.8272400 145.3605347  -0.6559927  64.9794006 145.5751190   0.5450826
  64.4311066 146.3746338  -1.4870985  64.4418106 146.1365662  -2.4685812
  64.1677017 147.7531128  -1.1178839  64.6953354 147.9919891  -0.1944992
  64.6504059 148.8021393  -2.1313953  64.4325790 149.7205811  -1.5863099
  66.1607819 148.7336121  -2.2640140  66.5273056 147.8481293  -2.7833202
  66.5917206 149.6174164  -2.7344103  66.5774765 148.6185455  -1.2634015
  63.9558067 148.7113190  -3.6082165  64.6996613 148.4894562  -4.3734326
  63.3839951 147.7833557  -3.6058214  63.0528603 149.8481598  -4.0103235
  63.6097031 150.7248840  -4.3410597  62.4061852 149.4499664  -4.7922130
  62.4586563 150.2008057  -3.1673203  62.6714325 147.9667053  -0.8414347
  61.8385811 147.2031097  -1.2837158  62.3242149 148.9969788  -0.1009097
  63.0610008 149.6393280   0.1533379  60.9331779 149.3888397   0.2282544
  60.2634506 148.5765381  -0.0541219  60.7745094 149.4648132   1.7330552
  61.3322601 150.2767639   2.1996822  59.7009697 149.5889740   1.8751746
  61.1212044 148.1987000   2.5333560  60.6392365 147.3536377   2.0417538
  62.2032585 148.0711670   2.5018163  60.7007904 148.1700134   3.9812295
  60.6908188 149.2263336   4.6497335  60.3006325 146.9402313   4.3759952
  59.8920135 146.7941589   5.2880259  60.0704346 146.2550354   3.6705785
  60.4616928 150.5867615  -0.5906376  61.2544785 151.5032043  -0.9016059
  59.1492882 150.5777588  -0.8309739  58.6651993 149.7104950  -0.6476507
  58.4196396 151.6961212  -1.3976271  59.1484985 152.4907074  -1.5572531
  57.7638969 151.3077545  -2.7217016  57.1239319 150.4345551  -2.5949471
  57.1084862 152.1576080  -2.9121623  58.7941360 150.9117889  -3.8540449
  59.6175842 150.2883759  -3.5056407  58.1990013 150.3764648  -4.5938787
  59.3887711 152.1080170  -4.5927224  59.3709145 153.2686157  -4.2565680
  59.7554741 151.9073029  -5.8381219  60.1546822 152.6989136  -6.3219399
  59.6176376 150.9755249  -6.2026906  57.4454422 152.1582489  -0.2821442
  56.7877922 151.3304901   0.3598045  57.4662895 153.4641266  -0.0213862
  58.1327324 154.0592194  -0.4923546  56.4671097 154.0676117   0.8957798
  55.9360504 153.2359619   1.3588556  57.2056847 154.7954712   2.0629694
  57.5870323 155.7679443   1.7515931  56.5288849 154.9957428   2.8935916
  58.0745316 154.2355652   2.4089589  55.4978752 154.9871826   0.1051332
  55.9213219 155.9696655  -0.4904836  54.1789970 154.7176514   0.1426402
  53.8941307 153.8629913   0.5992516  53.1805038 155.6978607  -0.2545664
  53.6703453 156.1584930  -1.1124622  51.8577118 155.0945740  -0.6350183
  51.7136002 154.2146301  -0.0080964  51.1050644 155.8729401  -0.5094609
  51.9671783 154.7307892  -2.1025970  52.5103493 155.4612274  -2.7021892
  52.4077225 153.7337799  -2.0994134  50.5459900 154.7093201  -2.6627707
  49.9024811 154.1372986  -1.9943391  50.1803284 155.7335663  -2.5899310
  50.5594292 154.3308105  -4.1376987  49.5910873 154.5933533  -4.5637069
  51.3087425 155.0000763  -4.5604286  50.7326851 152.8641357  -4.3443599
  49.9064064 152.3632812  -4.0502214  50.8046761 152.6789398  -5.3346219
  51.5212517 152.4900360  -3.8361158  52.9578552 156.7224121   0.9194422
  52.7509346 156.2384186   2.0608072  53.0083351 158.0376587   0.6593138
  53.2434235 158.2559967  -0.2983705  53.0939598 159.0448456   1.7536827
  52.8115349 158.4995117   2.6542115  54.6055222 159.5012665   1.8351634
  54.6677971 160.1254425   2.7265825  55.5188713 158.2794800   2.1583598
  55.6496239 157.6405334   1.2850047  56.4856949 158.6196594   2.5293474
  55.1114616 157.6967621   2.9845371  55.2621841 160.2610321   0.7012262
  54.6618843 161.1055450   0.3628125  56.2610550 160.5630188   1.0161003
  55.4219933 159.6901550  -0.2134699  52.2263451 160.2604370   1.3558823
  51.8680420 160.4763031   0.1952472  52.0519447 161.1984558   2.3493743
  52.2467384 160.8925476   3.2920198  51.4354706 162.5480652   2.2440031
  51.2836266 162.6721497   1.1717867  49.9521599 162.4980927   2.8013394
  49.3805466 161.7991638   2.1907160  49.9326553 162.2115479   3.8528247
  49.3344841 163.8794250   2.7718976  49.8573036 164.6722717   3.3068476
  49.2544060 164.1676483   1.7237417  47.9778442 163.9643097   3.3619211
  47.0852013 163.1131287   3.3034999  47.6263008 165.0244751   3.9825754
  46.7510834 165.0310059   4.4866109  48.3092232 165.7685699   3.9878287
  52.3223991 163.6873016   2.8666947  52.6044006 163.6956024   4.0881548
  52.8800926 164.5865631   2.0864928  52.4779587 164.6470184   1.1619706
  53.7469673 165.6732178   2.3653154  54.6121254 165.2334900   2.8615355
  54.4056473 166.3160400   1.1243114  53.5260162 166.4920349   0.5051351
  55.0707703 167.6693115   1.2957394  55.9666443 167.6142731   1.9141890
  55.3275185 168.0567169   0.3097893  54.3798294 168.3731232   1.7598122
  55.4833717 165.4016571   0.3970972  56.0209961 165.8424683  -0.4423967
  56.2658157 165.2835693   1.1467201  55.0923157 164.0319824  -0.0712521
  54.4603767 164.0839844  -0.9578443  55.9678459 163.5258636  -0.4779439
  54.7844086 163.4144897   0.7725429  53.0303040 166.6943817   3.2900689
  51.9786186 167.3755341   2.9574349  53.5978050 166.8823395   4.4718723
  54.4032860 166.3122253   4.6869688  52.9786034 167.7752686   5.4441838
  51.8926430 167.7832336   5.3507710  53.3824348 167.3544769   6.8413162
  54.4682693 167.2593231   6.8387523  53.1825523 168.0192108   7.6817093
  52.8305321 165.9238281   7.1877146  53.0402832 165.2231445   6.3795280
  53.4141693 165.3611450   8.5502691  53.4956818 166.1930542   9.2498312
  52.7119370 164.6226044   8.9369726  54.3832397 164.8710022   8.4566307
  51.3028069 165.9525146   7.3702626  50.8943977 166.2815857   6.4147439
  50.9369469 164.9645691   7.6499095  50.9120331 166.6088715   8.1478176
  53.4078712 169.2703247   5.2893271  54.5376167 169.6197968   5.0858841
  52.4026794 170.1718445   5.2339859  50.9830017 169.9418030   5.2168999
  50.6758347 169.4994812   6.1645818  50.7730370 169.3470001   4.3279533
  50.3189621 171.3221283   5.1657119  50.1234398 171.6159821   6.1969838
  49.4684868 171.3732452   4.4858761  51.3960724 172.2434387   4.6589923
  51.2437286 173.2523041   5.0424752  51.4084435 172.2697449   3.5693800
  52.7052650 171.5581512   5.0614381  53.3574905 171.7004089   4.1997676
  53.2662811 172.1462097   6.3652444  52.9254074 171.7574005   7.4723387
  54.0587463 173.1456909   6.2371731  54.4239006 173.5170593   5.3718143
  54.2442398 174.0669556   7.3885889  54.3981628 173.4444427   8.2699938
  55.4445610 175.0825958   7.1127892  55.3750191 175.4392090   6.0851207
  55.3971481 175.8851013   7.8488784  56.7631302 174.2635803   7.3265042
  56.7568741 173.4545593   6.5960646  57.5583420 175.0036011   7.2364244
  56.9068146 173.7955475   8.7315550  57.4886475 174.5580444   9.5296478
  56.5869942 172.6076508   8.9611835  52.9582901 174.8771973   7.5348802
  52.3811836 175.4607391   6.5796294  52.4891586 174.9800415   8.7689323
  52.8971748 174.5111389   9.5650187  51.2143097 175.7368774   9.1185236
  50.6097031 175.7466888   8.2116299  50.4029465 174.9957886  10.1559925
  51.0124817 174.9070740  11.0552702  49.5564461 175.6499329  10.3648748
  49.9808159 173.5686951   9.7293673  49.5700417 173.5418243   8.7200890
  50.8456078 172.9060669   9.7635365  48.8569412 173.1358032  10.6624517
  48.5065346 172.1450653  10.3730736  49.1305275 173.1388855  11.7175541
  47.7218819 174.0281219  10.5294094  47.6274605 174.3306122   9.5704088
  46.7816162 174.4389038  11.3605433  46.7053757 174.1414337  12.6104975
  47.5189896 173.6628113  12.9697514  45.9251518 174.3554230  13.2151127
  45.8356781 175.2597961  10.9279585  45.9252434 175.7019806  10.0243263
  44.9971619 175.4049225  11.4719534  51.5811958 177.1611481   9.4646778
  51.3774338 177.6445465  10.6057892  52.0218086 177.9134674   8.4438839
  52.1080132 177.5547180   7.5036879  52.7963028 179.1766968   8.7342939
  53.5762253 178.9541168   9.4624958  53.5978317 179.6758881   7.5262957
  52.8905487 179.8556671   6.7166471  54.2908745 181.0649414   7.7031665
  55.1987724 180.9515686   8.2955885  54.4922028 181.3894501   6.6822538
  53.6805687 181.7948303   8.2350483  54.6442108 178.6738281   6.9228458
  54.0704765 177.8082886   6.5915327  55.0976067 179.2203217   6.0958767
  55.4366531 178.4471436   7.6361117  51.7876320 180.2393799   9.2531185
  50.9975967 180.7165222   8.4032145  51.6609650 180.5096130  10.5323343
  52.2351112 180.0666809  11.2353687  50.7246437 181.4816589  11.0175505
  49.8132706 181.2781372  10.4553423  50.3443375 181.2103729  12.4594297
  51.2241402 181.1450958  13.0995741  49.7099648 182.0504150  12.7422638
  49.6234283 179.8893127  12.6462221  50.3294182 179.1880951  12.2012997
  49.2009354 179.6746979  14.1378012  48.3497963 180.2503967  14.5014353
  48.8870621 178.6427002  14.2945652  50.0568047 179.9516602  14.7533436
  48.2926292 179.7706604  11.8790159  48.5053177 179.7849121  10.8100615
  47.9505196 178.7624512  12.1126328  47.6184692 180.5730286  12.1787062
  51.1753197 182.8972778  10.7195110  52.3100395 183.3026428  10.9976234
  50.2744102 183.8227997  10.2216263  48.8885345 183.5911255   9.7597828
  48.4665070 182.8618622  10.4512854  48.9085083 183.1665802   8.7560549
  48.0813560 184.8815765   9.7150154  47.6098633 185.0777893  10.6779795
  47.3837776 184.9637756   8.8815098  49.3114929 185.7877808   9.4870214
  49.0489235 186.8228455   9.7056980  49.6677246 185.7453308   8.4577522
  50.4696770 185.2588959  10.3466339  51.3867607 185.5796356   9.8524828
  50.4125290 185.6864166  11.8420057  50.3021011 184.8789673  12.7970181
  50.5727806 186.9905701  12.1223307  50.5919838 187.6528168  11.3599892
  50.6676407 187.5958862  13.4301023  51.4510727 187.0726166  13.9782972
  51.0749931 189.0836945  13.3152437  52.0737610 189.1490173  12.8836222
  50.4142685 189.6274872  12.6400890  51.1888123 189.7301941  14.5849590
  51.4928551 190.6400757  14.6206560  49.3290329 187.3469238  14.2967081
  48.2040977 187.3661041  13.8413773  49.5123177 187.1778107  15.6067238
  50.3647804 187.4481659  16.0760975  48.4236832 186.9771576  16.5745373
  47.8319016 186.0977173  16.3205929  49.1631203 186.8356628  17.9205914
  48.4999428 187.0102386  18.7678375  49.8337669 185.4325256  18.0113373
  50.3883286 185.2409210  17.0927277  50.4535522 185.3871002  18.9068298
  49.0618095 184.6632538  17.9908066  50.2178040 187.8512573  18.0602169
  50.9443436 187.4771118  18.5639591  47.5508881 188.1929474  16.8455067
  46.3815689 188.0153046  17.1715584  47.9956779 189.3913116  16.5060005
  48.9495163 189.3719330  16.1744556  47.2350922 190.6284180  16.5924683
  46.3746567 190.5151520  17.2519588  48.1654053 191.7769928  17.2042446
  48.9903526 191.8809204  16.4994335  47.6709480 192.7478485  17.2367115
  48.8142967 191.5982666  18.6310978  48.9923325 190.5296478  18.7514381
  49.7305183 192.1681671  18.7855091  47.7258682 192.1036072  19.9834690
  46.6868858 190.5544739  20.2489452  47.2786751 189.6399994  20.2891788
  46.1655807 190.6447906  21.2019348  45.8659363 190.4229126  19.5440788
  46.6949806 191.1203156  15.2527695  45.7816162 191.8968506  15.3125229
  47.2873001 190.7068024  14.1209879  48.0826302 190.0851135  14.0884161
  46.9297218 191.2979279  12.7947264  47.1996193 192.3539734  12.7891130
  47.9353867 190.7480316  11.7520847  47.8590202 191.4478302  10.9198885
  48.9225998 190.8700714  12.1977606  47.6323280 189.4001007  11.2381954
  47.5031166 189.3276215  10.2896948  45.4180183 191.0787201  12.4879189
  44.8169899 191.8607025  11.7843533  44.8141479 190.0590820  13.0396271
  45.3934402 189.4446716  13.5937195  43.3782158 189.6208649  13.1087179
  42.9512100 189.5974426  12.1061125  43.4397049 188.1921387  13.5961905
  44.0177231 188.2292023  14.5195656  42.4378700 187.7891083  13.7444525
  44.0199661 187.5666656  12.9178295  42.4209671 190.5340424  13.9661102
  41.2019043 190.3011322  13.9926882  42.9211044 191.5621796  14.6806574
  43.9278946 191.6129913  14.7430992  42.1847763 192.4956512  15.5528040
  41.1564598 192.5638123  15.1978083  42.0056763 191.9044647  17.0153999
  41.5809860 190.9114838  16.8680439  43.3599930 191.7630005  17.6944523
  43.7967758 192.7210846  17.9762325  43.2274628 191.2972870  18.6710033
  44.0728378 191.0774078  17.2362957  41.1238670 192.8005524  17.8469505
  40.1062775 192.7758942  17.4570694  41.0808296 192.3421631  18.8349419
  41.5949554 193.7830353  17.8768597  42.7071381 193.9729462  15.4487581
  41.9017525 194.9039459  15.5870752  43.9850540 194.1764221  15.2238760
  44.6123352 193.3894348  15.3092308  44.5348511 195.4915619  15.0857973
  44.1066093 196.2013855  15.7935066  46.1003838 195.4928131  15.3360109
  46.3705902 196.5487976  15.3351088  46.3918571 195.0994568  16.3098793
  47.0718842 194.8747253  14.2918406  47.0356255 193.8343658  14.6149712
  46.6656914 194.9694672  13.2847986  48.5283203 195.3316956  14.2730665
  49.1170425 195.7739716  15.2445335  49.2154694 195.1829987  13.1480274
  50.1857605 195.4634094  13.1502848  48.7106361 194.9235840  12.3125916
  44.2110062 196.2475128  13.7750273  45.0273552 196.9953156  13.2162409
  43.0395470 195.9956970  13.2021313  42.3830185 195.3937683  13.6783133
  42.6049423 196.7373352  12.0094376  43.4747696 196.8510437  11.3624649
  41.5084534 195.9327698  11.2789087  40.6921158 195.8472290  11.9961090
  41.1405449 196.5257416  10.4415731  42.0551147 194.5844574  10.6984091
  43.1444702 194.6141815  10.6755772  41.5419006 193.4107056  11.5278130
  40.4740143 193.2103119  11.4408751  42.0452347 192.4737396  11.2893591
  41.7960281 193.5039368  12.5836658  41.5064278 194.3325195   9.3042784
  41.7240868 195.1645660   8.6346369  41.8953133 193.4501190   8.7961025
  40.4194107 194.2523651   9.3130236  42.1529961 198.1779327  12.3447857
  40.9720535 198.5739594  12.3099947  43.1049690 199.0011597  12.7448835
  44.0330658 198.6029053  12.7561569  42.9346352 200.3844757  13.2033749
  42.0631676 200.8006897  12.6979904  42.6507988 200.4650116  14.7304668
  42.4986801 201.5202637  14.9571629  41.7789230 199.8317261  14.8944330
  43.7852516 199.7965546  15.6272240  44.1193542 198.8608856  15.1789045
  44.6685638 200.4338226  15.6690016  43.3512268 199.4347992  17.0254040
  43.7067146 198.4081421  17.5605068  42.6639481 200.1941681  17.8278294
  42.2383652 199.6599121  18.5718403  42.4559708 201.1381531  17.5350113
  44.1814117 201.1446075  12.7571507  45.2086639 200.4936981  12.5035076
  44.1756287 202.4492493  12.8863077  43.3475838 202.9039612  13.2436314
  45.3003159 203.3326874  12.4350967  45.5357513 203.3544312  11.3710489
  44.8986778 204.7910461  12.8178673  45.6989555 205.4369507  12.4566641
  43.9498711 205.1042938  12.3822756  44.7214127 204.8732910  14.2207727
  43.8736267 205.3043671  14.3512926  46.6811752 203.0858459  13.0364771
  47.7143021 203.5318298  12.4310942  46.7749748 202.4557953  14.2361288
  45.9214554 202.1330719  14.6690884  48.0415497 202.0411530  14.9097614
  48.7708893 202.8450470  14.8102055  47.7299614 201.7205963  16.3590488
  46.7197189 201.3123779  16.3297577  48.4501266 201.0010834  16.7486172
  47.8401604 202.9222260  17.2905655  48.8388824 203.3461151  17.1857891
  46.8276634 204.0024872  16.9981194  45.8584518 203.5468140  16.7953911
  46.6978111 204.6982269  17.8270893  47.2296066 204.5406647  16.1396847
  47.6914482 202.4414978  18.6995411  48.2867851 201.5417328  18.8547840
  48.0136719 203.1712341  19.4423447  46.6400642 202.2002563  18.8560448
  48.8127708 200.8329468  14.2469063  50.0045280 200.7201385  14.5777073
  48.1689529 199.9876251  13.3931255  47.2048912 200.1517029  13.1406212
  48.8555107 198.7881927  12.8575697  48.9020042 198.1172028  13.7153053
  47.8927040 198.2788086  11.7443190  47.8752975 197.2044220  11.5612965
  46.8852005 198.4685364  12.1145096  48.0144119 198.9642181  10.5140905
  47.3382530 199.6220856  10.3362637  50.3202934 198.9326782  12.3021584
  51.2476883 198.1357422  12.5023384  50.5135727 200.1050110  11.6262989
  49.7263336 200.6993408  11.4092054  51.8020744 200.6244812  11.0637369
  52.2944717 199.7990112  10.5496836  51.4828568 201.7486420   9.9722881
  52.3381500 201.8612366   9.3060322  50.6654701 201.3647766   9.3618546
  51.1293449 203.0213776  10.7843161  50.3401527 202.7300720  11.4774361
  51.9757576 203.4186096  11.3445883  50.4186516 204.2588501  10.1752138
  51.0080719 204.7295532   9.3883677  49.5365219 203.8118591   9.7168026
  49.9671173 205.1397095  11.2336140  49.4638863 204.8468475  12.0588951
  49.9730492 206.4366913  11.1478758  50.2973442 207.1174469  10.1330795
  50.6158218 206.7200317   9.2608776  50.3304062 208.1251678  10.1923676
  49.6120949 207.1083832  12.1677227  49.5797462 206.6525269  13.0684166
  49.6921463 208.1141052  12.1207151  52.9425545 201.0648956  12.0908842
  53.8875885 201.7449951  11.6742096  52.8279839 200.8043213  13.3951492
  51.9882660 200.4353333  13.8180151  53.8651886 201.0970459  14.3313456
  54.3232613 202.0638580  14.1227093  53.3422852 201.1163025  15.7229500
  52.6795006 200.2696228  15.9016972  54.1252136 201.0039825  16.4729538
  52.4943581 202.4759827  15.8254395  53.1064415 203.3152313  15.4950962
  51.6322556 202.4929657  15.1586637  51.9899368 202.7403412  17.2033253
  51.0840073 203.3463898  17.1934776  51.7089424 201.7861328  17.6490116
  52.8247070 203.4083862  18.2097645  53.5520515 203.9462280  17.7605362
  52.5518036 203.5640411  19.4584045  51.5915642 202.9063873  20.0442715
  51.0027809 202.3019257  19.4892330  51.5967445 202.8380432  21.0519447
  53.3389740 204.2755890  20.2287197  54.0643730 204.7902069  19.7501163
  53.1095390 204.4144897  21.2024574  54.9635735 199.9918365  14.2446709
  54.9931717 198.9815979  14.9274321  55.8367615 200.3367920  13.3097982
  55.8108978 201.2840424  12.9603128  56.7325668 199.5371246  12.5136471
  56.3604126 198.5199585  12.6359882  56.5791054 199.8429565  10.9703159
  55.5970764 200.2513428  10.7316999  57.3539085 200.5992126  10.8444109
  56.7357140 198.6929932  10.0367823  57.4560585 198.7782898   8.8238077
  57.2615166 197.6575012   8.1410770  57.6920547 197.3667450   7.1942430
  56.3923607 196.9116364   8.8155403  56.1994286 195.9801636   8.4760656
  56.0814705 197.4874420   9.9877501  55.4076538 197.1295319  10.7521219
  58.1825714 199.5151978  13.0023918  58.5726852 200.2823792  13.8727417
  59.0061302 198.5970612  12.5014782  58.6644974 198.0600586  11.7172565
  60.0878906 197.9419098  13.2866945  59.9474068 198.0255127  14.3643656
  59.9840317 196.4258118  12.9611664  60.7368622 195.9830322  13.6133118
  58.6757431 195.8200836  13.3901472  57.9473648 196.0695343  12.6185665
  58.7134590 194.7328491  13.4580326  58.3319817 196.1906128  14.3558750
  60.3632393 196.1449127  11.4902706  59.5717621 196.4387970  10.8008509
  61.2243576 196.7207489  11.1511745  60.7431870 194.6502686  11.1964731
  60.0576706 193.8659058  11.5173120  60.9115410 194.5275421  10.1265688
  61.6593895 194.3436737  11.7011261  61.5548401 198.4786377  13.1129980
  61.8638649 199.1527252  12.1061602  62.5595169 198.2487335  13.9862747
  63.4057274 198.7325897  13.7218533  62.9220543 197.1045532  14.8803682
  63.8756027 197.3764954  15.3330231  62.0283775 196.9438324  16.0612907
  61.0817070 196.5079651  15.7420120  62.5907707 196.2522583  16.6886253
  61.7779121 198.1625671  16.8531570  62.7573586 199.1779327  17.1416054
  63.7855110 199.1072693  16.8186455  62.3927383 200.2896881  17.9726982
  63.1148148 201.0673981  18.1731682  61.1012230 200.3894958  18.5568619
  60.9049416 201.2175293  19.2218685  60.2260094 199.3354340  18.3924618
  59.2621346 199.3363037  18.8796406  60.4837837 198.3202362  17.4202633
  59.7291527 197.5592346  17.2867641  63.1279716 195.7626648  14.0681839
  63.3281937 195.8022614  12.8531132  63.2907486 194.5562592  14.6723070
  62.2035370 193.8471069  15.2603273  61.2868080 193.9821930  14.6863432
  61.9500160 194.2508850  16.2405281  62.6527672 192.4138031  15.2110767
  62.4306984 191.8788605  14.2877064  62.1677589 191.8659821  16.0190125
  64.1473694 192.4165192  15.3736162  64.4312897 191.5157776  14.8294220
  64.4513931 192.3302765  16.4167995  64.5153961 193.7361755  14.6780643
  65.1798630 194.3229065  15.3123722  65.2389603 193.5419006  13.3030462
  64.5497055 193.1486206  12.3315887  66.5957489 193.4195709  13.2032700
  66.9627151 193.1814728  12.2929144  67.6256714 193.9327240  14.1786699
  68.5717468 193.9195251  13.6374960  67.8304443 193.0642090  15.4352646
  68.7983932 193.3365479  15.8559790  67.0018997 193.1852722  16.1330910
  68.0099564 191.6482239  15.2280455  68.2783813 191.4643402  14.3248672
  67.3905640 195.4164734  14.5075293  66.3933258 195.9732208  14.0660686
  68.3180161 196.1241455  15.1948404  69.1914444 195.7026215  15.4768610
  67.9262543 197.4032745  15.8161526  67.0657272 197.8142853  15.2882509
  67.5026703 197.1312408  17.2323647  66.9502640 196.1942596  17.3031635
  68.4351044 197.0288544  17.7875023  66.6411514 198.1307983  17.7844410
  65.7127075 197.9693756  17.6013203  68.8672791 198.6175232  15.6555967
  68.5173111 199.7454834  16.0955601  70.1273193 198.6104126  15.1044064
  70.4962997 199.5505219  15.1168022  70.7884369 197.7541962  14.2021780
  71.6974106 198.2944794  13.9376593  70.0449066 197.7171326  12.8369665
  69.1068878 197.1807709  12.9803286  69.6380844 198.7069244  12.6298409
  70.7517548 197.0205536  11.5965767  70.6146774 195.9443207  11.7016001
  70.2040558 197.3630676  10.7186117  72.2228699 197.3364716  11.2882137
  72.8748703 196.9407806  12.0669374  72.4861832 196.8967590  10.3262272
  72.5162354 198.8308105  11.0475588  71.8565826 199.5014038  11.5982637
  73.5336761 199.0201721  11.3897018  72.4770432 199.1928711   9.5760679
  71.5263596 199.0863953   9.2520905  72.6379318 200.1849060   9.4756994
  73.1647034 198.7781219   8.9635258  71.4757309 196.4830017  14.7674847
  71.2908707 195.4262848  14.1320467  72.2454147 196.5806274  15.8488731
  71.8785706 197.1487732  17.1612244  70.8649597 197.5483246  17.1290112
  72.5344086 197.9253693  17.5547829  71.8350677 195.9752808  18.1579494
  70.8143921 195.6073303  18.0533676  72.1096954 196.3514252  19.1434402
  72.9395828 195.0360565  17.5373058  73.8311310 194.9873810  18.1624947
  72.4868774 194.0478668  17.4558487  73.2679825 195.6366272  16.1609936
  73.2169266 194.7942963  15.4710960  74.7229004 196.2073517  16.1102333
  75.6506882 195.4411011  15.8878603  74.7848816 197.5362244  16.4075985
  73.9632111 198.1142731  16.3035355  75.9794998 198.3638000  16.5096970
  76.6408615 198.1989288  15.6591005  75.5378036 199.8230133  16.5871239
  74.7510681 200.0986633  15.8848696  75.1792755 199.9739227  17.6053505
  76.8047180 200.7237701  16.3168259  77.5574188 200.5016327  17.0732613
  77.1986008 200.4192810  15.3471661  76.6801529 202.2661591  16.2413330
  76.4769669 202.5081940  17.2845211  77.6105881 202.6701202  15.8423338
  75.5166016 202.6199188  15.3643837  75.5074234 201.8606720  14.5823574
  74.6352310 202.4519348  15.9833069  75.5949173 204.0267944  14.7996721
  76.5278549 204.1264191  14.4257784  74.8667297 204.1087799  14.1045961
  75.4453049 204.6748810  15.5597372  76.8557205 197.9064789  17.6824875
  78.0240936 197.8691406  17.5232048  76.2489319 197.4720917  18.8078079
  75.2389832 197.4739380  18.7984009  76.9903336 197.1581726  20.0079193
  77.9345093 197.6661072  19.8113651  76.2692032 197.7266693  21.2674484
  76.8896713 197.4221191  22.1102810  76.2900620 199.2122803  21.1909180
  75.5300827 199.7338409  20.6091099  76.1252670 199.5932922  22.1987705
  77.2568665 199.5927887  20.8613720  74.8551559 197.2685089  21.5654640
  74.7254181 197.3197479  22.6465054  74.1849213 197.9075623  20.9905815
  74.6627579 196.2481384  21.2338905  77.3782501 195.6891174  20.1972961
  77.9323196 195.3788910  21.2297497  77.2004013 194.7920837  19.2063007
  76.9314499 195.0542603  18.2687321  77.3808365 193.3463745  19.3073063
  77.1231689 192.9161530  18.3395138  78.8450012 192.9054718  19.4811707
  79.0386276 192.7960052  20.5482349  79.0005798 191.8827362  19.1377811
  79.9745026 193.7236023  18.9042320  80.8671265 194.4239960  19.6250858
  80.8431702 194.6014709  20.6901340  81.7273560 195.0524139  18.6957302
  82.5488815 195.5691528  18.9753475  81.4149780 194.7681427  17.4015102
  81.9670486 195.1871185  16.1345615  82.8632660 195.7897644  16.1299114
  81.4528427 194.7577209  14.9059076  81.9437408 194.9696503  13.9675579
  80.3304672 193.9346619  14.9807558  79.9650650 193.5271912  14.0497084
  79.8482742 193.5063477  16.2320004  79.0679245 192.7699738  16.3552952
  80.2936707 193.9174805  17.5127907  76.3488541 192.7174072  20.3342915
  75.1886826 193.1356659  20.2855453  76.8192520 191.7875824  21.1674614
  77.7650299 191.4648438  21.0210018  76.1842041 191.2043915  22.3408928
  76.9197998 190.5442657  22.8005104  74.9454575 190.3508606  21.9121265
  74.4528732 190.0789032  22.8456707  74.2527466 190.8965149  21.2714176
  75.3915024 189.0719757  21.2454624  74.5646896 188.4971924  20.8281994
  75.9923401 189.3552551  20.3812580  76.1426163 188.0846863  22.1105537
  75.6457443 187.3058472  22.8986988  77.4551773 188.1342163  22.0067825
  78.0026474 187.4203491  22.4658985  77.9521332 188.8067780  21.4403858
  75.9001999 192.2199249  23.4272671  76.0249481 193.4106140  23.2212925
  75.5946350 191.6638947  24.6142311  75.4883423 190.6595306  24.6215496
  75.7509689 192.2504120  25.9678993  75.1112289 191.5291901  26.4764862
  77.1616898 192.1106567  26.6262970  77.2411118 192.5621490  27.6152115
  77.3444901 191.0493164  26.7943478  78.2556915 192.6644592  25.7474365
  78.6190033 193.9067230  25.9237118  78.8151321 191.8636322  24.9056034
  75.1344833 193.6056671  26.2396870  75.3572464 194.6609497  25.6379032
  74.3327026 193.4977875  27.2499866  74.3554688 192.5625763  27.6307144
  73.4395905 194.5175781  27.8368244  72.5516891 193.9986267  28.1979580
  74.1179276 195.1899414  29.0724468  73.4483795 195.9430542  29.4879036
  74.1115570 194.4267883  29.8506947  75.5598450 195.7392578  29.0839481
  75.9292831 195.7072754  30.1089306  76.1596680 195.0475159  28.4925003
  75.7584686 197.2283478  28.5427570  74.8761520 197.8444519  28.7160549
  76.6157684 197.6741638  29.0471268  76.1146164 197.1506500  27.1072140
  75.4737015 196.7750092  26.4229469  77.2768860 197.4798737  26.5664024
  78.2952957 197.8086090  27.2424278  78.2645035 197.7286377  28.2487869
  79.2044678 197.9547729  26.8275394  77.4005508 197.4862823  25.2445278
  78.2322311 197.9738312  24.9433689  76.6338272 197.2494049  24.6312370
  72.6866837 195.4207001  26.8342228  72.1015244 194.9157257  25.9113235
  72.6083221 196.7124176  27.1527939  73.0242004 196.9758606  28.0346928
  71.8959503 197.7309265  26.3802261  71.8408051 198.6332855  26.9891605
  72.7499771 198.1483612  25.2734756  73.2361755 197.3127136  24.7700691
  72.3017426 198.7589264  24.4896507  73.5364380 198.8315887  25.5940647
  70.4343338 197.4699249  26.0560417  69.5466232 197.9207764  26.7708340
  70.1354904 196.7703857  24.9814453  70.9180222 196.4850922  24.4101658
  68.7903061 196.5223846  24.4125919  68.3679962 197.5030823  24.1935101
  68.8422089 195.9029999  22.9651642  67.8586960 195.5197906  22.6932220
  69.1413956 196.6618652  22.2421741  69.7944870 194.6651001  22.9584789
  69.4630356 193.3858643  23.4804554  68.5470657 193.2816162  24.0430603
  70.3263855 192.2678833  23.3165836  70.0758362 191.3059845  23.7389297
  71.4926758 192.4598541  22.4838448  72.1398697 191.6119080  22.3149452
  71.8330383 193.7516785  22.0222340  72.7252655 193.8514252  21.4219112
  70.9961929 194.8354187  22.2067337  71.2978134 195.7837524  21.7871113
  67.7099762 195.8173218  25.3096199  66.5827103 195.5729675  24.8886642
  67.9778595 195.4252319  26.6199188  68.9226074 195.5486298  26.9550743
  67.0924225 194.6739960  27.5701256  66.7161636 193.8002167  27.0381298
  67.6778107 194.2944641  28.9705029  67.3475037 194.9861603  29.7454529
  67.1829071 193.3408508  29.1543636  69.2155304 194.1511688  29.2345695
  69.3662033 193.2717743  29.8607101  69.6800308 193.8376617  28.2996578
  69.8856735 195.4255219  29.7141743  70.9579315 195.2522430  29.8055286
  69.6990433 196.2089844  28.9797001  69.3483200 195.9213104  30.9935703
  69.2062988 195.2397614  31.7253017  69.1991730 197.1871490  31.3389816
  69.1529846 198.2159882  30.4859734  69.5149689 197.9868164  29.5713425
  68.8229370 199.1234589  30.7820683  68.9246597 197.4622803  32.5536308
  68.9829025 196.7640991  33.2811279  68.8096466 198.4118042  32.8780899
  65.7547989 195.4290924  27.7705154  64.6951904 194.8624420  27.7049160
  65.7897797 196.7386780  27.9919434  66.7083435 197.1457214  28.0951653
  64.5776443 197.5853729  28.1414356  63.9459114 197.1528473  28.9172783
  64.9746704 199.0086212  28.6450977  65.7772980 199.3900757  28.0139236
  64.0983810 199.6568451  28.6476955  65.4969177 198.8341980  30.1000290
  64.8762817 198.1463318  30.6742649  66.4773483 198.3675232  30.0048008
  65.5713120 200.1649170  30.8425751  66.2517624 201.1093903  30.3997211
  64.9027252 200.2731781  31.9594193  64.9925537 201.1748962  32.4054565
  64.3386993 199.5417938  32.3681335  63.8005257 197.5749054  26.8119907
  62.5780106 197.5335541  26.8243427  64.4655075 197.5425262  25.6386375
  65.4350281 197.8171234  25.5699577  63.6990280 197.4377441  24.3686371
  62.8997841 198.1737671  24.4557610  64.6048508 197.8043365  23.1547794
  64.7867279 198.8760834  23.2347012  65.5530319 197.2742310  23.2443619
  63.8916931 197.4807281  21.9016571  63.0881310 198.3039398  21.1853981
  62.7737007 199.2790070  21.5270882  62.5592384 197.6438446  20.0725689
  61.9166679 198.1029968  19.4429760  62.9302750 196.2980499  20.1187897
  62.6063576 195.1545258  19.3499336  61.7472610 195.1857910  18.6961956
  63.2546654 193.9394379  19.5297432  63.0370102 193.0655060  18.9336834
  64.2236404 193.8586121  20.5423279  64.7377090 192.9199066  20.6870995
  64.5468063 194.9662018  21.3556061  65.2512436 194.8636627  22.1677990
  63.9005051 196.2344666  21.1690617  62.8827591 196.1172485  24.2838764
  61.7539444 196.1428680  23.8315811  63.3425598 194.9951172  24.8316517
  64.3176651 194.9085236  25.0801773  62.5029106 193.7867126  24.7428913
  62.2384377 193.6820526  23.6906548  63.3007812 192.5051117  25.1336288
  63.9399300 192.7139282  25.9915237  62.6085663 191.7350464  25.4741325
  64.0302887 191.8354034  24.0152969  65.3575134 191.9315033  23.8428020
  65.9994125 192.4734497  24.5215321  65.7306290 191.1857910  22.7306004
  66.6405640 191.1941833  22.2923622  64.6407547 190.6776428  22.0822868
  64.4420471 189.8665924  20.9539299  65.1925049 189.5991211  20.2247753
  63.1207199 189.3670349  20.7292633  62.9756508 188.6718140  19.9156170
  62.0671272 189.7606049  21.4734898  61.0625610 189.3970642  21.3150558
  62.2395782 190.6610107  22.5171852  61.3978996 190.9807434  23.1136322
  63.5333748 191.0698090  22.9027328  61.1845627 193.9367981  25.4947357
  60.1494827 193.3709717  24.9833965  61.0399666 194.7036133  26.5911350
  61.9192619 194.9331360  27.0318813  59.7351875 195.2098846  27.1318989
  59.1089706 194.3257294  27.2511711  59.8919449 195.8125763  28.5281601
  60.6033592 196.6351624  28.4551105  58.9501953 196.2453003  28.8657303
  60.3640823 194.7972870  29.6049385  59.6273766 193.9983521  29.6890507
  61.3265610 194.3319550  29.3923378  60.4841995 195.4161987  30.9960690
  60.5778351 196.6037292  31.2642250  60.6967926 194.6502228  32.0271225
  60.8528023 195.2073669  32.8549843  60.6567574 193.6427460  32.0861435
  59.1161270 196.2673187  26.2459698  57.9265976 196.1418152  26.0099201
  59.8478813 197.1905975  25.6323433  60.8118324 197.1559906  25.9318390
  59.3243561 198.3393097  24.8047485  58.5267906 198.7879639  25.3969421
  60.3529282 199.4121094  24.6084633  60.9042358 199.6291962  25.5233574
  60.9719276 199.0206604  23.8011742  59.6816444 200.7474976  24.2176952
  59.2328796 200.5956268  23.2360382  58.9135056 201.1546936  24.8751526
  60.9029617 201.6895599  24.0388470  61.5417252 201.8477020  24.9077969
  61.4708481 201.2751770  23.2058449  60.5422707 203.1751099  23.5885983
  61.4692650 203.6555634  23.2756233  59.8094482 203.0634155  22.7894745
  59.8048477 203.8118744  24.6994553  60.4585953 204.0335236  25.4367409
  59.5061035 204.7376099  24.4276485  59.0658798 203.2648468  25.1175270
  58.7050247 197.8790436  23.4693127  57.6485672 198.4000244  23.0994263
  59.3273315 196.9466858  22.7503700  60.1727448 196.5774384  23.1614952
  58.7243080 196.0876007  21.6476765  58.4304085 196.7183838  20.8087215
  59.8386879 195.0596313  21.3404369  60.8132820 195.4923859  21.1146336
  60.0460129 194.4710083  22.2341042  59.4808235 194.0583496  20.2706242
  58.9703979 194.4706268  19.0096226  58.9641609 195.4995422  18.6814461
  58.6956787 193.4737549  18.0272160  58.4720955 193.7634125  17.0110893
  58.7589264 192.0696716  18.3912945  58.3750496 191.0642548  17.5633678
  58.1054688 191.3135681  16.6763687  59.1247787 191.7081757  19.6681118
  59.2476654 190.6659241  19.9230881  59.5550728 192.6961823  20.5563660
  59.9261894 192.3826599  21.5209255  57.4594688 195.3342285  22.1257229
  56.3985519 195.6683350  21.6152382  57.5881729 194.5373688  23.1964645
  58.4959602 194.3081360  23.5752430  56.3780556 193.9185028  23.7616615
  56.0338936 193.1404419  23.0802727  56.7557106 193.1142578  24.9849815
  57.3848686 192.2710114  24.7000484  57.3893776 193.6677704  25.6779461
  55.5149117 192.6183167  25.8516140  54.9116096 193.4795074  26.1388359
  54.9173088 191.9463806  25.2356091  56.0172386 191.9329224  27.1095219
  56.5624695 190.8541412  27.0384235  55.6420708 192.3804626  28.2748108
  56.0277061 191.8813477  29.0636482  55.0090179 193.1639862  28.3485603
  55.2413445 194.9171906  24.0406437  54.1371307 194.6943665  23.4997749
  55.4139862 196.0668640  24.7517719  56.2397079 196.1283875  25.3301296
  54.3143654 197.0155182  25.0543652  53.5197906 196.4562378  25.5482979
  54.7587662 198.0752563  26.0599136  55.2119560 197.4924622  26.8618240
  55.4474831 198.8204498  25.6618481  53.4845352 198.7932281  26.5838394
  52.9630394 199.3436890  25.8008022  52.8524666 198.0540314  27.0759449
  53.8783836 199.8891754  27.6076794  54.4788017 199.3672638  28.3528099
  54.4271965 200.7192078  27.1627789  52.6331558 200.4297485  28.2695637
  52.1466141 200.9546204  27.4474354  51.8878136 199.7191925  28.6268673
  52.9125290 201.4817505  29.3061638  53.6356354 202.1249390  29.0171833
  52.0696907 201.9609528  29.5891609  53.2592087 201.0296021  30.1401157
  53.7155762 197.6531525  23.7366638  52.5122795 197.8416443  23.6279030
  54.5129700 197.8324432  22.6550045  55.5066414 197.7225189  22.7986526
  54.1807060 198.4497833  21.2860889  53.4313660 199.2327423  21.4025822
  55.4790344 199.0164642  20.7305279  55.8678246 199.6734924  21.5085087
  56.1947784 198.2342224  20.4777145  55.2378273 199.8398590  19.4757347
  54.9045944 199.2342377  18.6329556  54.4987068 200.6371460  19.5541573
  56.5217361 200.6052399  19.0554638  57.3813438 199.9814453  19.3005009
  56.5199547 200.8352356  17.9900055  56.6890564 201.9010162  19.8317204
  56.1334610 202.0103302  20.6680603  57.6556625 202.7202911  19.5219002
  58.2556076 202.6864929  18.3687496  57.9703865 202.1208954  17.5820827
  58.8715363 203.4241486  18.0579414  58.0318718 203.6090851  20.3915749
  57.6575813 203.6517487  21.3286915  58.9229393 204.0706329  20.2772446
  53.5351067 197.4577179  20.2765846  52.4956169 197.8626404  19.6626835
  54.0778694 196.2103424  20.1765976  54.9625664 195.9738770  20.6026230
  53.5499687 195.0534210  19.4267406  53.3610535 195.4713593  18.4379330
  54.6109123 193.9408875  19.2796383  55.5085068 194.3983459  18.8635159
  54.8592072 193.5787811  20.2772980  54.0604515 192.7424622  18.5242634
  53.3312569 192.1944733  19.1209927  53.5543861 193.0760193  17.6183128
  55.1627426 191.7326660  18.1357155  55.8501053 192.1828156  17.4194698
  55.7249031 191.4334564  19.0203323  54.6860123 190.4184265  17.5132008
  55.4072990 189.6195068  17.3412914  53.9570160 189.9350891  18.1636200
  54.1056519 190.6829681  16.1530704  54.7677383 190.9460754  15.4371576
  53.6166916 189.8729401  15.7996998  53.2778473 191.2579956  16.2178020
  52.2628021 194.5100708  19.9481354  51.3845901 194.0888672  19.2008953
  51.9937172 194.5556183  21.2316113  52.7266998 194.8892670  21.8411369
  50.8434486 193.8515472  21.8614216  50.2476501 193.3945160  21.0713253
  51.3982735 192.7936554  22.8383121  52.0413742 193.3280487  23.5375671
  50.5665970 192.3110504  23.3516483  52.1940422 191.7657623  22.1211815
  51.6122932 190.9145050  21.1677933  50.5417557 190.9969482  21.0513840
  52.4117546 189.9078064  20.5299091  51.8791885 189.2043915  19.9070358
  53.7448997 189.6831818  21.0123844  54.3443260 188.8879089  20.5945206
  54.3199921 190.5358582  21.9534950  55.3359909 190.3926544  22.2905922
  53.5491829 191.5526886  22.4806385  54.0456963 192.1968842  23.1911812
  49.8407784 194.7969360  22.5388088  48.8783684 194.3459473  23.1412277
  49.9834671 196.1194763  22.4600525  50.7637482 196.5233459  21.9618988
  49.0406380 197.1113892  23.0663509  49.1219673 197.0506744  24.1516151
  49.4900932 198.5012817  22.5197468  50.4225807 198.7327728  23.0345058
  49.6837730 198.4044647  21.4514694  48.4852028 199.5728455  22.7587929
  48.3851013 200.2454224  23.9794693  47.4418640 201.1333160  23.7913589
  47.1717529 201.9080811  24.4936314  46.8478317 201.0315399  22.5828018
  46.1207542 201.6482391  22.2494259  47.5540886 200.0822601  21.8910255
  47.3600235 199.7860870  20.8707180  47.5360260 196.8257294  22.7218323
  46.6845322 196.8807220  23.6639919  47.2493172 196.4564362  21.4637051
  48.1034546 196.4212646  20.9258194  45.9234276 196.1306000  20.9361668
  45.2937431 197.0182648  20.9966202  46.0395813 195.9137726  19.4193478
  46.8867416 195.2738800  19.1724529  45.1053505 195.5462952  18.9947624
  46.3669662 197.4688568  18.5306969  45.1054993 197.9086914  18.5430222
  45.2294159 194.8821411  21.5513229  44.0602417 194.5974426  21.2791748
  45.9487267 194.1548309  22.3996696  46.9293747 194.3309631  22.5652523
  45.3973465 193.0147552  23.2056046  45.0359268 192.2266846  22.5449810
  46.6319313 192.3455353  23.8780079  47.0491600 193.0458221  24.6016254
  46.2611351 191.4776459  24.4233227  47.3360825 191.9415436  23.1506424
  44.2650528 193.3800049  24.2031822  43.4198380 192.5206909  24.5533581
  44.2359009 194.6043549  24.6072807  44.9293213 195.2843323  24.3299904
  43.1141663 195.1259613  25.4258842  43.0765152 194.4704437  26.2959290
  43.4655876 196.6638794  25.7371407  42.6536942 197.1112518  26.3105373
  44.4100571 196.7115326  26.2791805  43.5862694 197.3776703  24.4968281
  44.3937721 197.8899536  24.5811310  41.7435913 194.9921570  24.8000355
  40.7370872 194.9770050  25.5543728  41.6357918 194.8639984  23.4823933
  42.5276642 194.7968445  23.0131817  40.4141579 194.6082306  22.7250919
  39.6066399 195.0805206  23.2845192  40.4782829 195.1273193  21.2635860
  41.0545044 194.4044037  20.6861305  39.4573288 195.1465759  20.8822918
  41.1109772 196.5645447  21.0476227  42.1509628 196.5782013  21.3737240
  41.0693932 196.7591248  19.5710392  40.0841026 196.7266388  19.1060104
  41.4303932 197.7760620  19.4173679  41.8197441 196.0411072  19.2400856
  40.3409843 197.6781006  21.7634716  40.4063301 197.4355469  22.8241348
  40.8532181 198.6193085  21.5638924  39.2883263 197.6585999  21.4812794
  40.0277328 193.0695648  22.7345657  38.9533691 192.6260681  22.3386383
  40.8673935 192.1794891  23.2852802  41.7365799 192.5511017  23.6409836
  40.5818443 190.7339478  23.5192261  39.5580215 190.5118866  23.2182503
  41.5476189 189.8374634  22.6984692  41.0118523 188.8972321  22.5680351
  41.8533211 190.3478394  21.3364925  42.5858192 191.1546478  21.3615150
  42.3078918 189.4981995  20.8270054  40.9273071 190.5802155  20.8105640
  42.7538185 189.5324860  23.4303551  43.3666992 189.0156555  22.9022789
  40.7238998 190.3768463  25.0481224  40.9854851 191.2333984  25.8658390
  40.5794182 189.1031952  25.3614826  40.5796471 188.3936920  24.6426640
  40.5107346 188.6709442  26.7460346  39.9906921 189.4172211  27.3466454
  39.6234245 187.4118805  26.7772713  39.4906540 187.1273956  27.8210831
  38.6442223 187.5914917  26.3334198  40.2807693 186.4523773  25.9995174
  39.6508369 185.7594299  25.7883110  41.8855629 188.3287659  27.4857903
  41.8847733 188.0214539  28.6973400  43.0594864 188.4833374  26.7897243
  43.0443192 188.9305420  25.8842583  44.4592896 188.1564026  27.3147297
  44.3745308 187.7054443  28.3034382  45.1149483 187.1749725  26.3021030
  45.4551964 187.6907043  25.4041309  46.0122719 186.8727722  26.8420849
  44.2665558 186.0257721  25.9106693  43.6382675 185.8331451  24.7000904
  43.7237473 186.3918152  23.7797756  42.7889900 184.7332611  24.8183670
  42.3373795 184.3544159  23.9982319  42.8144302 184.1468811  26.0970345
  42.2239685 183.0026093  26.6630554  41.5076447 182.4073792  26.1162624
  42.4913406 182.6780396  27.9945316  42.1862335 181.7009430  28.3388844
  43.2727089 183.5217285  28.8092327  43.3543510 183.3688507  29.8752365
  43.9370956 184.6534576  28.2461624  44.6307373 185.1985779  28.8691521
  43.7718544 184.9879761  26.8662491  45.3733101 189.3831635  27.5934830
  45.1277390 190.4784851  27.0928040  46.4795914 189.1800995  28.3551483
  46.8267784 188.0203705  29.1790714  47.0805817 187.2317352  28.4707470
  46.0119972 187.6589355  29.8064442  48.0039482 188.3966980  30.1057968
  48.9637299 187.9478455  29.8499660  47.7732353 188.1004333  31.1290798
  48.0047493 189.9456940  30.0035229  49.0506821 190.2094269  30.1602840
  47.3187370 190.3956909  30.7211571  47.4913177 190.2007141  28.5556126
  47.0164986 191.1807556  28.6022053  48.5532112 190.2199249  27.4217606
  48.8045731 189.1615753  26.8854237  49.3031273 191.3548279  27.2665405
  49.0621948 192.6564484  27.8816643  49.4384995 192.7356110  28.9015808
  48.0265846 192.9862518  27.7989845  49.8539810 193.6632690  27.1218224
  50.1739731 194.4591980  27.7942810  49.2816620 194.2554321  26.4077606
  50.9661179 192.9008789  26.3938026  51.7944984 192.8493347  27.1003628
  51.3722458 193.3944855  25.5108871  50.3461227 191.5005341  26.2238159
  49.9512138 191.4424744  25.2095299  51.4713173 190.3816833  26.2553120
  51.7607765 189.7864990  25.2039757  51.9268951 189.9092407  27.4164658
  51.5913925 190.3395538  28.2663860  52.9248428 188.8603210  27.5636311
  53.6983261 189.2058105  26.8777294  53.4777145 188.8869629  29.0248356
  54.1463661 188.0274048  29.0712833  54.0987282 189.7826843  29.0128651
  52.4908943 188.7521820  30.2183495  52.0373306 189.7527618  31.0104313
  52.2921410 190.7940521  30.8793449  51.1722145 189.2375793  31.9507427
  50.6540718 189.7959595  32.6139526  51.0642319 187.8756561  31.8468704
  50.2333183 186.9426575  32.4693489  49.5870857 187.3110352  33.2523499
  50.1926041 185.6184998  31.9977684  49.4395103 184.9621429  32.4081993
  51.0606651 185.2032166  30.9468212  51.0942268 184.2031708  30.5404205
  51.8667221 186.1922150  30.3407803  52.4161720 185.9327850  29.4479160
  51.8141785 187.5287170  30.7430286  52.4955482 187.4454956  27.1210213
  53.3623428 186.7032166  26.6904125  51.2242355 187.0133514  27.0989742
  50.4871254 187.6219330  27.4251556  50.8878479 185.6423492  26.7299137
  51.5104141 184.9717255  27.3221741  49.3882446 185.4840393  26.9772930
  49.1178398 185.7371826  28.0024300  48.9163284 186.1968536  26.3010521
  48.9409523 184.0160065  26.7296028  49.2491798 183.7115021  25.7294102
  49.3854065 182.9819031  27.7058983  49.2444763 183.2997131  28.7389698
  48.8343544 182.0425415  27.6608467  50.4350929 182.7489014  27.5270958
  47.4032173 183.9549866  26.5861893  46.9340134 184.8439789  26.1647205
  47.1031532 183.1557159  25.9085274  46.8025627 183.7267456  27.4666576
  51.2461243 185.3715210  25.2429504  51.5874825 184.3050079  24.8210487
  51.0942955 186.4210968  24.4414349  50.7536087 187.2039337  24.9810562
  51.3574944 186.4758911  22.9965649  50.7288857 185.6496277  22.6645317
  50.6602211 187.6913147  22.3624172  51.0172081 188.6058350  22.8360195
  50.9916649 187.6748047  21.3241596  49.1309013 187.7131042  22.2866192
  48.3768959 186.7645264  21.4838505  48.9434242 185.9985046  20.9752579
  46.9899406 186.7498779  21.3261662  46.4945755 186.0751953  20.6436672
  46.2881546 187.7270966  22.0086231  44.9455719 187.9029541  21.6947441
  44.5706635 187.3546906  21.0016041  46.9793282 188.7074127  22.8071365
  46.5089912 189.5175781  23.3445625  48.3703651 188.6873016  22.9367142
  48.8459091 189.5050049  23.4578743  52.8234406 186.4719238  22.6782818
  53.1948051 185.7955322  21.7404861  53.6816750 187.0498810  23.5276184
  53.2641678 187.7021332  24.1759720  55.1462669 186.7492981  23.5060101
  55.4847069 187.1957855  22.5710163  55.8176613 187.4321442  24.6648636
  55.3766594 186.9749451  25.5506344  56.8909073 187.2419434  24.6729393
  55.5525589 188.8609161  24.7042694  56.2451286 189.3430023  25.1620178
  55.5171928 185.2778931  23.5075779  56.4492455 184.9204865  22.8808365
  54.6668968 184.4596100  24.1542492  53.8875694 184.9192963  24.6030865
  54.7047272 182.9279938  24.2858658  55.7528114 182.6294403  24.3076515
  54.0469780 182.4062958  25.6395912  52.9750061 182.3659668  25.4463177
  54.3516731 181.3715668  25.7963982  54.2825737 183.2995148  26.9015751
  53.9045753 184.3066559  26.7258530  53.5488586 182.6901093  28.1316071
  54.1635513 181.8979340  28.5590649  53.5116348 183.4543610  28.9079037
  52.6045952 182.2507019  27.8100700  55.7443771 183.4388123  27.3817673
  56.2350273 184.0337219  26.6114159  55.8305931 183.9664459  28.3316479
  56.1446648 182.4253387  27.4090996  54.1585426 182.1941071  23.0741806
  54.3481712 181.0085754  22.9684277  53.5802422 182.8530273  22.0710411
  53.3441353 183.8260651  22.2035313  53.3283997 182.3097229  20.7397308
  53.7998505 181.3333435  20.6278057  51.7791176 181.9944458  20.6062870
  51.1816826 182.8930359  20.7602539  51.5407906 181.6589966  19.5969410
  51.2273178 180.9275970  21.5463943  50.8587074 181.3072815  22.8524628
  50.9289856 182.3493347  23.1273708  50.2856674 180.3574982  23.6817150
  49.9857864 180.6461639  24.6782837  49.9402313 179.0467377  23.1865005
  49.3971596 178.0540924  23.9532986  49.2442245 178.2440338  24.8818111
  50.3144073 178.6753387  21.8780899  50.1627960 177.6951447  21.4507236
  50.9506187 179.6549683  21.0352268  51.0808563 179.4066772  19.9922562
  53.8638344 183.1879578  19.5860748  53.8031998 182.7558441  18.4237423
  54.5250397 184.3144226  19.7985649  54.5074959 184.7431335  20.7129002
  55.2530632 185.0741272  18.7543564  54.6384926 185.1446686  17.8568993
  55.4613762 186.4653015  19.2540951  54.4995880 186.9461212  19.0755444
  55.6224213 186.5390778  20.3296070  56.6177940 187.1600037  18.5035496
  56.6803436 187.1564026  17.2476788  57.5037460 187.6761780  19.2407246
  56.5752907 184.3851624  18.3191280  57.4211349 184.1244507  19.1711483
  56.7643242 184.0862732  17.0002613  56.0782394 184.2983246  16.2900352
  57.9979095 183.3572540  16.5547485  58.1225700 182.4893494  17.2023029
  57.8162994 182.8645325  15.0900707  57.5209808 183.6479797  14.3921461
  58.8052406 182.5735016  14.7359543  57.1244164 182.0240631  15.1450186
  59.2585869 184.2517853  16.7132530  60.3350143 183.7327423  16.8695107
  59.2514572 185.5985718  16.7534790  58.3315811 186.0146027  16.7245636
  60.5052681 186.3777161  16.9882927  61.3449402 185.9893799  16.4118843
  60.2284966 187.8471527  16.4981155  59.4015465 188.2880859  17.0547447
  61.1466103 188.3796997  16.7462292  59.9402618 188.0217590  15.0172977
  59.0753593 187.3734894  14.8766289  59.7102356 189.0868073  14.9877214
  61.0953941 187.6770630  14.0892067  62.2872124 187.6490021  14.4441738
  60.8132401 187.3034210  12.9282160  61.0257912 186.3000336  18.4753609
  62.2212067 186.1198730  18.8234997  60.1026573 186.5058594  19.4611073
  59.1421318 186.7353668  19.2494202  60.4713173 186.2907410  20.8625088
  61.3447762 186.9042664  21.0833302  59.2447510 186.6628876  21.6728344
  58.3527412 186.0680695  21.4763107  59.5278664 186.6610718  23.2024288
  60.5084305 187.1076050  23.3673954  58.8304596 187.2142639  23.8314800
  59.3929443 185.6221161  23.5032005  58.7349625 187.9836426  21.4249592
  58.4796638 187.9620972  20.4997787  60.8313522 184.8571472  21.1703854
  61.8005981 184.6255951  21.8758755  60.1306839 183.9456635  20.5174999
  59.3372574 184.2733612  19.9853497  60.5285835 182.5222778  20.6796131
  60.5197144 182.3098145  21.7486706  59.4208870 181.7054291  20.0176697
  59.3124123 182.1954498  19.0500889  59.8418388 180.7048950  19.9185047
  58.0149994 181.5621948  20.7395630  57.4855576 182.5037231  20.8855038
  57.0284538 180.7346344  19.9289589  57.5897827 179.8328552  19.6844311
  56.1675186 180.4835815  20.5485229  56.7185860 181.2088623  18.9977245
  58.2859459 180.8905029  22.1046448  58.7323875 181.5651398  22.8351688
  57.3766441 180.5129700  22.5723419  59.0133400 180.0791168  22.1302280
  61.8205452 182.1470490  19.9361801  62.5132446 181.2475739  20.3916321
  62.2117538 182.8157196  18.8839493  61.5562325 183.4053802  18.3913040
  63.5262260 182.6265106  18.2139606  63.6215019 181.5535583  18.0472240
  63.6594467 183.3528900  16.8726425  63.1695328 184.3255768  16.9170551
  64.6961060 183.5447235  16.5957928  63.1012459 182.4921265  15.6979895
  63.7231712 181.5989532  15.6383867  62.0582275 182.2584229  15.9115171
  63.1706924 183.2881927  14.0822010  64.8517227 182.9250641  13.6341438
  65.0427017 181.8635712  13.7917814  65.0352020 183.0347748  12.5653114
  65.5907211 183.5017548  14.1904011  64.6289673 183.0814819  19.1254158
  65.6150818 182.3863068  19.4548321  64.5160217 184.3265686  19.5930080
  63.7677574 184.9268646  19.2769966  65.4419937 184.8490448  20.5934467
  66.4434128 184.8263855  20.1636162  65.0976028 186.3011017  20.9562931
  65.0386581 186.9389343  20.0743732  64.1144943 186.3132477  21.4268951
  66.1192474 187.0989990  21.8508072  65.6867447 188.0731506  22.0789566
  66.2432556 186.5446167  22.7810726  67.4776077 187.2086639  21.0960903
  67.5306549 187.4587250  19.8864460  68.6026535 187.1331024  21.7044239
  65.6577988 184.0381165  21.8890972  66.8126450 183.7855072  22.2253323
  64.5833130 183.5250244  22.5466461  63.6560097 183.8003235  22.2560978
  64.8278656 182.7349548  23.7918739  65.4175568 183.2728271  24.5342159
  63.4762802 182.4375763  24.3221531  62.7863770 182.2667542  23.4957428
  63.4570122 181.6550598  25.0807018  62.8731689 183.7269287  25.0036449
  63.3959084 183.8850708  25.9469566  63.1768265 184.5857086  24.4049931
  61.4073944 183.4979095  25.3587914  60.9683990 184.4237366  25.7305813
  60.8552589 183.2762604  24.4454918  61.3106842 182.4586639  26.4197598
  62.1372871 182.0656433  26.8468037  60.1913185 181.7547760  26.7105198
  59.0282593 182.0985870  26.2637501  58.8789940 182.9751892  25.7848091
  58.2097664 181.5374298  26.4515495  60.2808456 180.7526855  27.4700813
  61.1626587 180.3628540  27.7709732  59.4269714 180.3343048  27.8106022
  65.7162399 181.4906769  23.4820747  66.6982269 181.2678070  24.2130699
  65.5660019 180.8014221  22.3409195  64.8266830 181.0328674  21.6928978
  66.3979568 179.7073212  21.9309063  66.4538040 178.9454193  22.7083931
  65.8587799 178.9793396  20.6185436  65.7283859 179.7130127  19.8230343
  66.8343277 177.8236694  20.1801338  67.1261444 177.2104797  21.0327530
  66.2444611 177.1860504  19.5216427  67.7511978 178.2190704  19.7429829
  64.4583130 178.2987671  20.8859081  63.7592964 179.1078339  21.0978050
  64.0516968 177.8430023  19.9831104  64.5048065 177.5058746  21.6324024
  67.8471756 180.1746368  21.6180611  68.7931137 179.5198669  22.0597591
  68.0258636 181.3423767  21.0397511  67.2172775 181.9429016  20.9645653
  69.3622971 181.9148865  20.6676044  69.8824081 181.2015991  20.0282288
  69.2239914 183.2151184  19.9150429  68.4636002 183.8942871  20.3005733
  70.1931229 183.6942291  20.0541725  68.9170074 183.0999603  18.3909321
  69.7545776 182.6034393  17.9009857  67.9896927 182.5321350  18.3151436
  68.7060089 184.5113525  17.9158268  67.8101578 184.9494629  18.3558521
  69.5249710 185.1820831  18.1756687  68.4421997 184.4738617  16.3829403
  69.2134094 183.8770599  15.8959455  67.4397659 184.0736847  16.2309990
  68.5941010 185.8613129  15.8208990  69.5111160 186.2833710  15.7883215
  68.3044815 185.8780518  14.8534584  68.1048050 186.5562744  16.3665371
  70.2237930 182.1178436  21.8908234  71.3740997 181.7573090  21.9438972
  69.5909882 182.5353851  22.9866219  68.6309509 182.8332672  22.8881721
  70.1599884 182.7786713  24.2973442  71.0453568 183.3882904  24.1168327
  69.1419907 183.6855927  25.1349030  68.8696594 184.4026031  24.3604069
  68.2798691 183.0982513  25.4509430  69.7417908 184.3915863  26.3212681
  69.8085938 183.6362305  27.1042671  70.7228699 184.7736053  26.0390530
  68.8872910 185.6542511  26.7131824  69.3432617 186.0871887  27.6035461
  68.9009781 186.3934326  25.9122353  67.5388489 185.2146454  27.1279640
  67.4496841 184.2549896  27.4299526  66.5172195 186.0391541  27.3032398
  66.5405045 187.3156281  26.9527550  67.4017563 187.6811218  26.5722942
  65.8524246 187.9503937  27.3318634  65.3141403 185.5719757  27.6944733
  65.2255020 184.6377106  28.0678253  64.4947815 186.1551971  27.6017323
  70.6042404 181.5104065  25.0275326  71.5444641 181.5717773  25.7952843
  70.0874710 180.2784119  24.6349773  69.3827209 180.3276672  23.9131699
  70.7334747 179.0469055  24.9067459  71.1789322 179.1167603  25.8991108
  69.6280212 177.9571381  24.9403210  68.9091339 178.1904907  25.7257156
  69.1601562 177.8757782  23.9592075  70.1393814 176.5947571  25.3534546
  69.3396912 175.8919373  25.1196594  70.9383163 176.2275238  24.7092857
  70.5950851 176.4409943  26.8103104  69.8216095 176.4978943  27.7293720
  71.8747253 176.2743683  27.0096035  72.2211838 176.4048309  27.9493103
  72.5199051 176.2333527  26.2336140  71.8030396 178.6678162  23.8759727
  72.9101257 178.2694092  24.2888889  71.6351776 178.8564606  22.5509338
  70.7643967 179.2567444  22.2321873  72.6644135 178.5410461  21.5482845
  72.9991989 177.5215759  21.7398815  72.1000214 178.7214661  20.0905895
  71.7257996 179.7446442  20.0565624  72.8321686 178.4952850  19.3154106
  70.8832245 177.8500061  19.7730389  70.1207886 178.0019379  20.5370502
  70.3227081 178.1867523  18.3258553  71.0979004 178.0574799  17.5705681
  69.4975052 177.5536041  17.9998512  69.9046249 179.1899109  18.2422848
  71.3760605 176.3783112  19.6941338  71.3336411 175.8907318  20.6680775
  70.8913040 175.7546387  18.9430428  72.4445114 176.3979034  19.4793510
  73.9497681 179.4815369  21.7108707  75.0384979 178.9193878  21.4496670
  73.8536377 180.6752472  22.2798290  72.9362717 180.8655243  22.6571026
  75.0064697 181.5308685  22.4053726  75.5246277 181.4650116  21.4486694
  74.5991516 183.0207367  22.4996262  73.7502060 183.1776428  23.1650352
  75.4476089 183.4028320  23.0672646  74.4648438 183.7773743  21.2459793
  75.6078873 184.1413116  20.4767914  75.1331253 184.6015320  19.3197117
  75.7816925 184.9959106  18.5514374  73.8130112 184.7286377  19.3907719
  73.2299576 185.0786285  18.6440144  73.3542099 184.1518707  20.5531654
  72.3085175 184.1457977  20.8231773  76.0621948 181.0732422  23.5166817
  77.2821274 181.3976288  23.3227596  75.5990829 180.4332733  24.5754776
  74.6198730 180.4710236  24.8200722  76.4842453 179.7914276  25.4930210
  77.2978973 180.5021820  25.6376228  75.9116974 179.4898987  26.8347511
  74.8838959 179.1486969  26.7110233  76.4381638 178.6661072  27.3167171
  75.9494476 180.7014771  27.7827263  76.9868774 181.0288849  27.8509026
  75.4630203 181.5667419  27.3324184  75.4474716 180.2978973  29.1991634
  75.7523422 180.9804230  30.2311687  74.5631561 179.4295349  29.2946358
  77.0905533 178.5276489  24.9183922  78.2770081 178.3113098  25.0914116
  76.3255463 177.6842346  24.2320900  75.3324890 177.8330536  24.1235104
  76.7964630 176.5122223  23.5144367  77.3950882 175.8784485  24.1687183
  75.6114044 175.6285553  22.9500751  74.9699402 176.3429718  22.4340973
  75.9609680 174.9610596  22.1624393  74.6729965 175.0213776  23.9412975
  74.9508820 174.7198792  25.2043037  75.8847198 174.9425507  25.6990433
  73.9038162 174.0187531  25.7872505  73.9902115 173.6021271  26.7032490
  73.0125504 173.5737762  24.8051968  71.8841629 172.7878418  24.7984543
  71.5622406 172.2321930  25.6667995  71.1095734 172.6290588  23.6446552
  70.1916733 172.0630341  23.7036266  71.5049362 173.3067474  22.4686260
  70.9414215 173.3033752  21.5472984  72.6986694 174.0602112  22.4927959
  73.0167847 174.5050507  21.5614910  73.4290009 174.2893982  23.6781292
  77.6995850 176.8838196  22.3310509  78.5540619 176.0559387  22.0186863
  77.6180115 178.0565796  21.6550713  76.8823547 178.6849823  21.9449253
  78.5426483 178.5079193  20.6026497  79.4327927 177.8815155  20.6606464
  77.9257812 178.3575592  19.1921806  77.2516022 177.5010681  19.1955833
  77.2487640 179.2079620  19.1112366  78.9545822 178.5159912  18.1087208
  80.1631012 178.7604218  18.3301983  78.5602417 178.3903809  16.9045124
  79.1287155 179.8995819  20.9233513  78.6308975 180.9197693  20.4391212
  80.1295471 179.9230804  21.8254128  80.2898102 179.0620117  22.3283768
  80.7047119 181.1216736  22.4855118  79.8836670 181.6380005  22.9829102
  81.6600800 180.7684784  23.5797882  82.5074081 180.1839447  23.2213593
  82.1245499 181.6900024  23.9307327  81.0041275 180.0668182  24.7803211
  81.4600067 180.4210205  25.7048817  79.9688644 180.4002228  24.8521557
  81.1455307 178.5199585  24.7276897  81.0300827 177.9527435  23.6570492
  81.5283432 177.9743347  25.7553368  81.4298477 182.1176605  21.4854813
  81.8928528 183.2163391  21.8837605  81.5230789 181.8045807  20.2093601
  81.1049347 180.9312592  19.9219971  82.1134720 182.6707916  19.1790810
  82.3343201 183.6233215  19.6607571  83.4492264 182.0438690  18.6533604
  83.2507095 180.9903412  18.4563942  83.7338257 182.4991608  17.7047729
  84.5976105 182.1505585  19.5996685  84.6761780 181.3194122  20.5315647
  85.5274658 183.0588837  19.4071007  86.2910538 183.1103516  20.0661793
  85.4115067 183.7481079  18.6779690  81.0571518 183.0904083  18.0728664
  81.5138855 183.5408020  16.9816780  79.7771912 182.7330170  18.2656593
  79.5236740 182.2068787  19.0896816  78.7895660 182.9050293  17.2339153
  79.1288452 182.4457703  16.3054409  77.5903778 182.0081635  17.6484356
  78.0037079 181.0546570  17.9771557  77.1350632 182.4516602  18.5339355
  76.5078125 181.7660828  16.5580997  76.9472198 181.7928467  15.5609493
  75.7722931 180.4522247  16.7523346  75.4022751 180.4138794  17.7768917
  75.0083923 180.3612976  15.9801350  76.5196228 179.6638947  16.6621990
  75.4358063 182.7808380  16.5792542  75.7679901 183.8157349  16.4970798
  74.8045425 182.6274109  15.7040014  74.8148651 182.7132263  17.4725456
  78.4486389 184.4234924  16.8910980  78.0473785 185.1867065  17.8075180
  78.6005707 184.7089081  15.6009502  79.1724243 184.0699005  15.0673304
  77.8950958 185.8061981  14.9413176  77.5045242 186.5342712  15.6522827
  78.8998795 186.5279999  14.0325375  79.3300018 185.7326965  13.4237833
  78.4308853 187.2378387  13.3511686  80.0337906 187.1943665  14.8874626
  79.5639420 187.9737091  15.4874315  80.5356293 186.4844971  15.5449944
  81.1244354 187.8422699  13.9726048  81.9050903 188.2994080  14.5806408
  81.6084442 187.0393066  13.4166613  80.6055679 188.8557129  12.9462414
  81.4094772 189.1983337  12.2947407  79.8996964 188.4725494  12.2093410
  79.9420547 190.0610046  13.5465107  80.5535278 190.5464325  14.1872654
  79.5245819 190.6880798  12.8737669  79.1775970 189.7119141  14.1067162
  76.7207031 185.3219604  14.1095819  76.8075485 184.2220001  13.5659838
  75.5459137 186.0465698  14.2839489  75.5519714 186.8267212  14.9253712
  74.2151031 185.4858246  13.9216185  74.0376968 184.6494598  14.5977230
  73.1870346 186.4708862  14.3601923  73.6112137 187.4646606  14.2167225
  72.4523163 186.4450836  13.5554428  72.4826965 186.3562775  15.7271605
  73.1292114 185.7584229  16.6278362  71.3272095 186.8623199  15.9081554
  74.0451889 185.1286163  12.4277592  73.1522293 184.3247528  12.1909046
  74.9425583 185.5046844  11.5097504  75.5905304 186.1651611  11.9147196
  74.8817444 185.3025055  10.0883512  74.0403976 185.8167114   9.6237783
  76.1892014 185.8075562   9.4035864  76.8630905 184.9562531   9.4997988
  76.0531006 185.9625854   8.3332853  76.8669510 187.0484924  10.1230297
  77.1368484 186.7033539  11.1210966  77.7581787 187.3370972   9.5657806
  75.9713287 188.2630157  10.4982405  75.4585876 188.8948975   9.5622120
  75.7465973 188.6260834  11.6999130  74.7511673 183.8021240   9.6278467
  74.3109818 183.5670776   8.5131941  75.1034851 182.8123322  10.4860706
  75.4680862 183.0175476  11.4053383  75.1417847 181.3699951  10.0832329
  75.2990494 181.2538757   9.0109053  76.2918320 180.6951752  10.9267912
  76.3847504 179.6221924  10.7589207  77.2139435 181.1636047  10.5827074
  76.0739059 181.0655670  12.2710619  76.8362274 180.8569489  12.8159838
  73.7691193 180.7231445  10.4290962  73.5018997 179.6255646   9.9371567
  72.9566269 181.3548431  11.2276230  73.3114853 182.2688293  11.4701471
  71.5738068 181.0590363  11.5550270  71.4962997 179.9719696  11.5364141
  71.1616364 181.3973236  13.0599556  71.1964874 182.4829559  13.1510859
  70.1642075 180.9990082  13.2458935  72.1821671 180.8226166  14.1570673
  73.1896667 181.1020050  13.8488665  72.0535049 181.3751373  15.5648117
  71.0114212 181.1725464  15.8120413  72.7527084 180.8785095  16.2375450
  72.3022156 182.4353180  15.6123400  72.0029602 179.3039398  14.2063103
  72.0256042 178.7883301  13.2462492  72.8175430 178.9609985  14.8442345
  71.0666046 179.0879669  14.7207899  70.5510406 181.6516724  10.5750284
  70.6686707 182.8056335  10.2249813  69.5307465 180.8765106  10.1879091
  69.4784698 179.4481812  10.1889267  69.0769577 179.0301819  11.1120529
  70.4766922 179.0715790   9.9657297  68.5854645 179.1219025   9.0166130
  68.0770340 178.1614838   9.1014662  69.1381378 179.3044586   8.0950251
  67.5817795 180.2779083   9.0514488  66.8824310 180.1086426   9.8702059
  67.1170807 180.3811340   8.0708866  68.4659119 181.4269562   9.3595343
  68.9306870 181.7798309   8.4388962  67.6395264 182.4964905  10.0806170
  67.3259811 182.3237762  11.2707491  67.3803177 183.5336761   9.3399372
  67.7666931 183.5881805   8.4083567  66.3893509 184.5881958   9.7317476
  66.5237732 184.7077026  10.8068066  66.6408234 185.9389648   9.1177826
  65.9381485 186.6981964   9.4611883  68.0339813 186.5262451   9.5278778
  68.7924118 186.1319275   8.8515615  68.0650101 187.6043854   9.3705673
  68.2463074 186.3679962  10.5852213  66.7420731 185.8437347   7.6789398
  66.9572754 186.7201080   7.3514409  64.9086075 184.2400513   9.5427208
  63.9841080 184.9747925   9.8375072  64.5892792 183.0493469   9.1052408
  65.3612518 182.5117493   8.7376165  63.2037773 182.6051025   8.8483248
  62.5038223 183.4042053   9.0924654  63.1105881 182.2100220   7.3434296
  63.4995689 182.9546051   6.6488919  63.6897316 181.2954407   7.2159843
  61.7099266 181.9997101   6.9057159  60.9116631 182.8911285   6.9938884
  61.4574738 180.7826080   6.3718619  60.5424919 180.5618134   6.0055819
  62.2263908 180.1296082   6.3223276  62.8982773 181.5177460   9.8897295
  63.6883049 180.5736542   9.9739285  61.8096161 181.6832733  10.6578665
  60.8071365 182.7813416  10.6628036  60.5378990 183.1007538   9.6560316
  61.1881523 183.6854095  11.1377640  59.6374588 182.2942810  11.5249920
  58.9251747 181.6349487  11.0289764  59.1042099 183.0810394  12.0586100
  60.3506165 181.3481903  12.5465746  59.6292381 180.5916290  12.8553038
  60.6500282 181.9004059  13.4373674  61.5656776 180.7946320  11.8148966
  62.3777351 180.7948303  12.5419893  61.3414879 179.2797852  11.5148830
  61.6639786 178.4619446  12.3495436  60.9125404 178.8634949  10.3102913
  60.7258301 179.5986786   9.6433964  60.6944771 177.5184631   9.8853970
  60.0599632 177.0837860  10.6577625  59.8944511 177.4752197   8.5067520
  60.4383469 178.1394043   7.8350844  59.9043236 176.2040405   7.6910062
  59.5044746 175.3974152   8.3054800  59.2417870 176.1623993   6.8264775
  60.9022293 175.8705292   7.4062686  58.4585571 177.9870911   8.5820475
  57.8291245 177.4441986   7.8769426  57.9940872 177.7444000   9.5378056
  58.2698135 179.5032043   8.3172417  58.6956406 179.8693237   7.3830442
  57.2100182 179.7544098   8.2745161  58.6355705 180.1292114   9.1311445
  62.0330429 176.7405090   9.7650213  62.2665749 175.7600555  10.4581079
  62.9404182 177.3007202   8.9212914  62.5450630 177.9960175   8.3045664
  64.2727890 176.6920013   8.7934637  64.1790314 175.7002869   8.3509388
  65.0591507 177.4770203   7.7198930  65.3324814 178.4136963   8.2057161
  65.9350662 176.8956757   7.4319463  64.2750854 177.9099884   6.3940821
  63.3183136 178.7499237   6.5224104  64.6637039 177.4109955   5.2941542
  65.1105576 176.6377869  10.0721989  65.7679672 175.6048584  10.3672934
  65.0835419 177.7068481  10.9083939  64.6491852 178.5387878  10.5351534
  65.5788574 177.8588562  12.2523832  66.6620483 177.7442627  12.2117119
  65.2886658 179.2347565  12.8470020  65.6151047 179.8957825  12.0441389
  64.2169189 179.4249420  12.9043198  65.8751450 179.6126251  14.2035465
  65.2057724 179.2178955  15.3680105  64.1796494 178.9000397  15.2564268
  65.8153229 179.2847137  16.6329479  65.3082886 178.9850922  17.5382385
  67.0881577 179.8368378  16.7750969  67.5571442 179.8961792  17.7461472
  67.7671967 180.1803131  15.5922556  68.8035736 180.4765320  15.6598473
  67.2079468 180.0491791  14.3487024  67.8578949 180.1607819  13.4934139
  65.0550842 176.7946625  13.2483816  65.7915192 176.0352783  13.8666353
  63.7053299 176.6866913  13.3694868  63.0356445 177.1665802  12.7852516
  63.2268219 175.6597748  14.2661362  63.6007156 175.8670807  15.2687969
  61.7287521 175.7242126  14.4445190  61.3946190 174.9483337  15.1333323
  61.4525146 176.6950836  14.8558788  61.0361862 175.5909424  13.2131014
  61.0308495 176.4765930  12.8427315  63.6937065 174.2707367  13.7849922
  64.2611160 173.5118408  14.5864658  63.5404205 173.9544220  12.4665699
  63.0647125 174.6484528  11.9078970  63.9422493 172.6414795  11.9044962
  63.3860092 171.8838043  12.4564247  63.5248337 172.6327972  10.4516077
  63.8342361 173.5252533   9.9076366  64.2377167 171.9010468  10.0715828
  62.2219582 172.2109528   9.9243069  61.7111359 170.9189758  10.3162136
  62.2782364 170.4324951  11.0960484  60.5220947 170.4534149   9.7502384
  60.0545845 169.5167084  10.0156002  59.9110947 171.2682800   8.7696266
  58.7709084 170.7508392   8.1963692  58.6019821 171.3010864   7.4280653
  60.3103828 172.5637054   8.4318466  59.6939774 173.1798401   7.7940083
  61.5177994 172.9893188   8.9841175  61.8623810 174.0016174   8.8328133
  65.4203568 172.3602905  12.1689043  65.7142639 171.2089844  12.5882845
  66.3539352 173.3087311  12.0068274  66.0030670 174.2052917  11.7015743
  67.7492828 173.1667633  12.3712769  68.1882248 172.3809509  11.7565231
  68.5130615 174.5364227  12.1307325  68.3325806 174.8425598  11.1002903
  68.0644073 175.2132874  12.8578348  70.0167160 174.2651825  12.4539909
  70.4894257 175.2135010  12.7096348  70.2813873 173.6337433  13.3021307
  70.7147675 173.7235413  11.1719189  71.7449265 173.4465790  11.3959122
  70.2606583 172.7744141  10.8872175  70.7925415 174.6956787  10.0454531
  70.0827408 174.5904236   9.3346739  71.7482147 175.6697083   9.8334475
  72.6535797 176.0092316  10.6975031  72.7242737 175.4747009  11.5515442
  73.3550262 176.6901093  10.4436131  71.7129059 176.3863983   8.7525492
  71.0428619 176.1444855   8.0365696  72.3547745 177.1545258   8.6181202
  67.9846191 172.7234192  13.8249331  68.6638412 171.7304230  14.0749283
  67.3124008 173.4280701  14.7419147  66.6962204 174.1358490  14.3684464
  67.4065628 173.2378082  16.2012863  68.4357147 173.3283081  16.5487862
  66.7427216 174.3713837  16.9222298  65.8005066 174.6159363  16.4317875
  66.4320526 174.1298981  18.4275837  67.3657761 173.9418335  18.9575748
  65.8664169 174.9521332  18.8658504  65.8963089 173.2307739  18.7319965
  67.5908890 175.7305603  16.8541794  67.7137375 176.0089722  15.8075190
  67.1613159 176.5704346  17.4002476  68.5992050 175.5338898  17.2184868
  66.7706909 171.9025879  16.5947227  67.2899170 171.1969757  17.4452133
  65.6015472 171.5733185  16.0374069  65.2068710 172.2863007  15.4407625
  64.9781799 170.3008575  16.1788445  64.6885147 170.1126556  17.2126598
  63.6080513 170.3389587  15.4830742  63.8061295 170.4558411  14.4176159
  63.0453262 169.4328308  15.7075691  63.0651550 171.2502594  15.7338390
  65.8890152 169.0665588  15.7730494  65.9603119 168.0897217  16.5251408
  66.5651627 169.1433716  14.6175938  66.4891434 170.0374908  14.1540442
  67.5459213 168.1468048  14.1605701  67.0172272 167.2056122  14.0098333
  68.0607605 168.6850586  12.7980099  68.5831299 169.6411285  12.8319874
  68.6620712 167.8566895  12.4234285  67.2258377 168.8641663  12.1205587
  68.6573792 168.0048218  15.2071791  68.9564209 166.8890991  15.5832434
  69.2004471 169.1200409  15.6540060  68.7790298 169.9894257  15.3596163
  70.4504166 169.0329437  16.4342175  70.9549866 168.1002197  16.1821365
  71.2991180 170.2094879  15.9499998  72.3073654 170.1889648  16.3636665
  71.4346008 170.1518860  14.8699875  70.6163483 171.7739563  16.5268364
  70.6456757 172.1434174  15.2432718  70.2975311 168.9103699  17.9679260
  71.2554321 168.8597260  18.7316303  69.0293808 168.8318939  18.4484367
  68.2569427 168.7387543  17.8044147  68.7237320 168.5295258  19.8687096
  69.3285370 169.1489868  20.5309639  67.2438431 168.8497009  20.1039734
  66.6804199 168.7324829  19.1782722  66.8007584 168.1000824  20.7596054
  66.8629227 170.2645874  20.6625500  67.2592468 171.0620880  20.0340462
  65.3418350 170.2238922  20.6540718  64.9501495 169.4918976  21.3603992
  64.9953461 171.1930237  21.0130062  65.0310593 170.0744019  19.6200638
  67.3527756 170.4544220  22.1379547  68.4187012 170.2433167  22.2236423
  67.1526413 171.5027161  22.3595734  66.8693008 169.7443390  22.8088799
  68.9440536 167.0287018  20.2216530  68.4602356 166.1214600  19.5008430
  69.5259094 166.7196960  21.3853264  70.3616791 167.6518097  22.0934925
  69.8155899 168.3309631  22.7481995  70.8920135 168.2202301  21.3294563
  71.2967148 166.8400116  22.9391041  70.8585892 166.8891907  23.9359608
  72.2409058 167.3837585  22.9699059  71.1674728 165.3974304  22.4861660
  71.1917953 164.7610016  23.3707409  71.9522858 165.1297913  21.7786846
  69.8101807 165.3419037  21.7965164  69.8974228 164.7362671  20.8944550
  68.7109833 164.7528992  22.6708012  68.7339172 164.9349823  23.8919239
  67.6810379 164.0718231  22.0972347  67.7934036 163.8445892  21.1195641
  66.4870071 163.4695587  22.8069363  66.8630676 163.3439636  23.8222713
  65.2820587 164.3966370  22.8739834  64.3572083 163.8198700  22.8836861
  65.3010712 165.1851654  24.1752415  66.1554337 165.8618469  24.1586342
  64.3502502 165.7175903  24.1515522  65.4617386 164.5525055  25.0481815
  65.1994553 165.3423767  21.6308556  65.8746643 166.1900787  21.7474270
  65.4904404 164.7379456  20.7717323  63.7284470 165.7366791  21.2949619
  63.3408508 166.2907562  22.1498661  63.5881805 166.3625031  20.4136162
  63.1687317 164.8283081  21.0720444  66.2118683 162.0858917  22.3525715
  66.5329361 161.7682953  21.2048054  65.5744934 161.2463226  23.2235012
  65.2798996 161.6321106  24.1092148  65.0714188 159.9466400  22.7184601
  65.8932571 159.3975220  22.2589664  64.5009003 159.2036743  23.9203281
  64.4206009 158.1399536  23.6963730  65.2217865 159.0909882  24.7301025
  63.2386398 159.7566833  24.4333057  63.3659630 160.8656006  25.0043068
  62.1912422 159.0938873  24.2757988  64.0459976 159.9774628  21.5881786
  63.3022385 160.9595795  21.4521961  63.9739151 158.9207916  20.7940140
  64.3902512 158.0218201  20.9905224  63.2066193 158.9545593  19.4783955
  63.5214348 159.8223724  18.8988342  63.3202782 157.7507782  18.6249981
  62.7777138 157.0250702  19.2308674  62.8955383 157.9195862  17.6354504
  64.7725372 157.2952423  18.4916382  65.5294952 158.1580353  18.0415459
  65.2616959 156.2597961  18.8833504  61.6617851 159.1714935  19.6841125
  60.9385796 159.8489685  18.9708595  61.0567665 158.6011200  20.7328167
  61.5968285 157.9625854  21.2991180  59.6353378 158.6863861  20.9176598
  59.1319962 158.3448486  20.0131702  59.3265266 157.6536560  22.0764523
  59.7122459 157.9493408  23.0521030  58.2660179 157.6768341  22.3272114
  59.5871353 156.6265869  21.8208885  59.2499428 160.1579590  21.2380219
  58.1528435 160.5812683  20.8249302  60.1640358 160.9932556  21.7416229
  61.0564117 160.5900726  21.9890537  60.0574455 162.4377747  21.8968716
  59.0470695 162.6801300  22.2262764  60.8879776 162.8968048  23.1030426
  60.5602989 162.3854828  24.0081825  61.9389305 162.6195984  23.0207996
  60.8385887 164.4041748  23.4778385  61.3128204 165.0219116  22.7152100
  59.5185013 164.9934845  23.6949863  58.9450302 164.3411560  24.3535461
  59.5730476 166.0123901  24.0783501  59.0569153 164.9403534  22.7089787
  61.5805931 164.6075439  24.8242989  62.5719910 164.1589050  24.7613487
  61.6022911 165.6672211  25.0787163  61.0566750 164.0663300  25.6121464
  60.4396286 163.2276154  20.5971451  59.7871246 164.2604828  20.2873058
  61.3927612 162.7667694  19.7221603  61.8679314 161.9510498  20.0812016
  61.6591301 163.3096466  18.3572655  61.6248894 164.3980255  18.3083344
  63.0497780 162.7886810  17.8360538  63.1389809 161.7273712  18.0679283
  63.1696053 162.9690552  16.7677803  64.2073059 163.6396484  18.4169197
  64.1675873 164.6709595  18.0663033  64.0978546 163.6345673  19.5014000
  65.5396042 162.9548492  18.1904621  66.3063812 163.5113678  18.7293797
  65.4016418 161.9391174  18.5610809  65.9518661 162.9475403  16.7068233
  65.5366211 162.2104034  16.1551838  66.9255371 163.6250916  16.1844692
  67.4916687 164.6177673  16.7660408  67.3314896 164.8582001  17.7338390
  67.9927216 165.2776031  16.1884117  67.2336731 163.4347076  14.9550276
  66.7474136 162.8527985  14.2879171  68.1323090 163.7585754  14.6269169
  60.5228043 162.9376526  17.3494415  60.4505730 163.6111145  16.3190575
  59.6368065 161.9064331  17.6226845  59.8615150 161.4146271  18.4757538
  58.3547935 161.6806641  17.0157871  58.4057922 161.8504944  15.9403076
  57.8430519 160.1930389  17.2155132  57.6059799 159.9780426  18.2574711
  56.4682961 160.1372070  16.6201782  56.4634781 160.5334015  15.6047421
  56.0787201 159.1201477  16.5761642  55.8328133 160.6483612  17.3433533
  58.6704330 159.0289001  16.5176468  58.7518997 159.3260345  15.4720974
  59.6822052 158.9752045  16.9195614  58.1154442 157.5788269  16.5366726
  57.3368683 157.4629517  15.7826796  58.9355392 156.9220581  16.2465038
  57.7505302 157.2922974  17.5230007  57.3411865 162.7987976  17.3545952
  56.8134842 163.3838806  16.4105110  57.1302872 163.1738129  18.6035767
  57.6837730 162.7289124  19.3217812  56.2503166 164.2342377  19.0826912
  55.2312126 164.0566101  18.7392101  56.2465630 164.3377380  20.6456623
  57.1733894 164.6552429  21.1234417  55.6081886 165.1346741  21.0270786
  55.9110336 163.0702209  21.3973904  56.6920624 162.3153992  21.3060322
  55.7376099 163.3226013  22.4434891  54.6652107 162.2366638  21.0261574
  53.6135292 162.7423706  20.5994854  54.7293739 160.9522705  21.2214375
  53.9204597 160.4123077  20.9490490  55.5750580 160.5112762  21.5537643
  56.8246384 165.5356445  18.4191856  56.0800591 166.2239380  17.7277107
  58.1401024 165.8540344  18.5428143  58.6592102 165.2322693  19.1461792
  58.7367134 167.0614166  17.9173794  58.1674614 167.9299164  18.2486877
  60.1226921 167.2899933  18.4702625  60.0701027 167.3345032  19.5580845
  60.6820374 166.4491119  18.0601845  60.9366837 168.5448761  18.0972214
  60.7914696 168.5684814  17.0171928  60.2294006 169.7805939  18.7298489
  60.3723869 169.8442688  19.8085518  60.7107887 170.6877289  18.3645039
  59.1561852 169.7664948  18.5398102  62.3298912 168.3989105  18.5128250
  62.9580688 167.6586151  18.0174007  62.8744431 169.3327942  18.3735199
  62.4092941 168.1970367  19.5810184  58.6386337 167.0744781  16.3503342
  58.2184181 168.0838013  15.7621069  58.8775330 166.0006256  15.5706005
  59.3665886 165.2165222  15.9781704  58.5952492 165.8089142  14.1183405
  59.1975784 166.5395508  13.5784750  59.0399628 164.4043884  13.7023354
  60.0871735 164.1917877  13.9173880  58.3776703 163.7331085  14.2489996
  58.8422356 163.9648285  12.2349396  57.8167458 164.1529083  11.9169750
  59.8698273 164.7175598  11.3818493  60.8813515 164.3903961  11.6224642
  59.8593788 164.4489746  10.3255100  59.7944984 165.7971802  11.5115509
  58.9209976 162.4483032  11.9839983  58.0949936 161.9346924  12.4759674
  58.8190613 162.3266602  10.9056120  59.9153366 162.1679840  12.3315802
  57.1303101 166.0841370  13.7086458  56.9324150 166.6208344  12.6123037
  56.1506996 165.6083069  14.4991627  56.4757423 165.0880585  15.3015251
  54.6484680 165.6963348  14.2211962  54.2580872 165.3755951  13.2553663
  53.8877106 164.9320221  15.3295937  54.4840622 165.0757446  16.2305984
  52.9392471 165.4206696  15.5525990  53.6637192 163.3886108  15.1503563
  53.0352478 163.2108002  14.2777109  54.5851212 162.8527374  14.9223900
  52.8133011 162.8635406  16.3846073  53.4780998 162.8342285  17.2479057
  52.1133881 163.6556549  16.6506290  52.0498619 161.5025940  16.2379894
  51.4979324 161.5977325  15.3028803  52.7738686 160.6956177  16.1253567
  51.2740440 161.2151642  17.4889317  50.7417526 162.0471802  17.6999264
  50.6019096 160.4698181  17.3757915  51.8667412 161.0996857  18.2985458
  54.1909409 167.1019135  14.2352591  53.3491058 167.5151520  13.3846512
  54.6929703 167.8649445  15.1972303  55.2218018 167.3829041  15.9100285
  54.1719055 169.2488861  15.4391861  53.2126312 169.1672516  15.9502907
  55.2000809 170.0567169  16.3115482  56.1964989 169.9700470  15.8782654
  54.8946686 171.5822296  16.2870579  53.8883896 171.7700958  16.6615238
  55.5807724 172.0347595  17.0030117  55.1047859 172.0866699  15.3439245
  55.3105850 169.5877838  17.7866974  55.7282562 168.5813446  17.8137741
  56.0397301 170.2707672  18.2225533  54.0267181 169.6415710  18.6436272
  53.2292328 169.0865173  18.1496124  54.2475014 169.2702332  19.6443596
  53.7326164 170.6816864  18.7841988  53.8830681 170.0856018  14.1269054
  54.6313324 170.1289673  13.1454754  52.7597694 170.7326813  14.1226559
  52.3642311 170.7812653  15.0507116  52.2278137 171.4528503  12.9313536
  52.1221848 170.7966309  12.0674582  51.2125359 171.7755890  13.1618948
  53.0168076 172.6902466  12.5467176  53.5139160 172.8312378  11.4482470
  53.2010193 173.6221313  13.5178461  52.8383293 173.4508057  14.4447775
  53.6579056 174.9752808  13.2831192  53.6901970 175.1132507  12.2023697
  52.5619049 175.9165192  13.8377056  51.5568504 175.6521759  13.5089369
  52.4950409 175.9218903  14.9256392  52.6792145 177.3088074  13.3639269
  51.9882622 177.4049530  12.7044239  55.0757980 175.2285919  13.8510418
  55.4116478 174.7591705  14.9869976  55.8958206 176.0848999  13.2091665
  55.5905075 176.4711761  12.3273058  57.1956787 176.4731445  13.7174950
  57.8280296 175.5874786  13.7795238  57.8848114 177.3904572  12.6938381
  57.1853523 178.1859894  12.4370022  58.7806778 177.8469238  13.1147318
  58.0361824 176.8442383  11.7627878  57.1453476 177.1537323  15.0701408
  58.0237465 176.9358521  15.8836594  56.0695534 177.8766479  15.2839718
  55.4280434 177.9530945  14.5076218  55.5821991 178.4529114  16.5809040
  56.2975311 179.1935425  16.9384747  54.2287674 179.1937866  16.4314213
  53.5201759 178.4905701  15.9938202  53.5815849 179.6805878  17.7622814
  54.2434044 180.3980103  18.2474747  52.5885620 180.1232300  17.6843586
  53.5332298 178.8386383  18.4528599  54.4278908 180.4691010  15.5437994
  54.9104462 181.2432098  16.1404514  55.0967445 180.0825653  14.7748241
  53.0791931 180.9166870  14.9769020  52.4362297 181.2242126  15.8016081
  53.2636604 181.7828217  14.3413668  52.6053085 180.1704254  14.3392344
  55.4708023 177.3785248  17.6922531  56.0186958 177.5186310  18.7469425
  54.7500343 176.2588196  17.4254704  54.4036903 176.1428680  16.4838200
  54.5928574 175.1623535  18.4185448  54.3612480 175.5274506  19.4191265
  53.4752083 174.3334198  17.7889881  53.7792206 174.0372009  16.7850323
  53.3387871 173.3898010  18.3172760  52.0564346 174.9240875  17.8115025
  51.6892738 174.9403076  18.8376751  52.1785355 175.9782562  17.5626774
  51.0993118 174.2103882  16.9118690  51.3943481 173.6195831  15.9170856
  49.7947578 174.2386322  17.2302151  49.1922607 173.6765442  16.6461334
  49.4146385 174.7637482  18.0047226  55.8659935 174.3444824  18.4987888
  56.1752663 173.8124542  19.5326824  56.6974754 174.2957611  17.4473152
  56.5189133 174.8158112  16.6001053  57.9424095 173.5410461  17.4297924
  57.7785912 172.5600433  17.8757458  58.3932228 173.3543549  15.9554987
  57.4905930 173.4044342  15.3465242  59.0104408 174.1768951  15.5941305
  59.1976700 172.0133057  15.6265869  60.2785950 172.1289520  15.7061214
  58.8190727 171.2453461  16.3011265  58.8290482 171.6035156  14.1489716
  59.1706734 170.5824127  13.9794550  57.7521858 171.5312347  13.9965191
  59.4259720 172.6060181  13.2304068  60.2297363 173.1291504  13.5472870
  58.8981628 172.9695892  12.0652990  57.8845215 172.3365784  11.5695343
  57.4678993 171.5360565  12.0230675  57.5217171 172.6924438  10.6967077
  59.4380302 173.9048920  11.3650074  60.2719154 174.3607788  11.7069244
  58.8938217 174.2925873  10.6076250  58.8960037 174.2343445  18.4392509
  59.4308853 173.6188812  19.3200779  59.0978012 175.5162811  18.2239056
  58.7621574 175.7969513  17.3135986  59.7410278 176.4515686  19.1278973
  60.8132820 176.2568817  19.1495590  59.5729904 177.9200745  18.6225204
  58.5183678 178.0441742  18.3766155  59.7224503 178.6696472  19.3996353
  60.4899979 178.2189026  17.3983116  60.4166298 177.4362640  16.6431942
  59.9282608 179.5576172  16.7637882  60.2714958 180.4162445  17.3408947
  60.3320732 179.5583191  15.7513485  58.8470764 179.5301514  16.6282043
  61.9619179 178.3806152  17.7640972  62.3695412 177.3990936  18.0060711
  62.4420166 178.8189240  16.8891735  62.0574608 179.0250397  18.6379910
  59.3923569 176.2935333  20.6347828  60.2234764 176.2845764  21.5174103
  58.1282578 176.1758270  20.8870544  57.5080261 176.3227844  20.1035900
  57.6239586 176.2133789  22.2976398  58.1434517 176.9655762  22.8912868
  56.0855408 176.3840790  22.3090839  55.7104797 175.6836243  21.5628891
  55.7350121 175.9944916  23.2648335  55.6289520 177.8362122  22.0202866
  55.7675743 178.5068359  22.8683167  56.1545410 178.2968445  21.1838207
  54.1048775 177.9399109  21.6568604  53.7314072 178.9636688  21.6803474
  54.1235237 177.4226990  20.6975708  53.3019104 177.1335907  22.6698742
  53.1013145 176.2079315  22.3191032  52.9148750 177.4530640  23.9117088
  53.2053452 178.6128387  24.4653702  53.7104530 179.2847137  23.9054127
  52.6360626 178.9046478  25.2469521  52.2732658 176.6249542  24.7078876
  52.1636734 175.6542664  24.4512596  52.3333931 176.8911133  25.6803341
  58.0411186 174.8908997  22.9871731  58.3717041 174.8720093  24.1521225
  58.0534706 173.8027802  22.1760654  57.6552811 173.8848419  21.2515049
  58.4588776 172.4698181  22.6600952  58.0582199 172.4256287  23.6728268
  57.7852211 171.4383850  21.7065220  56.7060127 171.3748169  21.8457012
  58.0778847 171.6200714  20.6723843  58.4696770 169.8543549  22.1695690
  57.5760689 169.2299500  21.3972511  60.0211220 172.3545532  22.7380676
  60.5218887 171.8471375  23.7804222  60.7431488 172.9197998  21.7782001
  60.2191315 173.3170624  21.0115891  62.1814003 173.1270905  21.8698044
  62.6848564 172.1607513  21.8411579  62.7331352 173.9108276  20.6657486
  62.0515366 174.7425995  20.4877110  63.6911888 174.3206940  20.9855118
  62.8291016 173.1573792  19.3526840  63.7535553 172.5850830  19.2755089
  62.0953255 172.3535461  19.2933121  62.7162895 174.1276550  18.1913166
  63.5345230 175.0677795  18.0758305  61.7486801 173.8924408  17.3803101
  62.6052513 173.8036804  23.1694107  63.5281067 173.2754211  23.8333588
  61.9272842 174.8176422  23.6835384  61.0588684 175.0168610  23.2078667
  62.2173042 175.4883881  24.9274445  63.2960243 175.6257324  25.0023155
  61.5546608 176.9379578  24.9080811  60.5095062 176.7930908  24.6346378
  61.5541496 177.3895874  25.9001122  62.2735405 177.9475250  23.9610157
  62.3402977 177.4760590  22.9805241  61.5217667 179.2606049  23.8052082
  61.5036163 179.8615417  24.7144184  61.9663582 179.8685608  23.0172787
  60.4896011 179.0132904  23.5570831  63.6407776 178.3274384  24.4077206
  64.2632980 177.4377289  24.5026665  64.1490402 178.9439545  23.6663284
  63.6284409 178.8311615  25.3742599  61.7504692 174.7592316  26.1757221
  62.3764343 174.8862152  27.2086391  60.7146263 173.9139862  26.0900440
  60.2327690 173.8989105  25.2025280  60.2029037 173.0017700  27.0918407
  60.0251427 173.5424652  28.0214329  58.8327103 172.4687195  26.6681023
  58.1349983 173.2982178  26.5529766  58.9180374 171.8757935  25.7574673
  58.2330666 171.5613708  27.7061787  58.4244003 171.7346191  28.9101925
  57.4198341 170.7111359  27.3489399  61.1955719 171.8364258  27.4268532
  61.6576462 171.7013397  28.5384064  61.6954041 171.2174835  26.3656540
  61.3378639 171.4811707  25.4586086  62.8543549 170.3107300  26.4035072
  62.6402740 169.4495850  27.0365238  63.1685486 169.7468719  24.9902229
  63.3882599 170.5656891  24.3051147  64.3891678 168.8496246  25.0872631
  64.1832886 168.0811768  25.8323936  64.5822067 168.4282837  24.1006947
  65.2815857 169.3919220  25.3996849  61.9974785 168.8314819  24.4872055
  62.1195717 167.8408203  24.9251614  61.0274124 169.2691193  24.7228794
  61.9014893 168.6679535  22.9417400  62.8682365 168.2974396  22.6008263
  61.0981674 167.9949951  22.6418991  61.6709328 169.6591797  22.5513287
  64.0822983 171.0627289  26.9948006  64.6688004 170.5970154  28.0062847
  64.5208054 172.2254791  26.5596733  64.0813904 172.5936890  25.7281437
  65.6806870 172.9694519  27.1470585  66.6033554 172.3912506  27.0971355
  65.9422455 174.2823334  26.3292828  65.1017532 174.9710388  26.2436008
  66.6940842 174.8777618  26.8472710  66.5453186 173.9371796  24.9677105
  67.4427261 173.3237457  25.0480957  65.8171158 173.2760010  24.4979496
  66.8015289 175.3047943  23.7211437  67.2891006 174.4267120  22.2284813
  66.4949646 173.8145599  21.8010292  67.6240616 175.1635590  21.4984379
  68.1646194 173.8159180  22.4487362  65.4509354 173.4347382  28.5574150
  66.3352280 173.8449554  29.2900295  64.2108765 173.3978271  29.0922050
  63.4045715 173.1976471  28.5178299  63.9621773 173.7609100  30.4676285
  64.7256317 174.4810333  30.7620163  62.5850906 174.4775848  30.6441784
  61.7579727 174.0695496  30.0632496  62.3198776 174.3790588  31.6968212
  62.6146393 175.9871521  30.4338322  63.3791962 176.6018829  29.7813206
  61.6850586 176.6547241  31.0615025  61.7856903 177.6528320  30.9441109
  60.9587593 176.1637268  31.5630169  64.0427094 172.5392609  31.4257507
  64.5884552 172.5489502  32.5546684  63.5821609 171.4147339  30.9019489
  63.1512108 171.4999390  29.9924850  63.4542007 170.2029572  31.7641926
  63.2357063 170.5508881  32.7737961  62.1479187 169.4378815  31.3578339
  62.1996689 169.3120422  30.2763596  62.1135788 168.4095917  31.7177734
  60.8880920 170.2053223  31.7627964  60.8983994 170.2411041  32.8521614
  60.9092331 171.1929626  31.3021259  59.6493225 169.5110931  31.2022381
  59.6557121 169.4217529  30.1159229  59.5689545 168.4916687  31.5796127
  58.3954163 170.3200836  31.6219845  58.2643127 170.2088470  32.6983376
  58.6461945 171.3596802  31.4111614  57.2079926 169.8477325  30.8943005
  57.0411682 168.8599243  31.0227108  56.4106140 170.4445648  31.0619106
  57.3582573 170.0376434  29.9137630  64.7171555 169.2454834  31.7304707
  64.7802887 168.2015839  32.3981361  65.6714172 169.5506287  30.8781376
  65.4563370 170.3503723  30.2999973  66.8934631 168.8375702  30.5684414
  66.8114624 167.8104706  30.9240074  67.1596451 168.9660492  29.1049004
  66.3195038 168.6119690  28.5074902  67.3987808 170.0008850  28.8598747
  68.6159973 167.9635162  28.7628555  68.3107986 167.7073669  27.4876537
  68.0264130 169.4344025  31.4867783  68.1594467 170.6150665  31.6068802
  68.7970200 168.5684509  32.1281891  68.7342987 167.5941467  31.8695755
  70.0123596 168.8729095  32.8717117  70.4939499 169.7738800  32.4916840
  69.7730484 169.0593262  34.3959312  70.6796570 169.2810974  34.9589424
  68.7225494 170.1159515  34.6066589  67.7585297 169.6442261  34.4162941
  68.7291489 170.4864502  35.6317368  68.8624954 170.9810486  33.9585075
  69.1803131 167.8788452  34.9223785  68.9484329 168.0063782  35.8451843
  71.1237869 167.8884125  32.7877350  72.2897873 168.3045349  32.8172302
  70.7679443 166.6164093  32.6115265  69.8104095 166.4765320  32.9007454
  71.6928329 165.4548645  32.6729698  72.7293320 165.7910004  32.6453171
  71.5905838 164.8524323  34.1083260  71.8607178 165.5472870  34.9034996
  70.5858459 164.4398346  34.1998367  72.5699310 163.7451782  34.2260323
  72.6338959 163.4541626  35.1386185  71.5322495 164.4777832  31.4221992
  70.4339905 164.3410645  30.8843460  72.6072769 163.7553864  31.0314140
  73.4730377 163.8757935  31.5374355  72.5265121 162.7577209  29.9859276
  71.4840698 162.5319366  29.7613239  73.1371689 163.3712006  28.6831989
  74.0658340 163.8118439  29.0458336  73.4952927 162.6493835  27.9491386
  72.3968658 164.5512695  28.0244446  72.1670609 165.3091736  28.7733498
  73.1515961 165.2771912  26.9015007  73.4296341 164.6808014  26.0325260
  72.5366516 166.1004944  26.5380402  74.0492401 165.6386108  27.4031982
  71.0123901 164.0526733  27.5316105  70.4292068 163.5404205  28.2968578
  70.4288101 164.7953644  26.9875965  71.3109970 163.2969208  26.8051319
  73.2671356 161.4679565  30.3608780  74.5025482 161.3834076  30.3922043
  72.4587097 160.4965057  30.8437386  71.4887619 160.7598267  30.9435482
  72.9328079 159.2602997  31.4350376  73.8720398 159.3321991  31.9834595
  71.7496262 158.7843628  32.3783073  70.9075928 158.4859161  31.7538052
  72.0308990 157.8440552  32.8524590  71.4549866 159.9920197  33.6845055
  72.4155426 159.5961304  34.5244446  73.1392975 158.1464539  30.2683697
  72.9450150 158.4133148  29.0728321  73.4727325 156.9077606  30.6047039
  73.6843796 156.7552643  31.5804386  73.4437408 155.7256317  29.7435760
  73.5773926 156.0979309  28.7278862  74.5935516 154.7819977  30.0931168
  75.5345993 155.3237152  29.9978676  74.6280670 154.4581604  31.1333294
  74.5653458 153.4135895  28.8273659  74.6433182 152.3920898  29.6849098
  72.0122223 155.1652374  29.7925034  71.4547424 154.9886780  30.8782043
  71.4366379 154.7868042  28.6435452  72.0780716 154.8948517  27.8708973
  70.1099930 154.2123566  28.4955292  69.4017715 154.8948517  28.9653416
  69.7875290 154.1070862  27.0008812  70.0763016 155.0844116  26.6141682
  70.4558334 153.3746490  26.5481033  68.2808456 153.9352570  26.6306801
  67.8995209 153.1903076  27.3290558  67.8155365 154.9187622  26.6963654
  68.1389313 153.4089966  25.1797256  68.9894257 152.7667236  24.9511871
  67.2441025 152.7954254  25.0752602  67.9930267 154.5215454  24.0874805
  67.1488266 155.1169434  24.4352264  68.8891068 155.1413269  24.1195087
  67.8209839 153.9968719  22.7189751  67.0464783 153.3556061  22.6240597
  67.5521774 154.7288666  22.0770760  68.6314774 153.5599060  22.3039455
  69.9704514 152.8100433  29.1109314  68.9585419 152.4493408  29.7572289
  71.0398331 151.9855499  28.9774208  71.9135513 152.2874756  28.5705471
  70.9765549 150.5941162  29.5153713  70.0039825 150.1921692  29.2313824
  71.9626083 149.7219696  28.7749119  71.6703720 149.8624573  27.7342587
  72.9484177 150.1507111  28.9551315  71.8847961 148.2041473  29.0678253
  71.8831787 148.0303345  30.1438770  70.9487915 147.8269806  28.6558189
  73.0700302 147.4066162  28.3973980  74.1610947 147.9355316  28.0597153
  72.8804169 146.1358795  28.0913048  73.6512985 145.6101685  27.7046928
  72.0913162 145.5789032  28.3866043  71.0103455 150.5422363  31.0357819
  70.3667068 149.6976013  31.6986179  71.7280121 151.4403992  31.6750431
  72.4069214 151.9312897  31.1109314  71.7283859 151.6881104  33.1981544
  71.8583832 150.7748260  33.7787704  72.9367523 152.5981750  33.4714966
  72.6631317 153.6259460  33.2329407  73.1020813 152.5315399  34.5468216
  74.4551163 152.1292419  32.5907669  74.9707031 151.2287292  33.4322815
  70.4569016 152.4225311  33.6886177  70.0572662 152.2778473  34.8946304
  69.8600769 153.2222137  32.7720299  70.3625031 153.2842255  31.8980618
  68.9678192 154.3980560  33.0119209  68.8611755 154.8689117  32.0346680
  67.5592575 153.9459076  33.4048462  67.6149216 153.4578705  34.3778954
  66.9021454 154.8118286  33.4853745  67.0299377 153.0304108  32.3424530
  67.1168442 153.5129547  31.3689480  67.5133209 152.0535431  32.3555756
  65.5732651 152.5527954  32.6538506  65.0307007 152.4851532  33.7060928
  64.7298737 152.5516052  31.6265202  63.8153572 152.1826782  31.8447990
  65.1184387 152.6593933  30.7005062  69.4860764 155.4703217  34.0265884
  69.2048492 156.6501465  33.7905426  70.2539749 155.1399536  35.0083771
  70.2654495 154.1396027  35.1471138  70.5840607 155.9960175  36.1414337
  69.7850952 156.7349396  36.2025909  70.5823059 155.2173309  37.4984474
  70.8045273 155.9549408  38.2695923  69.6122055 154.7275238  37.5826607
  71.6608429 154.1162567  37.6853600  72.1279526 153.5555878  36.6908226
  71.9935913 153.7826538  38.8345261  71.9620132 156.6916504  36.0209465
  72.0510483 157.9053040  36.2672615  73.0211105 155.9975281  35.5703087
  72.9081573 155.0002136  35.4576569  74.3727722 156.5176239  35.5720100
  74.5969925 156.6493683  36.6305351  75.3501892 155.4980927  35.0650787
  75.1749115 155.3185883  34.0043449  76.7300491 156.0661926  35.3443832
  76.8157654 156.2265167  36.4191170  77.4185257 155.2994537  34.9891396
  76.9213715 157.0093689  34.8326073  75.3770142 154.2242889  35.6445999
  74.6709518 154.1594086  36.2917938  74.5060654 157.7822418  34.7149010
  74.4654312 157.7180023  33.4972839  74.8984146 158.9281921  35.3207588
  75.0046616 158.8421631  36.3214645  75.1877747 160.2083740  34.6878357
  74.4028244 160.5353851  34.0059052  75.3474121 161.2824554  35.7574768
  74.4216232 161.5352631  36.2743073  76.1179733 160.8999481  36.4268112
  75.8175201 162.6231995  35.1508369  76.7623901 162.4223938  34.6458740
  75.1374969 162.8128967  34.3203659  76.0552216 163.7749481  36.1121330
  76.2439346 163.5209656  37.3514481  76.1202316 164.9848328  35.6582222
  76.4899216 160.0827789  33.8498764  77.5503998 159.8237610  34.3572311
  76.4025574 160.3824463  32.5012817  75.5238419 160.6181793  32.0626602
  77.5468063 160.3668976  31.6048889  78.3634109 159.8860474  32.1434479
  77.2258606 159.5109100  30.3556042  76.1422424 159.3974304  30.3240662
  77.5760651 160.0554962  28.9663486  78.6465149 160.2552032  28.9178429
  77.2618866 159.3643646  28.1842136  77.0992584 161.0103760  28.7450905
  77.7686310 158.0737152  30.4470768  77.4954224 157.4705200  29.5812759
  78.8555984 158.0542145  30.3682098  77.3330688 157.2682037  31.7189312
  76.2849579 157.4141693  31.9802036  77.6432266 156.2381897  31.5429287
  77.9086838 157.6142883  32.5774231  78.0325851 161.8109283  31.3416271
  79.2182922 162.0103455  31.4454556  77.1339188 162.7402039  30.9653301
  76.1393127 162.5807495  30.8915958  77.4362411 164.2039185  30.8510342
  78.2133408 164.4527130  31.5737438  77.9999313 164.4878235  29.4099445
  78.9108353 163.9307404  29.1908379  76.8912430 164.3692780  28.3152809
  76.1127548 165.0808411  28.5904827  77.2354202 164.6193542  27.3117371
  76.3704147 163.4174042  28.4192085  78.3648224 165.8892212  29.3811932
  79.2963943 165.9560089  29.6032581  76.1983566 165.1258087  31.1990833
  75.0903702 164.6497345  31.3947563  76.4892578 166.4098663  31.3929081
  77.4303665 166.6870728  31.1529808  75.5291595 167.4554596  31.7255898
  74.5588455 167.0028381  31.9298820  75.9407043 168.1637268  32.9986992
  75.6614532 167.5286255  33.8393936  77.4452515 168.5743561  33.0531883
  77.4757919 169.2537231  32.2013512  77.6605835 169.0268402  34.0211716
  78.0969238 167.7076874  32.9422455  75.2679291 169.3799286  33.2041245
  74.4774704 169.1721802  33.7077179  75.2659454 168.4250336  30.5807304
  76.1253052 168.6988068  29.7382278  74.1091156 169.0897217  30.6340160
  73.3726807 168.8548737  31.2840977  73.7893906 170.1933746  29.7794209
  73.7842636 169.7467194  28.7851543  72.3740463 170.6552124  30.1883144
  71.6865997 169.8122406  30.1182079  72.3914566 170.7768097  31.2713757
  71.8653412 171.9048157  29.4878693  72.5731506 172.7014771  29.7168713
  71.8277435 171.7608948  28.4080658  70.5060349 172.3721466  29.9387264
  69.8104553 171.6800995  29.4640274  70.4524765 172.2864990  31.0240345
  70.2375107 173.7747650  29.4274139  71.1396942 174.3810577  29.5084858
  69.9455032 173.7651367  28.3773003  69.1527100 174.5431824  30.1384506
  69.2542191 174.6785583  31.1341763  69.0733643 175.4288788  29.6595287
  68.2342758 174.1237946  30.1121216  74.8436279 171.3811188  29.8861427
  75.0553665 172.1484985  28.9420967  75.5338440 171.5098267  31.0128880
  75.3433533 170.8089752  31.7147446  76.5792236 172.5662537  31.2273922
  76.2945938 173.5345154  30.8156204  76.7246704 172.7544556  32.7183723
  77.2304001 171.8877716  33.1440468  77.4696808 173.5137787  32.9560623
  75.4606934 173.0810547  33.5105057  74.8048553 174.0868683  33.2218208
  74.9089127 172.2833710  34.3809891  74.0228195 172.6113739  34.7378540
  75.2961960 171.3898773  34.6488914  77.8516388 172.3207855  30.3596802
  78.6628494 173.2351074  30.1823940  77.9917450 171.1427307  29.7587624
  77.2499619 170.4660034  29.8678055  79.2091141 170.7724457  28.9452038
  79.9485321 171.5646667  29.0624409  79.8984375 169.5032349  29.5497303
  79.1169434 168.7517242  29.6620617  80.7123947 169.1604156  28.9109402
  80.3786469 169.7194519  30.9864540  79.5457611 169.8907776  31.6683998
  80.8738480 168.7944794  31.2819023  81.4452362 170.8298187  31.2078876
  81.9845810 171.3812561  30.2149181  81.7486649 171.1035004  32.4024506
  78.8989792 170.6522369  27.4633961  79.7622604 170.2894745  26.6518440
  77.6518555 170.8862762  27.0522919  76.9649124 171.2222595  27.7120838
  77.2630997 170.8939209  25.6435585  77.7157745 170.0459747  25.1295834
  75.7012177 170.7650299  25.4710274  75.2556839 171.6367493  25.9503021
  75.3422089 170.8852539  24.0073681  75.9268265 170.1663055  23.4333973
  74.2855911 170.7460785  23.7786961  75.6374435 171.8527222  23.6012497
  75.1631927 169.4280396  26.0858650  75.6233444 168.5815430  25.5761375
  75.3488846 169.4114532  27.1598034  73.6062241 169.4106903  25.8933125
  73.2945480 169.2033997  24.8695965  73.1265945 168.6127625  26.4602013
  73.1822739 170.3501587  26.2479534  77.8155212 172.1710663  24.9760036
  77.7407608 173.3017120  25.5354500  78.4858170 171.9837494  23.8047981
  78.3233871 171.0807495  23.3825188  79.0236588 173.0679779  22.9775143
  78.2843323 173.8670654  23.0318279  80.4036713 173.4917297  23.4196873
  80.5725174 174.5474701  23.2075462  80.4202499 173.2707214  24.4869175
  81.5607071 172.6947021  22.8600960  81.6970291 171.3320465  23.1944275
  81.0186920 171.0398407  23.9823818  82.6134338 170.5012970  22.5048218
  82.7821350 169.4599762  22.7363300  83.3296967 171.0477295  21.4432049
  83.9470444 170.4506531  20.7884045  83.1185226 172.3858185  21.0122681
  83.7478943 172.8020630  20.2395916  82.3373795 173.2119293  21.8441315
  82.2616196 174.2530060  21.5669308  78.8552704 172.6579437  21.4810886
  78.6724091 171.5226746  21.0807476  78.9051514 173.6918945  20.6395340
  78.9699173 174.5814514  21.1134567  78.6150055 173.5859222  19.1687431
  78.0451202 172.6829071  18.9498978  77.6870117 174.6545868  18.8030796
  78.0114975 175.6171265  19.1984615  77.5893250 174.7708130  17.7237034
  76.4429092 174.3041229  19.3522224  75.8483963 175.0542450  19.2782135
  79.9583664 173.5459595  18.3787708  80.3836288 174.5778198  17.8478985
  80.5293655 172.3241425  18.2472725  80.1321259 171.4892120  18.6537170
  81.6775055 172.2104340  17.3521538  82.3802490 173.0370331  17.4569969
  82.3673935 170.8995514  17.7467213  82.3634491 170.8014679  18.8322906
  81.6978989 170.1055603  17.4158859  83.7810974 170.6422119  17.1838589
  83.8079605 170.6664429  16.0944595  84.8890076 171.6203003  17.7127266
  84.7957153 171.7369843  18.7924366  85.8785553 171.2419891  17.4562626
  84.8216553 172.6529541  17.3703880  84.2788010 169.2103882  17.4564762
  83.6994400 168.5480499  16.8132343  85.3421021 169.1224365  17.2333889
  84.1631546 168.8615417  18.4826527  81.2703094 172.1436768  15.8621750
  82.0790100 172.5518341  14.9869652  79.9870758 171.7722015  15.5992079
  79.3379059 171.6407928  16.3617172  79.4739151 171.9179993  14.2603064
  80.2373734 171.9813690  13.4849205  78.6433563 170.7145538  13.9364853
  79.3190460 169.8611145  13.8800344  77.9407272 170.5713806  14.7574148
  78.0180130 170.8087616  12.6722755  77.5104141 170.0418854  12.3968773
  78.7269363 173.2300110  14.0483770  78.1986465 173.8327026  15.0083113
  78.6414871 173.6910095  12.7729950  79.1496887 173.2079315  12.0460377
  77.8048782 174.8283997  12.3168316  77.9128494 175.7585907  12.8746862
  78.1436157 175.1441193  10.8523111  78.1184616 174.2171631  10.2794008
  77.2700882 175.6281738  10.4155855  79.3002167 176.1443176  10.6277170
  80.2107773 175.7924194  11.1126537  79.4840393 176.2016907   9.0878773
  78.4876480 176.3480988   8.6709070  80.1626816 177.0115814   8.8202658
  79.8423080 175.2431641   8.7124062  78.9583740 177.5808563  11.0589199
  78.9618073 177.6500092  12.1467180  79.7974701 178.1438446  10.6502018
  77.9867096 177.8416443  10.6394396  76.2670670 174.5128174  12.3944130
  75.4180374 175.4088440  12.3192215  75.9237671 173.2293396  12.6651011
  76.6061020 172.4884186  12.7395983  74.5166931 172.9451294  12.9002151
  73.9391251 173.4474945  12.1242342  74.2649231 171.4920807  12.5944004
  74.8424301 170.9094086  13.3120880  73.1991196 171.2655792  12.6237431
  74.7600479 171.0862885  10.9018488  74.8105087 169.7560577  11.0151129
  74.0725937 173.2702484  14.2909145  73.0145874 173.8509979  14.4644279
  74.9468155 173.0565186  15.2986803  75.8562088 172.6857605  15.0627775
  74.6923294 173.2165680  16.7467384  74.9043045 174.1862183  17.1972046
  73.6145782 173.1272888  16.8830509  75.4781570 172.1478119  17.5767155
  76.5083923 171.6373749  17.0946655  75.0279083 171.7130432  18.7618370
  73.7780991 172.1041412  19.3871746  72.9607239 172.3688812  18.7164211
  73.9800568 173.0474548  19.8945980  73.5314407 170.9603271  20.3408661
  73.2569962 170.0286255  19.8461723  72.8571777 171.3120270  21.1217461
  74.9128342 170.8031158  20.9398155  75.0477982 169.9183960  21.5620346
  75.2006912 171.7024384  21.4843102  75.7873993 170.8044586  19.6334248
  76.7624893 171.2678528  19.7836380  75.9083786 169.3726044  19.0478363
  76.7097549 168.5317535  19.5027122  75.1379547 168.9250793  18.0352955
  74.5370331 169.6263275  17.6263561  74.8399811 167.5406189  17.5893841
  75.6561966 166.8529968  17.8109055  73.6168594 167.0372620  18.2648354
  73.6130066 167.4058838  19.2906094  72.7641602 167.5609283  17.8326492
  73.3810120 165.5062103  18.4004841  73.6752777 165.0304413  17.4649925
  73.9949417 165.0723724  19.1897774  71.7663498 164.9269867  18.8571529
  70.9445343 164.8880310  17.2910767  71.5305328 164.2078705  16.6729527
  69.8728638 164.6913757  17.3218784  70.9923553 165.8946991  16.8758488
  74.6594238 167.3988495  16.0775394  74.0143509 168.2266541  15.4463396
  75.1916885 166.3420563  15.4769440  75.7768173 165.7233276  16.0199966
  75.0694733 166.1408386  14.0306845  74.0790863 166.4358215  13.6839561
  76.1000748 167.0961761  13.4292765  77.0503769 166.6004944  13.6276140
  76.0985565 167.1380310  12.3400812  76.0630722 168.0871735  13.8816538
  75.2498703 164.6338806  13.7161369  75.4351044 163.7908630  14.6005669
  75.1864395 164.3024597  12.4588537  75.3063278 165.0853424  11.8321085
  75.2348251 162.9392242  11.9445219  75.1197357 162.2432404  12.7754583
  73.9181366 162.7146149  11.0745163  73.9233704 163.3696594  10.2033157
  73.9065094 161.7230835  10.6219225  72.9973755 162.8350372  11.6453009
  76.4670868 162.6448517  11.0674162  76.7498398 163.4031525  10.1549644
  77.0176315 161.4681091  11.2605705  76.6152039 160.9521179  12.0299358
  78.2356339 160.9377594  10.6504049  78.5237656 161.4906921   9.7563438
  79.4602280 161.2724304  11.5862522  79.3323898 160.7189789  12.5165434
  80.3849335 160.9933167  11.0811605  79.5440826 162.7251282  11.9826355
  80.0356522 163.6653900  11.0825653  80.3102798 163.4067993  10.0705833
  80.1782532 164.9792938  11.4655504  80.4819107 165.7077637  10.7283058
  79.7767029 165.4289398  12.7320633  79.8392334 166.7238617  13.0760641
  79.9298096 167.3322906  12.3390360  79.2066727 164.4843750  13.6287575
  78.8770523 164.6650391  14.6412344  79.0934525 163.1314545  13.2258043
  78.7436905 162.3879395  13.9266930  78.2058868 159.4106598  10.3363876
  77.3313141 158.7273560  10.8219080  79.1820602 158.8066711   9.6060352
  79.9356232 159.4015198   9.2923498  79.1969910 157.3391418   9.2418652
  78.4972382 156.7449036   9.8294954  78.6805801 157.1253204   7.8073163
  78.8205719 156.0729370   7.5603542  77.1975327 157.4690704   7.6390200
  77.0112762 158.5357513   7.7638693  76.7131500 157.1361847   6.7210546
  76.6747284 156.8423309   8.3615026  79.3483047 158.0086212   6.7267599
  80.3676147 157.6945953   6.5020409  78.8424454 157.8305664   5.7778115
  79.1846161 159.0456085   7.0199633  80.5577469 156.6359253   9.4250669
  81.5990372 157.1559906   9.0020380  80.5776672 155.4112091   9.9029913
  79.7340393 155.0450592  10.3205080  81.7142868 154.5245819   9.8701134
  82.5912933 155.1220856  10.1190062  81.5739441 153.4543304  11.0168505
  82.5727158 153.0733948  11.2300520  81.1826782 153.9423828  11.9094896
  80.6369476 152.3092499  10.8292160  79.9027328 152.1972504   9.8558273
  80.7397079 151.4468536  11.7652254  80.2517700 150.5631561  11.7322369
  81.3616562 151.6034546  12.5454559  81.9257584 153.8988495   8.4423065
  81.0490570 154.0359650   7.5998759  83.0330505 153.0611420   8.2359152
  84.2403107 152.9527588   9.1220951  84.1433182 152.0994568   9.7933378
  84.5534134 153.8270569   9.6927662  85.3658524 152.4851990   8.2202234
  86.1947632 151.9860840   8.7221174  85.7448273 153.3157043   7.6246214
  84.6171036 151.5044250   7.2919230  84.4407730 150.6047211   7.8814583
  85.0177155 151.2283936   6.3165183  83.3097687 152.2105560   7.0651689
  83.5228882 152.9320221   6.2763925  82.1715775 151.2973785   6.5291939
  82.1219406 150.8914032   5.3609014  81.1348267 151.0476837   7.3768778
  81.3087540 151.3047638   8.3380022  80.0548935 150.0523224   7.1462646
  80.1276627 149.7541351   6.1003675  80.2700577 148.8899841   8.1463079
  79.7875748 149.2583008   9.0516558  79.7269669 148.0036621   7.8183346
  81.6773529 148.4881134   8.4821739  82.5049744 149.1366425   9.4165621
  83.5899582 148.3677979   9.6248865  84.3555832 148.5044861  10.3742428
  83.5162201 147.2956390   8.8372984  84.0897675 146.4770203   8.9822121
  82.2978897 147.3043365   8.1520491  81.8998947 146.5073395   7.5414639
  78.7165604 150.7621918   7.2006378  77.7556381 150.0781860   7.5080667
  78.6844940 152.0674286   6.9000359  79.5373764 152.5489349   6.6533713
  77.4626770 152.7967377   6.6318545  77.7634201 153.7817383   6.2748604
  76.9313507 152.2774048   5.8343000  76.4934311 153.0283356   7.8248420
  75.5167770 153.7168732   7.6643062  76.8064499 152.5652008   9.0454340
  77.6368332 152.0045013   9.1726217  75.9964600 152.8614502  10.2757673
  74.9695816 152.5162964  10.1553469  76.5979385 152.0496674  11.4445372
  76.9294128 151.0685120  11.1045866  77.4749298 152.6240082  11.7430639
  75.7411499 151.8171082  12.7049685  75.0627060 150.5826263  12.8725758
  75.4465256 149.7471466  12.3059406  74.0576706 150.3895874  13.8121853
  73.6157532 149.4118195  13.9349918  73.6943970 151.5179749  14.6414862
  72.8101425 151.3264771  15.6664267  72.4408264 150.4409943  15.6330776
  74.3183746 152.7377777  14.4114294  74.0220413 153.5350189  15.0770197
  75.3514786 152.9339142  13.4697886  75.8919983 153.8602600  13.3427935
  76.0067139 154.3769836  10.4967127  77.0970306 154.9603729  10.5605555
  74.8088913 154.9797516  10.5968246  74.0131836 154.3648682  10.5026150
  74.6875305 156.4166870  10.9292545  75.4607773 156.9228058  10.3513126
  73.4581604 157.1200409  10.4573317  72.6232986 156.5735931  10.8960800
  73.4214630 158.5858459  10.9847050  74.3829575 159.0796661  10.8440847
  72.7237167 159.2413788  10.4636202  73.1209259 158.5605316  12.0321465
  73.4741898 157.0274658   8.8511133  74.1154022 157.8326874   8.4925613
  73.8304749 156.0967407   8.4096184  72.0968933 157.2365265   8.3137350
  71.7019882 158.2088013   8.6084194  72.1040421 157.1413574   7.2279220
  71.4012451 156.5009460   8.7175903  74.9406967 156.5034332  12.4339342
  74.1720428 155.9833221  13.2161293  76.0114899 157.1728516  12.7854366
  76.6945648 157.4979248  12.1162271  76.0845413 157.6761017  14.1594601
  75.4310608 157.1125793  14.8254194  77.5072632 157.4057770  14.7121181
  78.2016678 157.7752075  13.9575167  77.6989365 157.8426514  15.6921673
  77.7536850 155.9352417  14.8120270  77.2682953 155.0503693  15.7889767
  77.7834854 153.8471222  15.4627409  77.4853668 152.8738556  15.8237190
  78.5787506 153.9542694  14.3853931  79.0919266 153.1745148  13.9997349
  78.5661469 155.2578125  13.9395218  79.1521683 155.6781006  13.1355696
  75.5917206 159.1355743  14.2645483  75.9810486 159.9550629  13.4668465
  74.7232590 159.4186554  15.2020330  74.3700790 158.6662140  15.7757845
  74.2741089 160.7294006  15.6075659  74.6200562 161.4939575  14.9119625
  72.7394333 161.0336456  15.8268213  72.3699951 160.2891083  16.5320091
  72.6798477 161.9882355  16.3496113  71.9758453 161.0550537  14.5375996
  72.5052109 161.6371002  13.7832155  71.8769913 160.0282440  14.1854744
  70.5142975 161.4320221  14.7507915  69.8515015 160.7419281  15.5214005
  70.0485458 162.4749756  14.2028389  75.0577545 161.0123749  16.9177132
  74.8615036 160.2937164  17.8461151  76.0181274 161.9417114  16.8841724
  76.0962830 162.6501923  16.1685867  76.9038544 162.1262054  18.0417461
  76.5271988 161.5214996  18.8667145  78.3368607 161.6272278  17.7035446
  78.9447784 161.6423798  18.6081505  78.3774109 160.2117157  17.1259251
  78.2442627 160.3278656  16.0503407  79.3845596 159.8212738  17.2719345
  77.6110458 159.5366821  17.5068893  78.9949646 162.3876953  16.7553482
  79.9305878 162.2838593  16.9435787  76.9185410 163.5324860  18.4960976
  76.5502548 164.5091095  17.7995682  77.1440735 163.7247620  19.8068867
  77.2618484 162.9458008  20.4388981  76.9184189 164.9594879  20.5811977
  76.4525375 165.7052917  19.9371204  75.8903656 164.6353302  21.7506847
  74.8997574 164.4053040  21.3584080  76.2216415 163.7649994  22.3171406
  75.6524582 165.8586273  22.6921711  76.6277084 166.3024292  22.8922367
  74.8644943 167.0146942  22.0495758  73.9469681 166.6714630  21.5716362
  74.6314316 167.8570557  22.7009029  75.4469452 167.3988037  21.2121334
  74.9965744 165.5683594  24.0904713  75.5162354 164.7440643  24.5789471
  74.9402618 166.4515686  24.7267609  73.9975891 165.1441498  23.9895859
  78.2773514 165.4389038  21.0777817  78.9179077 164.6934509  21.7860489
  78.6856537 166.6413116  20.6890564  78.1194382 167.1705780  20.0414639
  79.9046478 167.2709808  21.0949612  80.5997314 166.4508972  21.2750301
  80.4322662 168.1761017  19.9452171  81.3786240 168.5662079  20.3198242
  81.0342407 167.3297119  18.8142395  80.2614212 167.0741730  18.0892887
  81.7385406 168.0362549  18.3750839  81.5614090 166.4560699  19.1975727
  79.6874237 169.2499237  19.4056072  79.7789307 169.8941040  20.1114941
  79.8181305 168.0778198  22.4849415  79.0422516 169.0350800  22.6781902
  80.5976257 167.5393829  23.4161892  81.2339172 166.7829437  23.2087193
  80.6779022 168.0488739  24.7996025  80.3572617 169.0892944  24.7464008
  79.7924805 167.2135162  25.7981148  79.7044907 167.7005463  26.7692776
  78.3193130 167.0690308  25.4300385  78.1583939 166.5836487  24.4674358
  77.7411423 166.6360474  26.2463360  77.9636841 168.0612030  25.1521282
  80.3642349 165.8212891  26.0086040  81.4103622 165.7708130  26.3105545
  79.7884293 165.4120483  26.8387089  80.1658478 165.3081512  25.0676327
  82.1132584 168.1452637  25.3104038  82.9241180 167.3117523  24.9309330
  82.4324493 169.0824127  26.2263565  81.7537079 169.6861267  26.6678658
  83.8610001 169.2900543  26.6349640  84.5045929 169.1949768  25.7604084
  84.1045837 170.6406860  27.2562008  83.4724579 170.8089752  28.1280975
  85.1208801 170.6654205  27.6494350  83.9819565 171.8340302  26.3271160
  84.9955597 172.1110535  25.3577690  85.8221436 171.4188995  25.2937851
  84.8994827 173.2561035  24.5132103  85.6317368 173.5094757  23.7608757
  83.8592377 174.1594086  24.7773972  83.7625809 175.2841797  24.0500088
  84.2252731 175.1630096  23.2176418  82.8335571 173.9067230  25.7353306
  82.1006012 174.6829376  25.8986206  82.9118347 172.7426758  26.5485687
  82.1340637 172.4993591  27.2572823  84.2786636 168.2849579  27.6727562
  85.4815369 168.0581665  27.8094387  83.3526917 167.7257385  28.4572296
  82.3724594 167.9491425  28.3605728  83.6826248 166.7875671  29.5110359
  84.6598129 166.3594208  29.2876587  83.8614731 167.5731964  30.8474083
  84.5660248 168.3864594  30.6733704  82.9306793 168.0602112  31.1381817
  84.3832016 166.8177185  32.0240936  83.7602081 165.9556580  32.2624664
  85.4059448 166.5334015  31.7765694  84.5241852 167.8121643  33.2407265
  85.1357651 168.6740417  32.9738159  83.5586548 168.3179321  33.2481766
  84.8628235 167.0645752  34.5898743  84.6095123 167.7319489  35.4136200
  84.2355423 166.1733551  34.6087189  86.3026199 166.8237457  34.8356590
  86.8931503 167.6001740  34.5738602  86.4669113 166.6741333  35.8209114
  86.6163483 166.0556183  34.2597504  82.6623459 165.6512909  29.7145042
  81.4689865 165.8606110  29.4970131  83.1008987 164.5033722  30.1721401
  84.1014938 164.3940735  30.2556324  82.2808228 163.3406067  30.6326199
  81.2854843 163.7319946  30.8429127  82.2347870 162.3249664  29.4706421
  83.2242737 161.9222412  29.2542305  81.6203461 161.4501495  29.6833839
  81.7454071 162.8298492  28.6377563  82.7309036 162.7345886  31.9779186
  83.8927383 162.7355347  32.3556404  81.7703629 162.2260284  32.7419853
  80.8259201 162.2538300  32.3851166  81.8904190 161.7359161  34.1087036
  82.7053223 162.3387146  34.5095482  80.6368256 162.1424408  34.9254150
  79.7239532 161.7083130  34.5176277  80.7596512 161.7631989  35.9399071
  80.5367203 163.9469452  34.9892693  79.5265274 163.9198914  34.1153831
  82.2595749 160.2680664  34.2427025  83.3025436 160.0787506  34.8784027
  81.4474640 159.3545685  33.7537804  80.6527252 159.6941223  33.2311020
  81.5734558 157.9472504  33.9931488  82.4771957 157.8224335  34.5896187
  80.3390961 157.5092316  34.8409348  79.4124756 157.9093170  34.4293289
  80.2663727 156.4286499  34.9640274  80.4450455 158.1362457  36.2262955
  81.3699493 157.8478394  36.9755783  79.5255890 158.9720306  36.6283302
  79.6184158 159.4412079  37.5179100  78.7835770 159.2475128  36.0009384
  81.7188644 157.1479187  32.7227440  80.8831711 156.2261505  32.4136429
  82.8777008 157.3596497  32.0048943  83.5031281 158.0778351  32.3412514
  83.2529373 156.6074219  30.8735218  82.5276108 155.8247070  30.6513443
  83.4087067 157.5461884  29.6542053  84.0055008 158.4063721  29.9575596
  83.8884888 157.0506287  28.8102112  82.1368256 158.1686096  29.1365261
  81.5814743 158.5979767  29.9703941  82.4149628 159.1980133  28.0761089
  82.9693985 158.7629089  27.2446156  81.4721756 159.6426849  27.7574863
  83.0842743 160.0070038  28.3688011  81.1974030 157.1961975  28.3578091
  80.7687683 156.4163361  28.9872456  80.3222885 157.7284851  27.9850559
  81.6859131 156.6529083  27.5489216  84.6134796 155.8896179  31.1243153
  85.5935822 156.4789429  31.6185322  84.6972046 154.6005249  30.6971970
  83.8545303 154.3225403  30.2147865  85.9456024 153.8729858  30.4621334
  86.6895294 154.3354797  31.1108055  85.8581467 152.3919067  30.9578342
  84.9193420 151.9748993  30.5933456  86.6378937 151.8107605  30.4655247
  85.9784546 152.2339783  32.4777451  85.5462570 153.0424347  33.3099174
  86.6925659 151.1968994  32.9022675  86.7981644 151.1013184  33.9021759
  87.1286087 150.5160675  32.2969398  86.4037094 154.1126099  28.9939137
  85.6437454 154.6430054  28.1717682  87.6805878 153.7548676  28.7257385
  88.1189880 153.3030396  29.5155182  88.2883530 153.7927856  27.4423618
  87.5678406 154.1066132  26.6870575  89.5123596 154.7008820  27.4158707
  90.2311325 154.1949310  28.0604382  89.9067078 154.7170258  26.3998337
  89.3650284 156.1322021  27.9872684  89.0678864 156.0443420  29.0322990
  90.7154999 156.7747498  27.8552380  91.1939545 156.5677795  26.8979797
  90.7376099 157.8413086  28.0789604  91.3063507 156.3150177  28.6474743
  88.3966064 156.9921875  27.1523914  87.3964462 156.5926056  27.3201141
  88.4954147 158.0483398  27.4031277  88.6880035 156.9452515  26.1031132
  88.7705536 152.3952332  27.0742435  89.3876572 151.6726379  27.8858509
  88.5076904 151.9837494  25.8455353  87.8862686 152.5113525  25.2492294
  89.1534882 150.8127899  25.2097607  89.9551010 150.4192505  25.8347912
  88.2078552 149.6524963  25.0787868  88.7087250 148.7113800  24.8517761
  87.7604141 149.5018311  26.0612354  87.1842957 149.8831024  24.1091213
  86.3443756 149.5982819  24.4765720  89.8990402 151.0839539  23.9065571
  89.8126373 152.1307831  23.2969437  90.6306763 150.1110077  23.3553352
  90.5370636 149.1936340  23.7673569  91.4863586 150.2178802  22.2550297
  92.0160599 149.3048706  21.9831009  90.9794617 150.4749603  21.3249435
  92.5520248 151.3271484  22.4211006  93.0642929 151.5106049  23.5076599
  92.8858795 151.9883423  21.3180752  92.5251694 151.6622162  20.4328480
  93.8977051 153.0581970  21.3262348  93.9288864 153.5519562  22.2974892
  95.3077774 152.5540009  20.7907200  95.0600510 151.9803314  19.8976212
  95.9356079 153.3645935  20.4207497  96.1024399 151.5648499  21.6971111
  95.4125443 150.7343140  21.8466530  96.9726334 151.1552429  21.1842041
  96.5475845 152.2601471  22.9390888  97.1927338 153.0933838  22.6605339
  95.7436600 152.7620087  23.4775620  97.3124390 151.3060303  23.7984562
  98.3035583 151.4897766  23.7350750  96.8181992 150.2754059  24.4690971
  95.5293350 150.0747986  24.6393623  94.9197617 150.8069611  24.3040161
  95.2278900 149.1700592  24.9720573  97.6408615 149.4576416  24.9810658
  98.6115036 149.6260681  24.7583866  97.3226852 148.6147308  25.4375477
  93.4074707 154.1750488  20.3577614  92.6041260 153.8391724  19.4558907
  93.9050751 155.4363556  20.5185509  94.6492157 155.9724579  21.7127819
  95.6816101 155.6728210  21.5325470  94.3343887 155.5908508  22.6840477
  94.6577377 157.5177460  21.5809956  95.5870209 158.0165100  21.8562813
  93.8293381 157.8811646  22.1890945  94.3094254 157.6965485  20.0686226
  95.2159729 157.7893372  19.4705696  93.6537170 158.5652161  20.0087395
  93.5949631 156.4789886  19.6012421  92.5098343 156.5813751  19.6119995
  94.0292664 156.0883789  18.1544571  95.0253220 155.4266052  17.8831539
  93.1895981 156.4723663  17.2207985  92.2548828 156.7587128  17.4745789
  93.3279495 156.4373016  15.7629480  94.3745270 156.5406799  15.4764519
  92.7822037 155.0961151  15.2877254  93.2568283 154.3684235  15.9459839
  91.6937561 155.1168060  15.3419313  93.1595840 154.8544464  13.9475660
  92.8168106 153.9754486  13.7700987  92.5758209 157.6302795  15.1574955
  91.5711746 158.1354828  15.7015924  93.2105789 158.1837921  14.0789080
  94.1538467 157.9007263  13.8548212  92.6370239 159.2634888  13.2520704
  91.8589401 159.6900940  13.8850794  93.7435455 160.2980499  12.8193302
  93.3536987 160.9988251  12.0810652  94.4218140 161.0816803  13.9220924
  94.9018326 160.4895477  14.7012339  95.1827011 161.7451172  13.5109968
  93.7152023 161.7428436  14.4237356  94.7348785 159.5110931  12.1616745
  95.3781662 160.0940399  11.7518482  92.0280075 158.6903534  11.9883032
  91.2613754 159.4526825  11.3843966  92.2094116 157.4230042  11.6186171
  92.7651291 156.8595734  12.2461672  91.6430893 156.7767181  10.4178143
  92.0071716 157.2889099   9.5271873  92.1056824 155.2566071  10.3780413
  91.8966293 154.8083649  11.3493690  91.5302353 154.6902771   9.6457586
  93.6177750 155.1364594  10.0992231  94.2258453 155.7754211  10.7395916
  94.0058441 154.2032318  10.5073853  93.9494476 155.3234253   8.5651712
  93.7546158 156.4518738   7.9966006  94.4904099 154.4118347   7.9318037
  90.1096497 156.9844360  10.3512774  89.4158096 156.6598816  11.3551655
  89.6589661 157.5549927   9.2531242  90.2443542 157.4976349   8.4320698
  88.2620239 157.9569702   8.9500723  88.2657318 158.4001923   7.9542589
  87.3854828 156.6917267   8.8488503  88.0332108 155.8350372   8.6627235
  86.8928452 156.4274750   9.7845755  86.2683640 156.7009583   7.8495975
  85.0081482 156.1845856   8.1417532  84.2191162 156.3376770   7.0608077
  83.1664429 156.1087952   6.9840364  85.0122070 156.6894989   6.0175605
  84.6331482 156.9230804   5.1109986  86.2540131 156.9500732   6.4930630
  87.1019669 157.2450867   5.8927803  87.6143417 158.9937439   9.9813986
  86.4098053 159.1797028   9.8565340  88.3693848 159.6617889  10.8607502
  89.3618622 159.4820862  10.9137239  87.8080826 160.5657654  11.8414221
  87.1340485 160.0436096  12.5204840  88.9533386 161.1607361  12.6727972
  89.5203400 160.3335419  13.0998363  89.6106567 161.7663574  12.0488825
  88.3227005 161.9553833  13.7035942  88.9927673 162.3310089  14.2793655
  87.0075073 161.7360382  11.1848221  87.4495926 162.4414215  10.2599955
  85.8757935 161.9720459  11.8128204  85.7689133 161.4753723  12.6857405
  84.8365326 162.8580627  11.3247318  84.8325424 162.6973419  10.2466507
  83.5062714 162.3851013  11.9688835  83.6632690 162.5142212  13.0397625
  82.7250061 163.0519562  11.6041374  83.0848160 160.9236145  11.7847471
  83.4175262 160.1291199  10.7521305  83.9731522 160.5211945   9.9131098
  82.8465347 158.9084930  10.9112310  82.8207932 158.2376709  10.1566114
  82.1698761 158.8155060  12.0702868  81.5148697 157.7890167  12.7156630
  81.2549210 156.8913116  12.1744232  81.0517120 157.9674683  14.0339499
  80.5122147 157.1805267  14.5399837  81.3183670 159.1395569  14.7618818
  81.1121140 159.2132568  15.8194408  81.9847565 160.1685791  14.0700903
  82.2078323 161.0803680  14.6042147  82.3972931 160.0251465  12.7419481
  85.1543350 164.3277588  11.5700884  84.4775314 165.2225037  11.0925646
  86.1310043 164.5990753  12.4140062  86.6614456 163.7809753  12.6775188
  86.6982803 165.8638153  12.7923927  86.1926727 166.7197266  12.3453264
  86.5108643 166.0326385  14.3062353  87.1331863 165.4004669  14.9396219
  86.8677521 167.0116882  14.6259623  85.0677795 165.8944855  14.7385826
  84.1232681 166.9056702  14.4390278  84.4819031 167.8342133  14.0200100
  82.8304291 166.8101654  14.9057789  82.1885300 167.6597443  14.7252331
  82.3363876 165.6909180  15.5543804  81.2996521 165.5777283  15.8350477
  83.2528839 164.6528931  15.8004522  82.9972763 163.7694092  16.3666153
  84.6116028 164.8014984  15.4379740  85.3313217 164.0290680  15.6655197
  88.2310867 165.9150543  12.5486012  89.0176086 165.2977753  13.2741032
  88.6971893 166.6452637  11.4897385  87.9064484 167.2571411  10.5313053
  87.6077881 168.2383575  10.9002428  87.0138931 166.6585693  10.3492107
  88.6895370 167.3456116   9.2141304  88.2281342 168.1365204   8.6228151
  88.7054825 166.3666382   8.7351084  90.0773239 167.6074524   9.8160658
  90.2230911 168.6759644   9.9746227  90.7940521 167.2340240   9.0846577
  90.0779343 166.6947021  11.0911236  90.3508301 165.6934662  10.7577248
  90.9734802 167.2549591  12.1613054  90.7135849 168.3161926  12.7789564
  92.1623611 166.6365967  12.3504190  92.3890305 165.8737335  11.7285128
  93.1035461 167.0271606  13.3558502  94.0972595 166.6360931  13.1374397
  93.0730515 168.1124573  13.4523525  92.8518448 166.4809265  14.7620087
  93.5177841 166.9344940  15.6573381  91.9041595 165.5463562  14.9408722
  91.2340546 165.2867737  14.2311707  91.5798111 164.8302002  16.1557178
  92.3796234 164.9975586  16.8771076  90.2583694 165.3791809  16.8071537
  89.4976425 165.2531128  16.0367641  89.8600311 164.7362976  17.5920982
  90.2607651 166.8513031  17.2366428  90.6819839 167.2002258  18.5538578
  90.7958069 166.4082031  19.2792187  90.5535736 168.5087433  18.9810257
  90.8669891 168.7330170  19.9899235  90.1073074 169.5406189  18.1477661
  90.1422806 170.8317871  18.5143795  90.5240326 170.9693298  19.3844109
  89.6830673 169.2055206  16.8670845  89.4634781 170.0505066  16.2313309
  89.7392807 167.8726196  16.4148769  89.3875427 167.6281433  15.4234524
  91.5187149 163.3510895  15.8957720  90.8496399 162.8525696  14.9867611
  92.1153793 162.5650635  16.8020363  92.5592957 162.9539337  17.6216774
  92.0225220 161.0890350  16.9495659  91.7925949 160.6252899  15.9903030
  93.3557739 160.5339661  17.4677696  93.4818878 160.8599854  18.5001965
  93.2488022 159.4501038  17.5112972  94.1450882 160.9022217  16.8124199
  90.8405838 160.7508392  17.8577805  90.6405029 161.3240204  18.9363575
  90.0222473 159.7844391  17.3890228  90.1886597 159.4263153  16.4594231
  88.9730682 159.0811157  18.1292477  88.4632797 159.8225403  18.7444630
  87.8942032 158.5943146  17.1820393  87.1352844 158.0572662  17.7510109
  87.3960648 159.4471741  16.7209454  88.2806244 157.6972351  16.0639420
  88.3433533 157.9620819  14.7610970  88.2834625 158.9846649  14.4188490
  88.8201141 156.8954926  14.0528765  89.0686340 156.8941803  13.0739307
  89.0032272 155.8016510  14.8244715  89.4721527 154.5012817  14.4837999
  89.8354111 154.2128448  13.5084810  89.3406601 153.5549927  15.5074282
  89.6441345 152.5461121  15.2698479  88.8433228 153.9242554  16.7843494
  88.8386383 153.1964264  17.5822392  88.5286560 155.2539215  17.0776768
  88.2435303 155.4673004  18.0972729  88.5761032 156.2342987  16.0992374
  89.5256119 157.8868408  18.9174461  90.5071030 157.2702332  18.5683346
  88.9300232 157.7059021  20.0759773  88.3564606 158.4778442  20.3845501
  89.3440628 156.5866394  20.9615021  89.8015137 155.8214722  20.3343086
  90.4298172 156.9530182  21.9155884  91.2225647 157.5102386  21.4164257
  89.9696732 157.7844086  23.0948925  89.0983276 157.2971954  23.5324745
  90.8070602 157.7646179  23.7923927  89.6130066 158.7711182  22.7994499
  90.8487091 155.7747803  22.4795341  91.6414261 155.8442078  23.0165405
  88.0567322 155.9169312  21.5105419  87.1528549 156.5766754  21.9731312
  87.9765701 154.5902557  21.4963951  88.8416595 154.0916901  21.3442478
  86.7197037 153.8444977  21.7718468  86.0255203 154.4134979  21.1534271
  86.7540131 152.3272400  21.4516907  87.4853287 151.7932129  22.0583935
  85.3451157 151.7238617  21.7036266  84.5687866 152.4035797  21.3523579
  85.1639938 150.7633362  21.2212601  85.2651520 151.6308136  22.7866993
  87.2731323 151.9781647  20.0117283  86.6734695 152.3439178  19.1782284
  88.2532196 152.4546356  19.9891682  87.3490524 150.4303284  19.8312817
  86.3620148 150.0562134  19.5594368  87.9860001 150.2517548  18.9649601
  87.8045578 149.9155426  20.6772232  86.3228302 154.0882111  23.2677193
  87.1475067 153.8240967  24.1765213  85.0667496 154.5062103  23.5740891
  84.4575424 154.6642761  22.7841644  84.5400925 154.9200897  24.8642960
  85.2917786 154.5947418  25.5834694  84.4055786 156.4030914  24.8268566
  83.4884338 156.6221313  24.2800827  84.3821030 156.8112946  25.8372631
  85.2329865 156.9215546  24.3423996  83.2551727 154.0564270  25.1895485
  82.3835983 153.7975311  24.3562622  83.1756058 153.6340485  26.4761200
  83.8048706 153.9717102  27.1903381  82.1654587 152.7493896  27.0316162
  81.3131943 152.9100494  26.3713608  82.6966782 151.3141632  27.0047264
  83.7305450 151.2417297  27.3423367  82.1444778 150.6621552  27.6815395
  82.7689362 150.6220398  25.5965977  81.7615509 150.3928986  25.2490749
  83.1706543 151.2583160  24.8080120  83.6229706 149.3997345  25.6247044
  84.8056564 149.4442139  25.2635517  83.1274414 148.3141479  26.1513004
  83.6595154 147.4559784  26.1745644  82.2129288 148.2978363  26.5796719
  81.7173233 153.2451477  28.3517704  82.3547516 154.0328674  29.0450115
  80.5446777 152.7247162  28.8429375  79.9917450 152.1338043  28.2386360
  79.8805008 153.1130829  30.0904446  79.9695435 154.1690216  30.3457108
  78.3494263 152.8387756  29.9424877  77.8999786 153.5101013  29.2107716
  78.2154007 151.7941437  29.6616306  77.6825943 153.0402832  31.6125469
  76.5933533 152.2668304  31.5977077  80.5772324 152.3821106  31.2808247
  80.6629639 151.1736450  31.3041267  80.8869781 153.0601196  32.3950882
  80.8174515 154.0570831  32.2490616  81.6622543 152.5834656  33.5699425
  82.6207428 152.2061920  33.2134895  82.0584717 153.7796021  34.3791428
  82.6168365 154.4818878  33.7601738  81.1509171 154.3064880  34.6738319
  82.8422394 153.4712372  35.6289062  82.2493210 152.9007263  36.3437920
  83.6875305 152.8005981  35.4745598  83.4169006 154.7646637  36.2007790
  82.6395340 155.5230560  36.2937813  83.8354721 154.5424042  37.1823654
  84.4559784 155.3510437  35.3284569  84.9813690 154.6962280  34.7669563
  85.0317307 156.5721588  35.4372711  84.8717041 157.4689636  36.4034729
  84.2928314 157.1942444  37.1842041  85.3416977 158.3619995  36.3621635
  85.8353271 157.0304413  34.4801674  86.0229950 156.5305023  33.6228790
  86.2960129 157.9277039  34.5330505  80.9588089 151.4694061  34.3421211
  81.5945740 150.5601654  34.8268356  79.5700302 151.4391785  34.3608017
  79.0830841 152.1732330  33.8666763  78.7445831 150.3950653  35.0380058
  79.3611908 150.0589752  35.8716278  77.4708023 151.0222321  35.5749092
  76.7976379 151.3242645  34.7725830  76.6527405 150.0046387  36.3134842
  77.1395111 149.4136658  37.0893021  75.8001328 150.5693512  36.6906738
  76.1312561 149.2858582  35.6814156  77.8485031 152.2500000  36.4424744
  78.2566833 153.0686493  35.8497696  76.8871155 152.6073151  36.8114891
  78.7634964 151.9918671  37.5967636  79.7766953 152.1593323  37.2314034
  78.6898727 152.7067719  38.4162712  78.6722488 150.9506989  37.9062042
  78.4673462 149.1761017  34.1210670  78.5583572 148.0278015  34.5342178
  78.0234909 149.4028473  32.8995132  78.0334854 150.3707275  32.6110649
  77.4135513 148.3965302  32.0065079  77.3151398 147.4742279  32.5790329
  75.9904099 148.8584595  31.6984825  75.4392776 147.9979553  31.3191547
  75.5418854 149.2357483  32.6174927  76.0536346 150.1333466  30.4239922
  74.7410126 150.1128540  30.1760159  78.2006454 147.9381409  30.7577076
  77.8129120 146.9304810  30.1529102  79.3243179 148.5329742  30.4396534
  79.6880417 149.2591095  31.0401020  80.1786652 148.1466675  29.2850456
  81.1623840 148.5456085  29.5325146  80.3213654 147.0808563  29.1066952
  79.6312943 148.6505585  27.9124870  80.2734833 148.3479614  26.9313030
  78.5080261 149.3665771  27.8383484  77.9606552 149.4113007  28.6859875
  77.7638550 149.8418121  26.5504913  77.6244888 148.9492950  25.9405022
  76.4348755 150.5329895  26.8934669  75.8883438 149.8552094  27.5492325
  76.6092072 151.4126129  27.5131187  75.6484680 150.8236084  25.6201324
  75.6484299 150.0949707  24.6640568  74.9957581 151.9137421  25.6343231
  74.5448151 152.1662903  24.7665901  75.1130219 152.5749512  26.3887386
  78.6826019 150.8077698  25.8708286  79.2774048 151.6482239  26.5282745
  78.8891830 150.6741333  24.5607414  78.4169769 149.9192963  24.0839252
  79.5798187 151.6034546  23.7013855  80.5982742 151.8448181  24.0056763
  79.8157272 151.0547791  22.2994194  80.4994354 150.2113647  22.3958111
  78.8851242 150.6619415  21.8898239  80.4269791 151.9669189  21.2592888
  79.7016983 152.6800079  20.2708569  80.5929413 153.4954376  19.7137012
  80.3685226 154.1649475  18.8965263  81.8813171 153.2931976  20.1601810
  82.7320633 153.7699432  19.8974228  81.7685852 152.3296204  21.1572266
  82.6092987 152.1230621  21.8029232  78.7914276 152.9490967  23.7014217
  77.6059494 152.9606476  23.4408379  79.4716339 154.0908813  23.9882603
  80.4725571 153.9788208  24.0637531  78.9040070 155.4347229  24.2152824
  77.8234406 155.3252106  24.1231785  79.2288742 155.9200134  25.5730438
  80.2851639 156.1486359  25.7147274  78.7442474 156.8796692  25.7527103
  78.7933884 154.9703979  26.6691780  79.3143616 154.0220642  26.8008575
  78.9885941 155.5180817  27.5911522  77.0361862 154.4888306  26.6403828
  76.1430511 156.0587158  26.8982563  76.2287140 156.7579651  26.0665112
  75.0846710 155.8421936  27.0433636  76.5877991 156.4617462  27.8081322
  79.3776779 156.4497223  23.1259537  79.1797028 157.6575317  23.2954941
  79.9224014 155.9888611  22.0391369  80.0359573 154.9884491  21.9593716
  80.6172333 156.7861633  20.9877071  80.4213638 156.5012970  19.9539814
  80.2028351 157.7927094  21.0445595  82.1432724 156.8360596  21.2113514
  82.8040314 155.8071289  21.4552288  82.7358856 158.0417786  21.0750866
  82.1479950 158.8454285  20.9058323  84.1595688 158.2607574  21.1229095
  84.7021637 157.4273376  21.5691051  84.7171478 158.3538971  19.6706676
  84.1822357 159.1670990  19.1800785  85.7903824 158.5437317  19.6858597
  84.3915558 157.2434845  18.7586689  85.2608719 156.2580261  18.5228367
  86.2685318 156.1222076  18.8869514  84.7954330 155.3791199  17.5928288
  85.3299789 154.6098022  17.2153263  83.4628067 155.6042023  17.4006939
  82.5492859 154.9257202  16.5930347  82.8588715 153.9637756  16.2119713
  81.2341309 155.4152527  16.4882088  80.4589310 154.9028473  15.9378490
  80.9242477 156.6493378  17.0997334  79.8963013 156.9793243  17.0708752
  81.8692245 157.4225769  17.8192348  81.5773239 158.3164215  18.3504963
  83.1895676 156.9165192  17.9587326  84.5394974 159.4144745  22.0139351
  83.8444290 160.4547424  22.0445232  85.7450256 159.3240204  22.5695171
  86.2533340 158.4513092  22.5793152  86.5577698 160.4425201  23.1768017
  85.9178543 161.2545471  23.5221062  87.3204727 159.8873291  24.3915958
  86.6756897 159.7532349  25.2601395  87.7228241 158.9059448  24.1404228
  88.4520645 160.8762207  24.9207897  89.2659760 161.0270233  24.2116241
  87.8987961 161.7593384  25.2402916  89.1050644 160.3808441  26.2602673
  88.3387375 160.2388916  27.0223007  89.7179794 159.4941406  26.0984039
  89.9845047 161.5216522  26.7735405  90.8826599 161.5716248  26.1579723
  89.4566269 162.4616547  26.6128311  90.4437866 161.3872375  28.1445026
  91.0048981 160.5616455  28.2983055  91.1782913 162.0325012  28.3979664
  89.7423248 161.5532990  28.8519421  87.5165787 160.8558502  22.0916519
  88.1640015 159.9779968  21.5004311  87.6798019 162.1289215  21.8820763
  87.1374130 162.7848358  22.4258480  88.5865784 162.8346252  20.9880295
  89.0118561 162.0225067  20.3983650  87.7148590 163.7835083  20.0670013
  87.1589584 164.4672699  20.7085114  88.4475708 164.2899475  19.4387112
  86.8296661 163.0181427  19.1512413  87.4068527 162.7330170  17.8912659
  88.4202499 162.9774170  17.6089687  86.5586700 162.1412811  16.9060707
  86.9006424 161.9991760  15.8915482  85.2748566 161.6455383  17.2552624
  84.5812225 161.2883148  16.5084915  84.7687912 161.7854462  18.5593891
  83.8098373 161.3441315  18.7875271  85.5332947 162.5756226  19.4433498
  85.1082001 162.8584137  20.3950500  89.7437286 163.5947266  21.6452732
  89.4990768 164.4907837  22.4507751  90.9306793 163.4656677  21.0835514
  91.0455704 162.6608429  20.4842415  92.1285553 164.2679443  21.4617691
  91.7121658 165.1947327  21.8564701  92.9701233 163.5971222  22.5508461
  93.8473282 164.1951447  22.7977657  92.1754913 163.3966064  23.7952957
  91.2882309 162.8603821  23.4586620  92.7739563 162.7483215  24.4353485
  91.8443832 164.3402100  24.2289715  93.4375381 162.3531647  22.1030273
  94.2632675 162.4887238  21.6324940  92.9945908 164.7079010  20.3079872
  93.1710129 163.9876709  19.3605328  93.4607010 165.9613495  20.3282986
  93.3160553 166.5755768  21.1169014  94.0650101 166.6408386  19.1794491
  93.4203262 166.4763031  18.3160801  94.2295609 168.1746368  19.4974651
  94.8769150 168.3257751  20.3612823  94.6185684 168.7030029  18.6270695
  93.2732239 168.6715240  19.6606655  95.4981308 166.1153107  18.8928032
  96.2812576 165.8865662  19.8146610  95.9336395 165.9648895  17.6486034
  95.3535309 166.2440643  16.8703823  97.2907333 165.6040802  17.1868916
  97.7377396 164.9083099  17.8969650  97.1762619 164.9621887  15.7773476
  98.1474838 164.6775665  15.3726101  96.4009018 163.6115875  15.8293886
  95.4769440 163.6602783  16.4056053  96.1854858 163.2798309  14.8136940
  97.1021881 162.9176178  16.2927628  96.6354446 165.8570251  14.8777914
  97.2932510 166.2466583  14.2972012  98.2743378 166.7637482  17.1283493
  99.4903030 166.5471039  17.1120396  97.7905197 168.0272522  17.0353088
  96.7944794 168.1816406  16.9708443  98.6004486 169.3090515  17.0036240
  99.6692886 169.0962067  16.9839859  98.2874069 170.0845947  15.7260542
  97.2104263 170.0866547  15.5580988  98.6593323 171.1076965  15.7811489
  98.9769211 169.4203796  14.5375557 100.0170975 169.2077942  14.7844181
  98.5325546 168.4362030  14.3891211  98.8892365 170.1171875  13.1816864
  99.2806778 171.1249847  13.3202534  99.3704910 169.5328217  12.3974514
  97.4140244 170.2575989  12.8343525  96.9763870 169.2593231  12.8333273
  96.9959106 170.8629761  13.6385975  97.1691132 170.9286804  11.5093546
  97.5778351 170.4207764  10.7379313  96.1709747 170.9347076  11.3551636
  97.5084457 171.8798828  11.4970455  98.3493195 170.1347046  18.2427273
  97.1562805 170.4263916  18.4803982  99.4049988 170.5459747  18.9664593
 100.2761536 170.2559967  18.5456181  99.4796143 171.2119598  20.2480717
  99.0367355 170.5189514  20.9634075 100.9703064 171.3298035  20.6228619
 101.1710892 171.4600220  21.6862679 101.5642929 170.4605560  20.3405704
 101.7030792 172.5637970  20.0056934 101.7622757 172.4382629  18.9245625
 101.2999191 173.5063019  20.3761559 103.2352524 172.5729065  20.4445057
 103.1993179 172.5608826  21.5338497 103.6290512 171.6558380  20.0063114
 103.9267349 173.8356476  19.8847256 103.3620071 174.7324677  20.1394615
 104.8776703 173.8661957  20.4165974 104.1171265 173.8675995  18.4276638
 103.2212601 173.9119263  17.9633713 104.6256485 174.6929016  18.1441441
 104.6085815 173.0584869  18.0756664  98.8041153 172.6108551  20.3295193
  98.6127930 173.1007690  21.4443512  98.5440903 173.3010712  19.2334938
  98.8562927 172.8845062  18.3679867  97.9402313 174.6558533  19.1822891
  98.0545044 175.1247711  20.1596107  98.8165894 175.5035706  18.2193089
  98.3612900 176.4474335  17.9194374  99.7621307 175.7054749  18.7225819
  99.2505493 174.7935028  16.9278812  98.4687653 173.9933014  16.3832760
 100.3580780 175.1491394  16.4578171  96.4762421 174.6562958  18.8859711
  95.8240051 175.7290497  18.9786072  95.9296646 173.5097198  18.4695206
  96.4469604 172.6519928  18.3398113  94.4820709 173.4169922  18.3742161
  94.2530975 174.2203979  17.6740570  93.9852066 172.0991058  17.8477097
  94.3663483 171.2389069  18.3980751  92.8971481 172.0860291  17.9114552
  94.4214554 172.0218506  16.3380604  94.0081100 172.8495941  15.7617903
  95.5082626 172.1051636  16.3418446  94.0654068 170.5569763  15.3366842
  92.2651672 170.5776978  15.2541332  92.0823288 171.2045746  14.3813782
  91.8066559 169.6149750  15.0282621  91.9322891 170.9981537  16.2030869
  93.7207947 173.6325073  19.6988564  94.2644119 173.2000122  20.7263107
  92.5241852 174.2099762  19.5890427  92.1634903 174.4767151  18.6841412
  91.6241913 174.4239655  20.7317963  91.9338379 173.6735687  21.4592190
  91.8839111 175.8359985  21.4015274  92.9468079 175.9781799  21.5968418
  91.7193375 176.6842041  20.7370262  91.1052933 175.9786377  22.5685673
  91.3265991 176.7960663  23.0207214  90.1351929 174.1636047  20.3978996
  89.6655960 174.6353302  19.3423214  89.4011841 173.3985596  21.1937103
  88.0044708 172.9428558  20.8823414  87.9854889 172.4602203  19.9051971
  87.3172760 173.7881775  20.9184399  87.4961166 171.9415741  21.9650517
  87.7368088 170.9484863  21.5856609  86.4220657 172.0388641  22.1232853
  88.4740448 172.3173676  23.1179771  88.7150192 171.5563965  23.8602467
  88.0141296 173.1487885  23.6521454  89.7820740 172.7960358  22.4875488
  90.2332153 173.5683289  23.1105461  90.8352661 171.6763000  22.3692150
  90.9629135 171.1419067  21.2339897  91.5618820 171.2978516  23.4156322
  91.4577789 171.7806854  24.2966118  92.5848923 170.1169128  23.3777428
  93.2044525 170.3556213  22.5133057  93.3645020 170.2122040  24.6878738
  93.8065414 171.2085114  24.6953220  92.6334915 170.1240997  25.4915867
  94.5701065 169.3427887  24.9192276  94.9817657 169.7800903  25.8288498
  94.2195358 168.3108215  24.9347744  95.6893921 169.4116974  23.9071693
  95.5567932 169.8712921  22.7298412  96.8523865 168.9998627  24.2983780
  97.5894699 169.1021576  23.6154842  96.9365768 168.4968414  25.1701565
  91.9320221 168.7108307  23.2846622  92.4906921 167.8019409  22.6669731
  90.7874222 168.5650635  23.9541225  90.4081650 169.4031830  24.3710442
  90.0008240 167.3401794  24.0984859  90.1263199 166.7007751  23.2246971
  90.4399490 166.5161438  25.3362865  89.9755707 165.5300598  25.3258457
  91.5217285 166.4151306  25.2488117  90.1386871 167.2436066  26.5973492
  90.2489548 168.3279724  26.5876942  89.0940247 167.0226898  26.8163853
  90.9900284 166.5892792  27.7824726  90.4136581 166.7067871  28.7001247
  91.2400665 165.5379028  27.6402988  92.2936554 167.3630829  27.9558926
  93.0085602 167.1343231  27.1655235  92.0570679 168.4256439  27.9000874
  93.1259689 167.0373077  29.2078323  93.4554672 166.0839539  29.2593021
  93.8619614 167.7254791  29.2774544  92.6175308 167.3232269  30.0323563
  88.5350800 167.6729889  23.9811916  88.1486359 168.8065796  24.3240452
  87.7014542 166.7766113  23.4833374  88.0686569 165.9165497  23.1018066
  86.2252274 166.7511749  23.6086292  85.8884811 167.0596313  24.5983524
  85.5649185 167.7358856  22.5486279  84.5477295 167.9727631  22.8605633
  86.0137482 168.7289581  22.5703335  85.5721359 167.2553558  21.1028080
  86.7333221 167.3926086  20.3112068  87.4848404 168.0434113  20.7332191
  86.8694305 166.8212585  19.0398598  87.7485657 166.7736664  18.4143562
  85.7834549 166.1058350  18.5908413  85.8397903 165.6611023  17.6082726
  84.5528793 166.0606537  19.2593365  83.7342606 165.4886932  18.8480740
  84.4521484 166.5900116  20.5606766  83.5462189 166.5508575  21.1473274
  85.6631470 165.3048401  23.5194969  86.4384613 164.3717041  23.2727623
  84.3607178 165.1022186  23.5644417  83.7733765 165.9212189  23.6303959
  83.7020187 163.7741241  23.5455036  84.3879776 163.0302582  23.1402340
  83.2621307 163.2434540  24.9288120  82.3655090 163.8083344  25.1839256
  83.0030518 162.1897430  24.8254585  84.2475510 163.2956848  26.0513191
  84.6596451 164.4799957  26.5555134  84.3646545 165.4793854  26.2716141
  85.5549393 164.3398743  27.6240082  86.0223923 165.0823212  28.1243801
  85.7846527 162.9633484  27.8109322  86.5117569 162.2265625  28.7158279
  87.0717850 162.6985779  29.5095310  86.4608841 160.8109436  28.7563057
  86.9430313 160.2738190  29.5596924  85.6937714 160.1354523  27.8005066
  85.6507339 159.0568542  27.7663937  85.0291595 160.9046173  26.8110256
  84.4902115 160.3360291  26.0676231  85.0358887 162.3255157  26.7819138
  82.5028076 163.8461151  22.5235634  81.8035049 164.8634491  22.4954300
  82.4936295 162.8718872  21.6441441  83.1072617 162.0788422  21.7650509
  81.6219482 162.7356415  20.5776176  81.0548630 163.6370850  20.3454456
  82.2262497 162.5668335  19.6863117  80.6816635 161.5590057  20.7411518
  80.9440918 160.4107819  20.3604202  79.6864777 161.8319702  21.6293888
  79.7047653 162.7714386  21.9997559  78.7895584 160.8719788  22.2922688
  79.4247665 159.9907532  22.3820324  78.4180450 161.3316193  23.7416344
  77.7430725 162.1873932  23.7292881  77.9215240 160.4765015  24.2002850
  79.6096649 161.6426392  24.7284565  80.2493973 162.3688354  24.2269859
  79.1068573 162.1386108  26.1384296  78.4911728 161.3615875  26.5914993
  79.9664230 162.3676453  26.7683411  78.4607086 162.9779053  25.8811913
  80.5072937 160.4319305  24.9837437  80.7702408 159.9109802  24.0631084
  81.4484482 160.7061615  25.4603176  79.9482651 159.7465820  25.6208515
  77.5404053 160.4349060  21.5222816  76.7935867 161.3440552  21.1176186
  77.1901016 159.1824646  21.3563328  77.7077332 158.5060272  21.8990993
  76.0433502 158.6887054  20.5382900  76.0498199 159.1581879  19.5545998
  76.2311249 157.1806793  20.1081905  75.2479706 156.8994446  19.7308121
  77.3427811 156.9755096  19.0387821  78.2908554 157.4047241  19.3628674
  77.4959869 155.8990021  18.9630203  77.0860748 157.4821014  18.1084213
  76.6361008 156.4205322  21.1699162  75.9047775 156.3602142  21.7888927
  74.7196503 158.8863220  21.2265606  74.4207611 158.2792511  22.2692814
  73.8706360 159.7119446  20.5722027  74.2326813 160.0193481  19.6808395
  72.5716248 160.1255341  21.1418934  72.8178940 160.4323273  22.1584301
  72.1543045 161.4381104  20.4336014  71.4434128 161.9274597  21.0993881
  73.0329285 162.0789642  20.3598995  71.5666351 161.1790924  19.0383492
  72.2871780 161.6591492  18.3761864  71.4904022 160.1159363  18.8103390
  70.1819611 161.7992249  18.7878551  70.2049713 162.8462372  19.0900745
  70.0746689 161.8640289  17.7050877  69.1502838 160.9988403  19.4833965
  69.1123199 161.0545654  20.4911442  68.3809357 160.0832977  18.8569927
  68.4834213 159.6103516  17.6298504  69.1879425 160.0395050  17.0471172
  67.6375351 159.2010651  17.2596188  67.3900146 159.6165466  19.5345154
  67.1423264 160.1024628  20.3845959  66.7302170 159.0740356  18.9955788
  71.4759598 159.0351562  21.2684689  70.5213242 159.1542053  21.9703178
  71.7084961 157.9343414  20.5173950  72.4467621 158.0033569  19.8316078
  71.0329514 156.6629486  20.5318470  69.9797897 156.9198608  20.4181023
  71.3571930 155.8590851  19.2333241  71.0020676 154.8289642  19.2619781
  70.8990173 156.3141327  18.3551865  72.7782974 155.9000397  19.1044617
  73.0523834 155.2362518  18.4673729  71.3054123 155.7931213  21.7515545
  70.4240875 154.9707489  22.0398808  72.3769455 156.0250244  22.5097809
  73.1256485 156.5965729  22.1452618  72.7081680 155.3348236  23.7595367
  72.0481567 154.4696198  23.8219948  74.2288666 154.8753510  23.6438828
  74.8407364 155.7615662  23.4755363  74.5474396 154.4591370  24.5995884
  74.4102020 154.2144470  22.7962818  72.4600677 156.2176514  25.0253372
  72.5754623 155.7272186  26.1560192  72.1757812 157.5107117  24.8883114
  72.1588364 157.8293915  23.9300499  71.8563232 158.4909363  25.9062157
  72.3830795 158.1029816  26.7780743  72.3337708 159.9687653  25.5090656
  71.8600388 160.2329254  24.5636082  72.0662003 160.6441498  26.3216839
  73.8396988 160.1782990  25.3285942  74.2130585 159.3758240  24.6923943
  74.1152649 161.5335541  24.6089077  73.8528214 162.3876801  25.2331524
  75.1242371 161.6942291  24.2290916  73.4533615 161.5318756  23.7428932
  74.6660385 160.1474457  26.5969467  74.4796600 159.1876526  27.0787830
  75.7231750 160.1784668  26.3331165  74.3618011 160.8700714  27.3541431
  70.4202118 158.4673615  26.4777622  69.4986725 158.1009369  25.7577076
  70.2388153 158.8404541  27.7893562  71.0130005 159.0819244  28.3913727
  68.8894577 159.0062103  28.4474716  68.1084213 159.0009003  27.6871700
  68.5545807 157.8075867  29.3342781  68.7402573 156.8520508  28.8437939
  69.2327576 157.7246094  30.1835670  67.1577530 157.9776001  29.8276615
  67.0902252 158.8698883  30.4500504  66.0377274 157.7970428  28.7465534
  66.4074936 156.9540710  28.1627941  65.0787277 157.5124359  29.1794758
  65.8955231 158.6885376  28.1357212  66.9342651 156.8365936  30.8421841
  67.5988541 156.9955139  31.6913967  65.8781738 156.8656616  31.1103859
  67.1025085 155.8277740  30.4652481  68.8014374 160.2695160  29.2654400
  69.3802490 160.3443909  30.3817596  67.9574585 161.3227844  28.9061356
  67.3970032 161.5387115  27.5625420  66.3189545 161.3867188  27.5095749
  67.9214020 160.9277649  26.8278008  67.6011734 163.0401611  27.3181400
  66.9427948 163.4024200  26.5285835  68.6448441 163.2657623  27.0991383
  67.2652435 163.6728516  28.6472759  66.1769333 163.7245026  28.6790161
  67.6746445 164.6669006  28.8271065  67.7570038 162.6143494  29.6172390
  68.6998825 162.9888916  30.0157166  66.8372040 162.3451385  30.8045540
  65.7238388 162.8672943  30.9020882  67.3219299 161.6042175  31.7588921
  68.2288361 161.1647186  31.6920815  66.7255173 161.4814453  33.0495262
  65.6547394 161.3491364  32.8945045  67.3084412 160.2545166  33.8300247
  67.1119995 159.3637543  33.2333260  68.3735886 160.4322510  33.9782562
  66.6415253 160.0483551  35.2727737  67.0528412 160.7432709  36.0048981
  65.5751495 160.2617188  35.1992722  66.9517975 158.6556549  35.7041473
  67.9702377 158.3904724  35.4203262  66.9315033 158.6983795  36.7931213
  66.0193253 157.6089783  35.1452103  65.7580414 157.6879578  34.1727905
  65.6446304 156.5323639  35.7311707  66.0222244 156.2227325  36.9439583
  66.7201614 156.7662048  37.4314346  65.6582260 155.4035797  37.4093628
  64.8123169 155.7289734  35.1173668  64.4057999 156.0561218  34.2526054
  64.3359756 155.0589905  35.7041664  66.9232712 162.7529755  33.8262482
  65.9327316 163.0677185  34.4997978  67.9946289 163.3507843  33.8835831
