Cpptraj Generated Restart                                                       
 6188  4.0000001E-01
  90.3625717 180.8387756  24.0254955  91.3399506 180.8433685  23.7709312
  90.1233673 179.8916016  24.2819233  90.1869202 181.4314423  24.8242378
  89.3794098 180.9529419  22.8675900  88.3697968 180.7781372  23.2393799
  89.4983368 182.2604370  22.0643616  90.4936218 182.2108917  21.6227188
  88.7665863 182.1991119  21.2588291  89.3254929 183.5435333  22.9115353
  88.5232468 183.3943024  23.6341877  90.1957169 183.6066742  23.5648537
  89.2369385 185.1371155  22.0906239  87.4623184 185.2679138  21.6005230
  86.9101868 185.3918152  22.5321331  87.3895493 186.2050781  21.0486565
  87.1454010 184.4447327  20.9602013  89.4344406 179.8036499  21.8893642
  90.4812698 179.2689667  21.5219116  88.3558807 179.4610748  21.2043324
  87.4910507 179.8839874  21.5098057  88.2925110 178.4183807  20.1381359
  88.9320602 177.5794373  20.4124832  86.8945160 177.7270508  20.0515594
  86.1990814 178.5125122  19.7557144  86.8616180 176.5828705  18.9992962
  87.3474960 175.6857300  19.3828964  85.8403168 176.2456970  18.8222256
  87.3091583 176.8946686  18.0555859  86.4376984 177.2596741  21.4448566
  85.8104706 176.3825989  21.2853870  87.3249969 176.8959503  21.9630299
  85.6048279 178.2759857  22.2437935  84.6981049 178.5458221  21.7023602
  85.2784729 177.7750549  23.1551991  86.1313629 179.1986694  22.4877720
  88.8530960 178.9986725  18.8433418  88.6835709 180.1177216  18.4507027
  89.7227020 178.1825256  18.1939697  89.8646240 177.2557068  18.5693989
  90.3842392 178.3983154  16.9095612  89.9347992 179.2969055  16.4868793
  91.8673706 178.6300354  16.9658737  92.2740707 178.7918243  15.9676170
  91.9835587 179.5643311  17.5151424  92.6724701 177.5101013  17.6771603
  92.3499756 176.2971649  17.6460609  93.6860199 177.7597046  18.4270916
  94.1636276 177.0079193  18.9033470  94.1559296 178.6520233  18.3719654
  89.9101868 177.4191284  15.8221922  90.1669846 177.6056366  14.6334848
  89.1952515 176.3854523  16.2510433  89.1040573 176.2740784  17.2507324
  88.7917862 175.2435913  15.4433117  89.5747375 174.8129425  14.8191137
  88.2204437 174.0977936  16.2903233  89.0049438 173.5841827  16.8460732
  87.3601685 174.4699554  16.8466721  87.6198120 173.0185089  15.4398136
  88.4646912 172.2356415  14.6682644  89.5293121 172.4171906  14.6632919
  87.9676514 171.2668304  13.7860537  88.6658936 170.6336212  13.2588921
  86.5560913 171.1002350  13.6964674  86.1120834 170.4105682  12.9938936
  85.7312164 171.9614410  14.4473324  84.6660995 171.8731689  14.2919865
  86.2026749 172.9191437  15.3563251  85.5905609 173.5462799  15.9875193
  87.8005753 175.8373871  14.4131470  86.8531189 176.5815582  14.6702709
  88.0447159 175.4951935  13.1336441  88.7903061 174.8579712  12.8924990
  87.1499481 175.9843903  12.0443401  86.8467636 177.0225525  12.1799603
  87.8386536 175.9538574  10.7152739  88.7176743 176.5944519  10.7864218
  88.1229858 174.9390106  10.4371414  87.0210724 176.5143738   9.5344114
  86.0800095 177.2861481   9.8162737  87.3507843 176.2934875   8.3422861
  85.8763962 175.0980225  11.9520645  85.7254028 173.9983673  11.4046993
  84.8244400 175.6646423  12.5602789  85.0503464 176.5718994  12.9423018
  83.4942169 175.0176086  12.8441019  83.6178360 174.1263123  13.4592543
  82.6023026 176.0112000  13.6709242  81.5563507 175.7079773  13.6246738
  83.0133591 176.0349121  15.1322880  84.0573883 176.3360596  15.2183418
  82.3705673 176.6384583  15.7731123  83.0264130 174.9908142  15.4450092
  82.5614700 177.3242035  13.1571589  82.0231400 177.8773651  13.7279587
  82.6620026 174.5359650  11.5962496  81.7121353 173.7808228  11.6946201
  83.1107559 174.9791107  10.4256907  83.9914780 175.4676819  10.3500662
  82.6351318 174.4457245   9.1712599  81.6004791 174.1111603   9.2465496
  82.6821976 175.5457916   8.1382389  81.9610138 175.3066406   7.3567042
  82.4400635 176.5360870   8.5240011  83.9605255 175.6385193   7.6977262
  84.1227798 176.3859406   7.1175098  83.3200684 173.1188202   8.7190971
  82.7941055 172.5054932   7.7923832  84.3411560 172.6522827   9.4379416
  84.8388748 173.1871033  10.1353216  85.0098038 171.3876038   9.0616236
  85.1276779 171.4680786   7.9810042  86.3163910 171.2449799   9.7880554
  86.1525497 171.4590302  10.8442001  86.7235794 170.2339020   9.7834949
  87.4247742 172.1909790   9.2165337  87.1057205 173.2210541   9.3754826
  88.7474899 172.0698090   9.9948320  89.3167877 171.1478424   9.8766241
  89.3867798 172.9235229   9.7699394  88.4729309 172.0554810  11.0495892
  87.6829834 171.8581085   7.7417073  86.8211670 172.1224670   7.1289454
  88.5371246 172.4558105   7.4234505  87.9902267 170.8161469   7.6521511
  84.1446457 170.1264496   9.1750031  84.2839813 169.2381592   8.3171206
  83.2402115 169.9598083  10.1693602  83.1059570 170.6777344  11.4229574
  82.3655319 171.4700775  11.3131170  84.0322418 171.1220551  11.7872086
  82.5741425 169.5926056  12.4229479  82.1865234 170.0963287  13.3084488
  83.3773956 168.8922119  12.6517191  81.5665283 168.8353271  11.5131550
  80.5776367 169.2839050  11.4184923  81.5452576 167.8018341  11.8588896
  82.1753464 168.9089355  10.1186552  82.7624130 167.9944916  10.0335827
  81.1083374 169.0225677   8.9821472  80.7050781 168.0146942   8.4993315
  80.6615219 170.2227020   8.6462374  81.2184143 171.0152435   8.9323282
  79.5099869 170.5036926   7.7665381  78.7815857 169.7290955   8.0064192
  78.7935333 171.8337250   8.0211782  78.0041351 171.9844360   7.2847996
  78.0103912 171.7765808   9.3650799  78.7931519 171.8116150  10.1228199
  77.2336884 172.5357513   9.2730131  77.4901505 170.8258514   9.4816351
  79.6334229 172.9951782   7.9965930  80.3601303 172.7999268   7.4004545
  79.8220291 170.3531799   6.2603440  79.0085831 170.0709839   5.4101934
  81.1806641 170.3331451   5.9275513  81.9253082 170.4950104   6.5904222
  81.6928406 169.8838959   4.6490397  80.9213562 170.1769409   3.9369805
  82.9499435 170.5906219   4.1784086  83.3307266 170.1821747   3.2423084
  82.6653366 171.6242981   3.9818504  83.9366913 170.5286560   5.1781158
  84.5532837 171.2430725   5.0020123  81.9269562 168.3693542   4.5873899
  82.1806946 167.8989410   3.4304619  81.8217087 167.6157074   5.6989479
  81.5416641 168.1105194   6.5337138  81.9103394 166.1346130   5.6997037
  82.0213470 165.8697357   6.7511892  80.5792007 165.4816284   5.2694569
  80.3360214 165.8631134   4.2777777  80.7535172 164.4076538   5.2037082
  79.5229034 165.7586975   6.3531561  79.4781876 165.0702209   7.5217185
  78.4708099 165.5921631   8.1563768  78.0690842 165.1582489   9.0601130
  77.8906860 166.6260376   7.5295038  77.1052170 167.1665039   7.8627210
  78.5560684 166.7437744   6.3206935  78.2053146 167.3066711   5.4683328
  83.1985931 165.5425415   5.0811353  83.2000885 164.4465332   4.5186801
  84.3706436 166.2282104   5.1712766  84.4300156 167.0631714   5.7364607
  85.6561737 165.8837891   4.4603138  85.4862671 166.1751404   3.4238067
  86.8197708 166.6934052   4.9951053  86.8675995 166.5805817   6.0781956
  87.7118225 166.2010040   4.6079578  86.7711029 168.1498260   4.6182566
  86.8010178 168.2023315   3.5299330  85.7943039 168.4914551   4.9606738
  87.9762726 169.2937317   5.3434339  89.4954224 168.5212250   4.7220225
  89.4197159 168.3792114   3.6439679  90.3318939 169.2059479   4.8619184
  89.6255188 167.5854034   5.2655358  86.0140686 164.4119110   4.5573683
  86.5146103 163.8842010   3.5247910  85.7866135 163.7645569   5.7124224
  85.0943146 164.2138824   6.2946014  86.1128998 162.3467102   5.8823876
  87.1964264 162.2422638   5.8262601  85.7451019 161.9176331   7.2950325
  86.1929016 160.9514160   7.5273771  86.1564331 162.6592865   7.9797683
  84.1974716 161.9256134   7.4208856  83.5552902 163.1496887   7.8037910
  84.1412048 164.0384979   7.9857645  82.1577454 163.1130066   7.8823133
  81.6903915 163.9795837   8.3262177  81.3748932 161.9777679   7.5455217
  80.0557632 161.8716431   7.7467923  79.6447525 162.7245789   7.5881453
  82.0743103 160.7763214   7.2783322  81.5444946 159.8380127   7.2057185
  83.4584961 160.7344513   7.1167855  84.0100250 159.8349152   6.8864779
  85.4788132 161.4200745   4.8398919  86.0145569 160.3179626   4.6878896
  84.4196167 161.7616577   4.0999360  84.0597916 162.7001190   4.1995354
  83.7216644 160.9557800   3.1226251  83.7820282 159.8961182   3.3707535
  82.2536697 161.3708191   3.1757052  81.9698181 161.4171906   4.2270737
  82.1997223 162.3784943   2.7636650  81.2027283 160.4255676   2.4860885
  81.5030060 160.1257629   1.4820738  80.8837357 159.1441803   3.3038993
  80.0944672 159.3872986   4.0152845  80.3771210 158.4382629   2.6457841
  81.7951279 158.7810974   3.7789054  79.8482132 161.1723938   2.3359642
  80.0527496 162.0020905   1.6593020  79.1173630 160.5108337   1.8708818
  79.4682846 161.5788422   3.2732761  84.3249054 161.0799255   1.6892722
  84.0562057 160.2593536   0.8010836  85.1285400 162.1077576   1.4851232
  85.4234543 162.6823120   2.2616649  85.8928528 162.2902527   0.2077554
  86.9502563 162.0418243   0.2987501  85.5054703 161.6628418  -0.5949868
  85.7933807 163.7238159  -0.3504535  84.6935043 164.3064423  -0.3202103
  86.8853989 164.2622528  -0.8878654  87.7396622 163.7237701  -0.8688324
  86.8968201 165.4893646  -1.7381601  86.2106323 166.2164307  -1.3038423
  88.3121567 166.0701294  -1.5538517  88.3723755 167.0177002  -2.0891898
  88.5684814 166.2517700  -0.5101058  89.1798096 165.1022491  -2.1416707
  89.9732132 165.5365753  -2.4633305  86.6159134 165.1925964  -3.2391183
  86.5838852 164.0158234  -3.6481068  86.3233490 166.1915436  -4.0343447
  86.4420395 167.1388702  -3.7048206  85.8875961 165.9634705  -5.3844619
  85.5166168 166.9259491  -5.7367759  87.1182022 165.4871826  -6.2408214
  87.9418106 166.1033173  -5.8800340  87.4186096 164.4620972  -6.0239162
  87.0746689 165.7619171  -7.7910018  86.1612625 166.3903351  -8.3372746
  87.9883957 165.1963501  -8.4571886  84.6394043 165.0165863  -5.5759683
  84.7853699 163.9453888  -6.1764641  83.4299927 165.3955536  -5.0664282
  83.3159180 166.2097778  -4.4797931  82.1600418 164.7234497  -5.3871975
  82.3232727 163.7816162  -5.9110355  81.3620682 164.5035248  -4.0714979
  81.2842178 165.4721222  -3.5776687  80.3648911 164.1336670  -4.3101025
  82.1166229 163.4431763  -3.2245979  82.2417679 162.5289307  -3.8047705
  83.0981445 163.8686829  -3.0156507  81.4664307 163.0517426  -1.5986618
  80.0050507 162.1166382  -1.9826996  80.2658768 161.3820038  -2.7445378
  79.6286545 161.6722717  -1.0613067  79.2035599 162.7666473  -2.3337049
  81.3950043 165.6263428  -6.3761768  81.5641785 166.8224792  -6.4730754
  80.4996719 165.0744934  -7.1809134  80.1783600 164.1231384  -7.0724216
  79.6442032 165.8810120  -8.0978584  80.2441101 166.6744995  -8.5435047
  79.1448746 164.9009094  -9.2270060  79.9766083 164.4446716  -9.7638311
  78.7176361 164.0341644  -8.7226963  78.1523895 165.3668213 -10.2978525
  77.2430649 165.6992798  -9.7971430  78.5154114 166.2542419 -10.8163147
  77.8370819 164.2397766 -11.2993822  77.6175537 163.0637360 -10.8887873
  77.7252808 164.5398712 -12.5251093  78.4693756 166.5679321  -7.3954768
  77.5069427 165.8745728  -7.1057982  78.4837112 167.9272766  -7.2014880
  79.3153610 168.3682404  -7.5675607  77.4075546 168.6773987  -6.6179028
  76.9392548 168.2069702  -5.7533298  77.8769379 170.0591583  -6.2222438
  78.4052734 170.5440063  -7.0431495  77.0258942 170.7075958  -6.0140419
  78.8641663 170.0645447  -4.9804668  78.3662109 169.6211853  -4.1181669
  79.8110046 169.6097870  -5.2716365  79.1508408 171.5366974  -4.5200362
  78.6248703 172.5142822  -5.2005324  79.8969498 171.7787170  -3.5292046
  76.3284836 168.9114532  -7.6288185  76.5644150 169.1363525  -8.8218136
  75.0500031 168.8101044  -7.2325416  75.0636368 168.7020874  -6.2284274
  73.7720184 169.1137085  -7.9352527  73.9390945 169.1655579  -9.0111275
  72.7276535 167.9936371  -7.5876546  72.6349258 167.9676514  -6.5019164
  71.7956390 168.3383789  -8.0355482  73.0783005 166.6420593  -8.2093105
  72.9217606 166.3786774  -9.6039162  72.6045151 167.1310577 -10.3107986
  73.1192093 165.0513153 -10.1038847  72.9185715 164.8288422 -11.1414986
  73.5467453 164.0776367  -9.2313185  73.7560043 163.0653229  -9.5440722
  73.5942841 164.3179321  -7.8331947  73.8180923 163.5389404  -7.1194181
  73.3973541 165.6067810  -7.3305573  73.3490524 165.7034912  -6.2559800
  73.2962112 170.5041504  -7.4710593  73.6122513 171.0221558  -6.3826480
  72.4222107 171.1423950  -8.2353821  72.1795502 170.7112579  -9.1159163
  71.9387894 172.5840759  -8.0956726  72.1981125 172.9657745  -7.1081681
  72.5851746 173.4998474  -9.1595392  72.2740250 174.5323181  -9.0004816
  73.6538696 173.5284424  -8.9469919  72.5002518 173.0074615 -10.6026144
  73.2346344 171.9157867 -11.0888538  73.0097809 171.9045715 -12.4120026
  73.3592682 171.1186829 -13.0651846  72.2061539 172.8990631 -12.7821522
  71.8583145 173.0000000 -13.7249765  71.8981323 173.6702576 -11.6668530
  71.3234100 174.5818481 -11.5954132  70.3889618 172.7291565  -8.1588411
  69.7834015 173.4789429  -7.3551679  69.7368469 172.0059814  -9.0426865
  70.2508774 171.4472351  -9.7087727  68.2461090 171.9136200  -9.1550865
  67.8307037 172.9119110  -9.2928143  68.0071259 171.3658752 -10.0666533
  67.6189346 171.2650299  -7.9476862  68.3096237 170.5067902  -7.2469177
  66.3446655 171.5669403  -7.6215549  65.7741013 172.1848907  -8.1807585
  65.5681305 171.0708008  -6.4226322  66.1534500 170.3638458  -5.8346577
  65.2997665 172.3106232  -5.5082269  64.6565475 173.0253448  -6.0215826
  64.8680725 171.9423065  -4.5775905  66.5404434 173.1251068  -5.0908365
  66.9608536 173.4649353  -6.0373406  66.2777939 173.9572754  -4.4376774
  67.6179810 172.2361755  -4.3557720  67.1195526 171.6887817  -3.5557551
  68.0109634 171.5572205  -5.1125407  68.7772598 172.9787292  -3.8669593
  69.6697540 172.6797485  -4.2332339  68.7212982 173.8747559  -2.8880191
  67.7171173 174.2453461  -2.1595716  66.7760468 173.9349823  -2.3549309
  67.8154297 174.9405975  -1.4335748  69.8175430 174.5514374  -2.5918512
  70.6743851 174.5030670  -3.1243761  69.8915100 175.1987762  -1.8201133
  64.1864548 170.3917694  -6.6576967  63.4168053 170.8011627  -7.4777532
  63.8146019 169.3777161  -5.8854108  64.4075623 169.1154327  -5.1110072
  62.5070152 168.7326508  -5.8334274  61.9626503 168.9340973  -6.7560267
  62.6878700 167.1737213  -5.8495960  63.2887573 166.8310699  -5.0072045
  61.3640404 166.4144592  -5.7370267  60.6679802 166.5648346  -6.5622458
  61.6164589 165.3601837  -5.6234541  60.8813934 166.6138611  -4.7802625
  63.2886658 166.7605896  -7.0686541  62.7556725 165.9799957  -7.2366104
  61.7295074 169.1810150  -4.5505791  62.1166534 168.7633514  -3.4567640
  60.5885239 169.8982849  -4.7511358  60.3648682 170.2509613  -5.6707497
  59.5336494 170.0221863  -3.7658391  59.7663002 169.3235931  -2.9621258
  59.6321526 171.3898010  -3.0667622  59.5699730 172.1050873  -3.8868804
  58.7178574 171.6454163  -2.5312004  60.8088799 171.6615143  -2.2498603
  61.6943512 171.4262238  -2.8403554  60.9258385 173.1641846  -1.9142890
  60.0725060 173.4047089  -1.2802024  61.8476372 173.2590485  -1.3403568
  60.9392471 173.8808746  -2.7354288  60.9417534 170.8696442  -0.9305531
  61.0717621 169.8289337  -1.2273989  61.8197670 171.2502136  -0.4086674
  60.0741043 171.0123596  -0.2864153  58.1731987 169.7578125  -4.4759369
  57.8396873 170.5787506  -5.3635154  57.6277885 168.6045990  -4.1551862
  58.0889282 168.1450195  -3.3830190  56.2284584 168.1329041  -4.4244061
  56.1232147 168.0960083  -5.5086856  56.0796318 166.7392426  -3.7994101
  56.0784607 166.7591858  -2.7095933  55.1001892 166.3591919  -4.0898528
  57.0195198 165.6892700  -4.2951436  58.1451988 165.3374786  -3.5642376
  58.8065109 164.4075165  -4.3263268  59.6857796 163.8723755  -3.9993801
  58.2192230 164.2851562  -5.5277853  58.4385376 163.5351868  -6.1677375
  57.1011276 165.1722717  -5.5249052  56.4071693 165.2340851  -6.3501358
  55.2783432 169.1126862  -3.8319523  55.5291138 169.8440094  -2.8219326
  54.0278664 169.1376648  -4.3701606  53.7879868 168.5016022  -5.1171517
  52.9523582 169.9210815  -3.9057858  53.2945290 170.9555817  -3.8766289
  51.6898003 169.8766785  -4.8254128  51.4632759 168.8468323  -5.1014781
  50.8332672 170.2730560  -4.2801380  52.0107460 170.7639618  -6.0323944
  52.0422096 172.0175171  -5.8635397  52.0711594 170.2235718  -7.1800823
  52.5356560 169.6051178  -2.4391899  52.4762192 168.4449005  -2.0025942
  52.1164093 170.6304932  -1.6552708  52.0726242 171.5259552  -2.1203938
  51.5906715 170.3327026  -0.3695647  52.3477097 169.7979126   0.2040142
  51.4145584 171.6318359   0.3914313  50.6199760 172.2060699  -0.0849992
  51.0226974 171.3782959   1.3764532  52.7639236 172.3622742   0.6320701
  53.7207031 171.7689667   1.1928903  52.8235550 173.5367432   0.2575808
  50.2639694 169.5135651  -0.3882313  49.4086609 169.7003021  -1.2672021
  50.2397995 168.5585480   0.5376536  51.0231895 168.4974060   1.1722088
  49.3542099 167.4019012   0.6404375  49.7538681 166.7299347   1.3999318
  47.8984604 167.9206390   1.0236833  47.6342926 168.6943359   0.3027814
  47.0776672 167.2040253   0.9941550  47.8845978 168.5029449   2.4546258
  48.4756432 167.8651886   3.3752389  47.3207321 169.6172485   2.6180258
  49.2383614 166.4930420  -0.6160575  48.3365517 165.6820221  -0.7484211
  50.1354485 166.6834259  -1.5803237  50.8825188 167.3607941  -1.5241209
  50.1002083 165.7585907  -2.7004585  49.0770454 165.7297211  -3.0751657
  50.9131851 166.2691498  -3.9064515  50.6542778 165.6213531  -4.7439623
  50.6045303 167.2694397  -4.2102027  52.3241310 166.0982513  -3.8618686
  52.7542534 166.7469788  -3.2999592  50.5248337 164.2851410  -2.3039620
  51.3965721 164.1444244  -1.4328763  49.9445648 163.2577057  -2.9009564
  49.2309456 163.3889160  -3.6035473  50.1485901 161.8664551  -2.5691464
  50.5014534 161.8592529  -1.5378677  48.8082390 161.0256805  -2.7830501
  48.0509453 161.4749908  -2.1406074  48.4482422 160.9180603  -3.8062418
  48.9574318 159.3005371  -2.0983791  48.3795929 158.6408539  -3.1062582
  51.2183685 161.2655487  -3.4574509  51.1060753 161.3781586  -4.6583357
  52.2902794 160.7165222  -2.8674226  52.2513275 160.7711029  -1.8596510
  53.5197906 160.3101501  -3.5369179  53.3143692 160.1700439  -4.5981789
  54.5951729 161.3529510  -3.2287798  54.8030777 161.2678070  -2.1621850
  55.4993019 160.9943695  -3.7207892  54.3259468 162.8382416  -3.5694900
  53.4016342 163.1886902  -3.1102118  55.0370140 163.5593262  -3.1663384
  54.1151924 163.0124359  -5.0856028  54.3312759 162.1902466  -5.9445949
  53.5523949 164.1278687  -5.6084981  53.4205055 164.2668610  -6.6001601
  53.2352943 164.8867950  -5.0223384  53.8684502 158.9132233  -3.1002026
  53.4668312 158.5098267  -2.0405560  54.7593918 158.2016602  -3.8722298
  54.9710732 158.6226349  -4.7655740  55.4152412 156.9704895  -3.4838042
  55.1939392 156.8498535  -2.4233449  54.8084488 155.6731262  -4.1640244
  53.7517395 155.5982208  -3.9073997  54.8331146 155.9009552  -5.7127371
  55.8362999 156.1497955  -6.0588484  54.4635353 155.0219269  -6.2407627
  54.1225128 156.7099304  -5.8821731  55.4911308 154.3221283  -3.9285681
  55.2402802 153.9254608  -2.9447854  55.2141495 153.4828949  -4.5665936
  56.5667305 154.3834686  -4.0941639  56.9353409 157.0582886  -3.6737416
  57.4549332 157.5485992  -4.6820474  57.6837845 156.6158600  -2.6554980
  57.2783623 156.2158508  -1.8213986  59.1019440 156.9375916  -2.4650402
  59.5331688 157.1152191  -3.4502270  59.2534943 158.2614594  -1.6511340
  59.0729866 157.9995575  -0.6085770  60.6991768 158.9169922  -1.5864810
  61.0038261 159.3965607  -2.5167005  60.7945023 159.7071686  -0.8417333
  61.4193459 158.1262360  -1.3763753  58.2926865 159.4004517  -2.1388545
  58.4368629 159.4788666  -3.2164276  57.2696953 159.1537933  -1.8546770
  58.3572578 160.8784027  -1.5666741  59.1040306 161.4462280  -2.1216519
  57.4103165 161.3863068  -1.7494926  58.4915428 160.9023285  -0.4852419
  59.9371758 155.8359528  -1.8121979  59.5877495 155.2135162  -0.7928073
  61.1026077 155.5080414  -2.4016330  61.7319374 156.0814972  -3.6046000
  61.8719330 157.1602936  -3.5360076  61.0557976 155.8180084  -4.4179287
  63.0843773 155.4078217  -3.7812388  63.8753967 155.9658051  -3.2802022
  63.3044167 155.0868073  -4.7993922  62.9481277 154.1198120  -2.9931448
  63.8765717 153.7233887  -2.5821226  62.5145226 153.3792877  -3.6652455
  61.9422684 154.4607239  -1.8681334  61.2128677 153.6745758  -1.6730611
  62.7280769 154.9657898  -0.6078018  63.0876770 156.1140594  -0.4862043
  62.9540672 154.0133209   0.2651502  62.5602570 153.1043854   0.0680199
  63.7188301 154.0821381   1.4933701  64.0865936 155.1038971   1.5874029
  62.7638664 153.7299957   2.6885338  62.5181427 152.6682281   2.6693115
  63.5036926 153.8113098   4.0689173  63.6628189 154.8622894   4.3102221
  62.8527374 153.4229736   4.8522120  64.4643784 153.2971039   4.0408835
  61.5306244 154.5413361   2.9058273  60.8711357 154.4098663   2.0479867
  61.0162201 154.1269073   3.7728598  61.8072701 155.5820465   3.0745614
  64.8537216 153.0595856   1.3478209  64.5773239 151.8822021   1.0518483
  66.0857925 153.4928436   1.6335927  66.2981262 154.4592285   1.8363706
  67.1719589 152.5479126   1.7587948  67.2268372 151.9674988   0.8378152
  68.4663696 153.2881622   1.8348987  68.3474808 154.0317078   2.6230104
  69.2123489 152.5172577   2.0280704  68.9415131 154.0325470   0.5681417
  68.1176605 154.5931549   0.1264361  70.0007782 155.0721130   0.9191206
  70.9055176 154.7305603   1.4219993  70.2331619 155.5722046  -0.0210950
  69.5284882 155.7377167   1.6416309  69.6894073 153.0313263  -0.3531606
  69.0859604 152.1249695  -0.4029379  69.9107971 153.4546967  -1.3328768
  70.6372375 152.7263794   0.0903929  66.8776855 151.7083130   3.0667658
  66.7129669 152.2726593   4.1794133  66.8142242 150.3660736   2.9397140
  66.9798050 149.5821838   1.7717453  67.9931717 149.7413330   1.4031428
  66.1413498 149.7866821   1.1059602  67.0087662 148.1279602   2.2036250
  67.9905014 147.6996002   2.4056420  66.4829559 147.6161346   1.3976071
  66.1909409 148.1590271   3.5116298  66.5286636 147.3738708   4.1880679
  65.1300964 148.0641022   3.2799094  66.5246201 149.5226898   4.0869927
  65.5973892 149.9164734   4.5032496  67.6130829 149.5590515   5.2287207
  67.2070618 149.3284149   6.3459477  68.8923035 149.7705688   4.9577847
  69.2422714 149.7877350   4.0105104  69.8861008 149.9488831   6.0710711
  69.5240021 149.3449707   6.9031010  71.2520447 149.4873962   5.6478314
  71.6590195 150.1457214   4.8803177  71.9974518 149.5938873   6.4359560
  71.3519211 148.0312500   5.2150493  70.8802643 147.5203094   4.0102997
  71.2101974 146.1788177   4.0263057  71.0828018 145.4572296   3.2329054
  71.7034607 145.9220276   5.2435889  71.8771362 144.9888153   5.5886493
  71.8897629 147.0388489   5.9586887  72.4131165 147.1429291   6.8976645
  69.8429108 151.3150635   6.7788482  70.7529221 151.5200958   7.6123405
  68.9078445 152.2708588   6.5609994  68.2005463 152.0920258   5.8625336
  68.8495865 153.5652618   7.2327781  69.8117294 153.9313049   7.5911012
  68.4076080 154.6261902   6.2142024  67.4796524 154.3168793   5.7332253
  68.1650085 155.9784851   6.9084468  69.1609268 156.2373962   7.2679138
  67.9632187 156.7603760   6.1763039  67.3882828 155.8967896   7.6687932
  69.4272766 154.7791138   5.0758142  69.4817505 153.8730164   4.4723892
  69.1810684 155.5847473   4.3841362  70.4346008 154.9115601   5.4706116
  67.8900909 153.4249115   8.4370203  66.7557602 153.2203369   8.2373590
  68.3929443 153.5512085   9.6861782  69.3903961 153.5027313   9.8372860
  67.5858536 153.3492889  10.8653669  66.6272507 152.9065399  10.5949049
  68.2838287 152.2694397  11.8231707  69.3046570 152.5906830  12.0301247
  67.7798386 152.2471313  12.7893963  68.2767944 150.9067383  11.1288023
  67.2615891 150.5102997  11.1457758  68.5333252 151.0865021  10.0847807
  69.3283920 149.5958710  11.8257456  69.8277588 148.8832703  10.2604437
  70.3966446 149.6146545   9.6863794  70.5159302 148.0723877  10.4992390
  68.9421082 148.4646454   9.7824373  67.2466125 154.6207886  11.6871738
  66.2926712 154.6088562  12.4722576  68.0755920 155.6566315  11.4788132
  68.7436295 155.6206818  10.7221565  67.8778839 156.9765778  12.0964680
  67.6450424 156.8027954  13.1470346  69.1571503 157.8647003  12.0314875
  68.9025574 158.7776337  12.5698528  70.3294678 157.3255463  12.9556208
  70.7199020 156.3430328  12.6903868  71.2601013 157.8924408  12.9810362
  69.9838104 157.1165924  13.9680271  69.5840454 158.1675110  10.5960360
  68.7050781 158.3214569   9.9700775  70.2138596 159.0571442  10.5979700
  70.1068802 157.2709198  10.2630882  66.6695099 157.7730865  11.5523796
  66.1284027 157.4806366  10.4762001  66.1875992 158.6815186  12.3320236
  66.6224136 158.6795349  13.2436323  65.1892090 159.6556549  11.9677181
  64.4813995 159.1268005  11.3294163  64.4050064 159.9848175  13.2506285
  64.0103378 159.0191803  13.5666656  65.0531006 160.4058075  14.0192976
  63.1408920 160.8559113  12.9084177  63.4166107 161.7209167  12.3052273
  62.4804573 160.2921753  12.2495193  62.1765671 161.4283752  14.3235798
  62.3763504 160.0737610  15.4902210  63.4383583 159.9288330  15.6882896
  61.8962097 160.3590546  16.4262657  61.8487015 159.2218170  15.0614452
  65.8119507 160.9416809  11.4325438  66.7706451 161.4017944  12.0821896
  65.4363403 161.3972778  10.2503166  64.6746445 160.9690247   9.7438364
  65.9186707 162.6390686   9.7150097  66.9014740 162.8647919  10.1288366
  66.1996307 162.5371094   8.1485510  66.5974045 161.5618896   7.8678265
  65.2580719 162.5455933   7.5994625  67.1003494 163.6081238   7.5517120
  66.6878433 164.5854340   7.8023100  68.4957199 163.4254608   8.0065517
  68.8419800 162.4033813   7.8530898  69.1224136 164.2002258   7.5648484
  68.5021362 163.4937592   9.0943966  67.0873108 163.4669800   6.0677304
  66.1095505 163.7580261   5.6838245  67.8061829 164.1433258   5.6052666
  67.2534637 162.4161682   5.8304915  64.9320221 163.7923126  10.0254784
  63.7408791 163.6441650   9.6386538  65.3328552 164.9627228  10.5133591
  66.3076172 165.0786591  10.7510614  64.4927673 166.2092896  10.6108465
  63.4473000 165.9021606  10.6385345  64.7447128 166.9593201  11.9290066
  65.7953491 167.2470703  11.9674931  63.8988457 168.2615509  12.0677233
  62.9424248 168.0302277  11.5988350  63.6758804 168.5005341  13.1075678
  64.4522400 169.0758057  11.5999012  64.4085770 166.0429535  13.0868416
  65.1253281 165.2248383  13.1579285  64.5013046 166.5616608  14.0410213
  63.0417366 165.4079132  13.1916075  62.8876610 164.5392303  12.5515032
  62.9625740 165.0496521  14.2179966  62.1946907 166.0673065  13.0023298
  64.7573547 167.0740051   9.4039412  65.8773117 167.0125275   8.8686848
  63.7725067 167.7316132   8.8201084  62.3504982 167.5954285   8.8930416
  62.0140800 167.9891205   9.8521671  62.0456696 166.5489502   8.8845024
  61.7706451 168.2597809   7.6251402  60.8105125 168.7498322   7.7867079
  61.5417442 167.4532013   6.9286089  62.7986298 169.2361908   7.1993995
  62.6851044 170.1975098   7.7004666  62.7237434 169.4066162   6.1254125
  64.1108398 168.6119690   7.6234484  64.4210205 167.9668884   6.8014069
  65.1700897 169.5866699   7.9541183  65.3875656 169.9594116   9.1343374
  65.9448242 170.0121765   6.9653625  65.7948456 169.6513062   6.0340319
  67.1121597 170.8972473   7.2053347  67.2340164 171.5955658   6.3773265
  66.7758942 171.5071716   8.0437975  68.3882141 170.2197723   7.5942612
  69.4760666 170.7113800   7.2556238  68.2654190 168.9928284   8.1361313
  67.3112335 168.7189178   8.3221550  69.3484116 168.1507874   8.6629133
  69.9988480 168.8133240   9.2339468  68.7741241 167.0499725   9.6116009
  68.1128998 167.5434265  10.3239202  68.2513275 166.2899323   9.0309734
  69.9412537 166.4121399  10.3499851  70.5404510 165.8375549   9.6436462
  70.6309128 167.1470642  10.7651386  69.3726196 165.4585419  11.4228525
  68.1587906 165.2455597  11.6080112  70.2618866 164.7691650  12.1695280
  70.1657333 163.9908905  12.8060455  71.2208481 164.8130188  11.8555613
  70.0876846 167.6086273   7.4532080  69.4868774 167.0086060   6.5593557
  71.4166794 167.5872040   7.5462089  71.8079834 168.0981750   8.3245945
  72.3684235 167.0285797   6.5347381  71.7980957 167.1594391   5.6151171
  73.7504272 167.7815704   6.4586487  74.1616898 167.6309052   7.4567766
  74.7631378 167.3057404   5.4025326  74.1997833 167.2234039   4.4730368
  75.5969849 168.0049591   5.3402100  75.1816483 166.3260498   5.6330824
  73.5800171 169.1952972   6.2930012  74.4031982 169.6865997   6.3440332
  72.5031509 165.5366516   6.8348889  72.4517441 165.1511688   8.0038185
  72.7652893 164.6014099   5.8774672  72.5562286 164.8961029   4.9343076
  72.8777161 163.1660309   6.0161309  73.0685730 163.0573883   7.0837789
  71.4541473 162.6223755   5.7208223  70.6937790 163.0559082   6.3704243
  71.1879578 162.8844757   4.6968365  71.3740005 161.0760498   5.8050923
  72.1201096 160.6514435   5.1334348  71.7778702 160.5043640   7.1672163
  71.1818848 160.9894104   7.9402947  71.5306396 159.4462433   7.2528930
  72.8436203 160.6206970   7.3640356  69.9754639 160.5744019   5.3804083
  69.6651688 160.9918060   4.4225016  69.9683762 159.4952545   5.2271247
  69.2073441 160.9272919   6.0685563  74.0106277 162.5735016   5.0336394
  73.7547073 162.4444275   3.8253469  75.1568069 162.3010101   5.5059600
  75.5810165 162.6349182   6.8714442  74.9946289 162.1782379   7.6687541
  75.5548248 163.7216797   6.9511571  77.0869141 162.1704559   6.9808974
  77.1877594 161.2252808   7.5143690  77.6984863 162.9167633   7.4879479
  77.5629959 162.0283356   5.5742145  78.3035126 161.2508392   5.3864527
  77.9309311 162.9423981   5.1081553  76.2553024 161.6592560   4.7941871
  76.3481598 161.9833679   3.7576380  75.9689178 160.1735077   4.7884727
  75.4853439 159.6406403   5.7883534  76.2113571 159.4601898   3.7139063
  76.5558548 159.8859100   2.8652716  76.1402512 157.9792175   3.6485417
  76.1576004 157.5355225   4.6439943  74.6881409 157.6025848   3.1483743
  74.7722855 158.0683594   2.1665037  74.5919113 156.5199280   3.0664284
  73.3968811 158.0958862   3.8476563  73.4747696 159.1768951   3.9636462
  72.1563034 157.7831879   2.9756153  72.1828156 156.7422028   2.6535110
  71.3181000 157.9682159   3.6473806  72.1059952 158.4399872   2.1071832
  73.2237015 157.2661896   5.1282043  74.0188217 157.5089722   5.8331513
  72.2406082 157.4464874   5.5630698  73.2978668 156.2031555   4.8989286
  77.1908722 157.3747864   2.7464705  77.6888428 157.9955444   1.7826675
  77.5600662 156.0866089   3.0317686  77.2912445 155.7967987   3.9612010
  78.3256454 155.2078705   2.1454155  78.3563614 155.6618347   1.1549273
  79.7504272 155.0501556   2.7584066  80.2495422 156.0185394   2.7235999
  79.5849762 154.7024994   3.7781494  80.6870499 154.0475159   2.0672717
  80.2038956 153.0712280   2.1061635  80.8015976 154.3114166   1.0159189
  82.1108170 154.0168304   2.5615597  82.5846024 155.0161896   3.1149235
  82.8403625 152.9308167   2.2930591  83.8299255 152.9501953   2.4942939
  82.3998108 152.0793610   1.9751871  77.5034485 153.9188385   1.9374493
  77.1438828 153.2326813   2.9034986  77.2269592 153.5238495   0.6623836
  77.5469971 154.1184998  -0.0886635  76.3457260 152.4612122   0.3508229
  75.9902191 151.9196167   1.2274024  75.0708466 152.9318695  -0.4162333
  75.3230972 153.1673431  -1.4501709  74.4328461 152.0508728  -0.4861818
  74.2551880 154.1528015   0.0889724  74.9228821 155.0141907   0.0714268
  73.0939865 154.5556335  -0.8624136  72.3762970 153.7698059  -1.0980375
  72.5479126 155.4114075  -0.4654728  73.6312637 154.7995605  -1.7788899
  73.6536560 153.9400330   1.4773064  74.5175781 153.6676788   2.0835726
  73.3027267 154.8808746   1.9012946  73.0578003 153.0286560   1.5268439
  77.1948242 151.4889526  -0.4871310  77.6254349 151.8043976  -1.6120995
  77.4527435 150.2829590   0.0896153  77.2486496 150.2088165   1.0759977
  78.2556152 149.1882172  -0.4591700  78.7259369 149.5022430  -1.3909943
  79.3526840 148.8175201   0.6035254  79.9629135 147.9630890   0.3108374
  80.0624542 149.6213379   0.7989781  78.7901382 148.4426422   2.0501029
  78.4393616 149.4470978   2.9623995  78.6473846 150.4684448   2.6795881
  77.6863937 149.0852966   4.1194329  77.3071747 149.8956909   4.7242932
  77.5447006 147.7554932   4.4629726  77.0707855 147.4576569   5.3866062
  77.9433823 146.7558594   3.5623584  77.5669022 145.7764282   3.8180621
  78.4631500 147.1283417   2.3395774  78.6272354 146.3237305   1.6380799
  77.3706970 147.8913422  -0.8369017  77.8651199 147.0547791  -1.5877221
  76.1572571 147.7671509  -0.2957927  75.9018936 148.3702393   0.4730839
  75.2222061 146.6653748  -0.5907348  75.7852020 145.7406158  -0.4643727
  74.1386642 146.5024414   0.5053335  73.7404175 147.4829407   0.7663422
  73.2946014 145.9413452   0.1042856  74.6890335 145.7414398   1.6925116
  74.8936157 144.3297424   1.5749559  75.0443192 143.9115906   2.8576097
  75.3102570 142.8968658   3.1145213  75.0232773 144.9891815   3.6933460
  75.1323166 145.0455017   4.6958623  74.6066055 146.0941467   2.9850342
  74.1973724 147.0139160   3.3761249  74.6448059 146.7644043  -2.0552752
  74.3820724 147.9103241  -2.4544811  74.5449295 145.6122894  -2.8426034
  74.5573120 144.2248688  -2.3724825  74.0949402 144.0541229  -1.4002906
  75.5929413 143.8864746  -2.3397539  73.8659668 143.3439026  -3.4589162
  72.8129272 143.2316895  -3.2007987  74.4829712 142.4456482  -3.4356437
  74.0044937 144.2294769  -4.7265368  73.1976166 144.1419067  -5.4541225
  74.8901291 143.9457855  -5.2951050  74.1771622 145.7053223  -4.2734818
  74.9523544 146.1101074  -4.9241180  72.9199829 146.5260620  -4.4939632
  72.8501892 147.4266052  -5.3611326  71.8308716 146.2656097  -3.7726338
  71.8955231 145.4929047  -3.1254494  70.4666595 146.8707123  -3.9067969
  70.2920151 146.8015747  -4.9804907  69.3715134 146.0375214  -3.0933168
  68.3875198 146.3275146  -3.4617746  69.4459000 144.9975891  -3.4112554
  69.2919617 146.0703430  -1.5695857  69.5048523 147.1135101  -1.3359965
  68.3189240 145.7462769  -1.2004311  70.3821106 145.2211151  -0.8544174
  71.4682083 144.9785919  -1.3205007  70.0410080 144.7286987   0.3270966
  70.6862793 144.1116791   0.7993560  69.0934219 144.8806152   0.6419050
  70.5773926 148.3305511  -3.5345576  69.9297104 149.1694031  -4.1449637
  71.3635406 148.7113953  -2.5056846  71.9344711 148.0659637  -1.9788564
  71.5055466 150.1276093  -2.1362216  70.5344696 150.6030273  -1.9981207
  72.2760315 150.2914734  -0.8365521  73.2701797 149.8461456  -0.8744861
  72.3376312 151.3733368  -0.7187335  71.5237045 149.8162689   0.4251458
  70.4805908 150.1317902   0.4465485  71.5012436 148.7268524   0.3978358
  72.2334900 150.2916412   1.6947073  73.4087448 149.9412384   1.8690543
  71.6038666 150.9981537   2.5030725  72.2037811 150.9564362  -3.2089956
  71.8230057 152.0641937  -3.4550257  73.1926880 150.3899536  -3.8837724
  73.5726089 149.5155182  -3.5504117  73.8888474 150.9710541  -5.0524826
  74.3047638 151.9402466  -4.7771602  75.0387955 150.0405426  -5.5554395
  74.7530823 148.9895630  -5.5993633  75.6227188 150.5137939  -6.8884029
  75.8032532 151.5882721  -6.8562875  76.5652924 150.0227814  -7.1304135
  74.9674683 150.2955322  -7.7316699  76.1548843 150.1989136  -4.3889723
  75.8662491 149.8663025  -3.3918943  77.0425491 149.6218414  -4.6481075
  76.4537582 151.2434998  -4.3018289  72.8488235 151.1663361  -6.2255273
  72.6729431 152.2690277  -6.6962395  72.1505737 150.1000214  -6.6362391
  72.3228226 149.2304230  -6.1522722  71.1696930 150.0503540  -7.7123766
  71.6692505 150.3770905  -8.6243954  70.6085663 148.6545715  -7.9358683
  71.4592590 147.9791260  -8.0264997  70.1493149 148.2772522  -7.0221815
  69.9014664 148.6096649  -9.1785021  69.2789383 147.8798370  -9.2162285
  70.0904388 151.1057892  -7.5344419  69.8877563 151.9793701  -8.3724232
  69.4342499 151.1347961  -6.3747859  69.6323090 150.4413605  -5.6676540
  68.3594360 152.0787811  -6.1316109  67.5424271 151.9324188  -6.8381419
  67.8145676 151.8282166  -4.7487702  67.6537399 150.7502441  -4.7339501
  68.4832306 152.1430969  -3.9476211  66.4009018 152.4083252  -4.4549770
  65.7042694 151.9764557  -5.1735158  66.1350479 152.0352325  -3.4659247
  66.2533188 154.2051086  -4.4731994  67.1865463 154.7019501  -3.0841827
  68.2284851 154.3841553  -3.1225722  67.1111374 155.7840271  -2.9769664
  66.7048340 154.1939087  -2.2487469  68.8218994 153.5594482  -6.2916298
  68.2846680 154.3211365  -7.0919452  69.8867798 154.0228882  -5.6180472
  70.4324570 153.3393250  -5.1130118  70.3614883 155.3894653  -5.8111730
  69.4642410 155.9890900  -5.6578512  71.4478607 155.8074799  -4.8327894
  71.7720032 156.8323975  -5.0133290  70.9685440 155.7634125  -3.4032731
  70.8019714 154.7126770  -3.1659150  71.6309128 156.3131866  -2.7346070
  69.9821854 156.2258453  -3.3666859  72.6977234 154.9287872  -5.0132627
  73.1137466 155.0772247  -6.0097499  73.4520340 155.2090149  -4.2780108
  72.5252533 153.8617554  -4.8726211  70.7966003 155.7265778  -7.2310085
  70.5779419 156.8793030  -7.6859684  71.3994141 154.7748260  -7.9352860
  71.5026245 153.8615723  -7.5164781  71.8933029 154.9506073  -9.3664379
  72.4621353 155.8790588  -9.4165888  72.7453232 153.7437592  -9.8456116
  73.5303955 153.6278992  -9.0983896  72.0988998 152.8743744  -9.9657097
  73.4841919 154.0378418 -11.1112194  72.9303970 154.5398407 -11.9045801
  74.2675171 154.7573700 -10.8729296  74.1886520 152.7970123 -11.7059727
  73.4375229 152.0121155 -11.7945442  74.4914627 153.0373077 -12.7251215
  75.4014740 152.4251862 -10.8990755  75.9494324 153.1795502 -10.5107889
  75.9969330 151.2439880 -10.8139257  75.5852966 150.2122955 -11.4778690
  74.8106918 150.4319763 -12.0876493  76.2462845 149.4550934 -11.5770826
  77.0913162 151.1390533 -10.1281443  77.5152054 152.0093994  -9.8402033
  77.5061340 150.2186279 -10.0992594  70.6390228 155.2552185 -10.2413797
  70.5700073 156.3005829 -10.8813124  69.6198502 154.4496155 -10.0893421
  69.7945557 153.6949615  -9.4412260  68.3722305 154.4013977 -10.8384590
  68.4959259 154.4347839 -11.9209032  67.6230164 153.0066986 -10.4865046
  67.3978729 153.0459595  -9.4207315  66.6500473 152.9531860 -10.9749336
  68.3839340 151.7150116 -10.8838034  69.3809586 151.6663971 -11.5970306
  67.9715958 150.5200043 -10.4309139  68.5709457 149.7286377 -10.6169872
  67.1439133 150.4114685  -9.8623419  67.4128799 155.5490723 -10.5382900
  66.5982666 155.8940735 -11.4324551  67.5383835 156.1710205  -9.3566713
  68.0977936 155.6906433  -8.6664543  66.8770294 157.4510193  -8.9702368
  65.8486710 157.4881592  -9.3296871  66.6995392 157.4400330  -7.4143205
  66.0975037 156.5674133  -7.1609831  67.6858215 157.3234253  -6.9651661
  66.1462173 158.6363525  -6.6701961  66.7888794 159.4814911  -6.9168382
  64.7415237 159.0072174  -7.1959686  64.0907593 158.1464081  -7.0423775
  64.2705841 159.8260956  -6.6521311  64.8937302 159.2908478  -8.2373590
  66.1891251 158.3574066  -5.1907997  67.2127991 158.3454590  -4.8165493
  65.7382736 159.1843567  -4.6421776  65.5817108 157.4874573  -4.9411168
  67.6604385 158.6728058  -9.5210934  66.9868164 159.6265259  -9.9180803
  69.0214615 158.7075043  -9.5053997  69.4519958 157.8716888  -9.1364050
  69.8638306 159.9157867  -9.7139559  69.4595642 160.6910095  -9.0630360
  71.3277206 159.6785278  -9.2537251  71.3619156 158.9018555  -8.4897118
  72.3591003 159.2772827 -10.3845901  72.4078369 160.1588745 -11.0237398
  73.3394547 159.1290588  -9.9317808  71.9654694 158.4369965 -10.9565048
  72.0374985 160.8400879  -8.5004148  73.0888290 160.5836487  -8.3698673
  71.9678345 161.7817383  -9.0449524  71.5257950 160.9874268  -7.0827436
  71.9558029 160.2508545  -6.4040318  71.9349976 161.9482727  -6.7705889
  70.4436188 160.8602295  -7.0542450  69.7971344 160.4601440 -11.1497345
  70.0323181 161.6522522 -11.3258619  69.4242706 159.6824646 -12.1388130
  69.4832687 158.6895142 -11.9636841  69.1336060 160.1573029 -13.5097876
  69.9595337 160.8135681 -13.7841263  69.1317215 158.9561310 -14.4885502
  68.6960144 158.1184387 -13.9439945  68.4387970 159.1549530 -15.3061237
  70.4663010 158.6094971 -15.1182976  70.2823410 157.7315063 -15.7374706
  70.6780014 159.4168396 -15.8193531  71.6228104 158.5017395 -14.1479778
  72.4709702 159.3736877 -14.0025663  71.7634354 157.4509735 -13.4274044
  72.5514221 157.4454651 -12.7956247  71.1484375 156.6778717 -13.6376514
  67.7696075 160.9403839 -13.5789747  67.4643784 161.6424255 -14.5570002
  66.9573059 160.7855072 -12.5201788  67.3850632 160.2602997 -11.7709913
  65.6479568 161.4177551 -12.2477074  65.5039673 162.1476288 -13.0443640
  64.4091797 160.5533142 -12.5487442  63.5569038 161.2154846 -12.3962593
  64.4402161 160.2536774 -13.5962906  64.3844604 159.2452087 -11.6895866
  65.2447205 158.6465912 -11.9891062  64.4694824 159.5885315 -10.6585674
  63.0351944 158.5514679 -11.8979940  62.8310890 157.8884888 -11.0572243
  62.1895142 159.2391663 -11.8996382  62.9297447 157.7182922 -13.2103004
  62.6682053 158.3055878 -14.0905142  63.8640099 157.1625519 -13.2903442
  61.7782593 156.7075500 -13.0999680  60.8922958 157.1907196 -13.1413774
  61.8288383 156.0669403 -13.8791800  61.8267212 156.1103668 -12.2868729
  65.5652161 162.3246918 -10.9993782  66.4139404 163.2266998 -10.9013710
  64.5681305 162.1474609 -10.1752329  64.0281830 161.3148193 -10.3630114
  64.1551285 162.9896088  -9.0398359  64.0993500 163.9762878  -9.4996824
  62.8217926 162.5381470  -8.4507599  62.4443054 161.7345886  -9.0831528
  63.0122986 162.1082001  -7.4674191  61.7051964 163.6063232  -8.4179039
  61.9860878 164.7542114  -8.3309155  60.5250931 163.2991028  -8.5670242
  65.1506882 163.1459198  -7.8565879  64.9309921 164.0548859  -7.0132499
  66.1931305 162.3032532  -7.6962934  66.3561859 161.6572571  -8.4553719
  67.1200714 162.3251190  -6.5558152  67.8008652 161.4785614  -6.6449065
  68.0728378 163.5341949  -6.4743290  67.4936600 164.4562988  -6.4254036
  68.6321945 163.4778290  -5.5404968  68.9499664 163.4624939  -7.7846746
  69.5073318 162.5265350  -7.8224783  68.3787384 163.4463348  -8.7128677
  70.0210648 164.4968872  -8.0117912  70.7069473 164.5174103  -7.1648879
  70.6326675 164.1242981  -8.8335018  69.4513779 165.8396301  -8.3841934
  69.4845428 166.0195312  -9.3774891  68.9982452 166.6952057  -7.5495558
  69.1557007 166.6881409  -6.2290888  69.6104126 165.9608307  -5.6958437
  68.7053680 167.4156342  -5.6923642  68.2961426 167.7391052  -7.9699159
  68.0318909 167.8031921  -8.9426270  67.9848709 168.4326324  -7.3049130
  66.5019073 162.1568451  -5.0913711  67.2474060 161.8507385  -4.1519194
  65.2094421 162.4185638  -4.8270988  64.7726135 162.8850250  -5.6092105
  64.5095673 162.1948090  -3.5661502  65.1624451 162.6123810  -2.7996790
  63.1904640 162.9951782  -3.4509194  62.5555954 162.6441956  -2.6373754
  63.4026756 164.4853973  -3.3082962  63.7490959 164.8997803  -4.2550740
  62.3679199 164.8267365  -3.3379209  63.9240532 164.7314453  -2.3832417
  62.4454803 162.8158264  -4.6436768  61.9967422 161.9710999  -4.7252903
  64.2915802 160.7103882  -3.2016857  63.5492096 159.9507141  -3.8055267
  64.8737717 160.2679596  -2.0762956  65.4715881 160.9476776  -1.6283138
  64.4330292 159.0688934  -1.3464937  63.6620407 158.4993134  -1.8653865
  65.6956329 158.1600952  -1.2906410  65.3796234 157.1691284  -0.9646860
  66.1423492 158.0714111  -2.2809362  66.6445160 158.5244904  -0.1943405
  67.7808151 159.3813477  -0.4797808  67.7668839 159.7814178  -1.4828521
  68.7758789 159.5877075   0.4440671  69.6790161 160.0815735   0.1171947
  68.6889572 159.0033264   1.7596482  69.5028076 159.0763550   2.4658465
  67.5502777 158.2010803   2.0660696  67.5833817 157.5967407   2.9605396
  66.5974655 157.9187164   1.0870227  65.8507690 157.1938629   1.3758639
  63.7346992 159.5246582  -0.0755913  63.4663849 160.6992493   0.1318379
  63.3052483 158.5480652   0.7480882  63.5078468 157.6116333   0.4285008
  62.8038101 158.8360138   2.0727291  62.9973526 159.8746796   2.3407035
  61.2692451 158.6374207   2.0845995  61.1086502 157.7218323   1.5153749
  60.7778473 158.4423523   3.0377927  60.8109245 159.4766846   1.5614491
  63.5867920 158.0858765   3.2039266  64.0845718 157.0046692   3.0977137
  63.4435654 158.7447662   4.3792391  63.0157166 159.6514435   4.5015650
  63.8459053 158.1438751   5.6852689  64.3184814 157.2037201   5.4008360
  64.9434280 159.0368500   6.3737164  64.5226135 160.0376587   6.4706316
  65.2519684 158.3524017   7.7785034  65.1514893 157.2670441   7.7751541
  66.2587357 158.5947876   8.1187563  64.5590668 158.7384491   8.5261335
  66.2084808 159.0624542   5.4990978  66.0547256 159.8196869   4.7302938
  67.0843430 159.4724579   6.0019464  66.4336624 158.0754242   5.0951619
  62.6019669 158.0632782   6.5547061  61.9913292 159.0910339   6.8236904
  62.1931801 156.8509521   7.0209994  62.7213058 156.0601654   6.6806569
  61.0594101 156.7052307   7.9744854  60.2753639 157.4424591   7.8016343
  60.4319801 155.3012390   7.8404264  61.1551743 154.5515900   8.1615305
  59.6209068 155.2622833   8.5675764  59.9268837 154.8412018   6.4260039
  60.6328239 155.0105896   5.6129498  59.5013580 153.3423004   6.4448085
  58.7685928 153.0224152   7.1856360  59.1625252 153.0334778   5.4559045
  60.3532906 152.6832428   6.6120443  58.7246628 155.6494446   5.9977155
  59.0194626 156.5861969   5.5247717  58.1441765 155.1088562   5.2501116
  58.0182762 155.7166748   6.8251252  61.4180984 156.9634552   9.4621782
  62.5382423 156.6448364   9.8708038  60.5066719 157.4842529  10.2466793
  59.5756760 157.7131042   9.9289083  60.6603813 157.6166840  11.6795187
  61.7147102 157.7088623  11.9402771  59.9198685 158.8177032  12.2302513
  58.8360252 158.7244415  12.1617737  60.2591553 158.8350525  13.2659559
  60.2603912 159.7351074  11.7501440  60.2142525 156.2949829  12.2926168
  59.0353737 156.0431519  12.5983381  61.1913605 155.3864136  12.3249655
  62.1565933 155.6312256  12.1561594  60.9265099 154.0371246  12.9018259
  60.1000671 153.6643372  12.2967491  62.1037445 153.1185303  12.6568480
  62.9702301 153.5601959  13.1490259  61.9281807 152.1925964  13.2044821
  62.3339233 152.7413025  11.2100725  61.3923950 151.8896027  10.4877243
  60.5424690 151.5314178  11.0496235  61.4569969 151.5935364   9.1101751
  60.7000237 151.0598145   8.5547142  62.5425415 152.1127472   8.4267130
  62.7129211 151.8708191   7.0634732  62.5535393 150.9465942   6.8585014
  63.5115509 152.8661194   9.0689449  64.3594894 153.2138062   8.4975281
  63.4250450 153.2110596  10.4688292  64.1620102 153.8469238  10.9367523
  60.4998283 154.0504608  14.3754435  61.3804054 154.1450958  15.2635660
  59.1997375 154.0185242  14.7053461  58.5283241 153.9579163  13.9532633
  58.5924149 154.0987854  16.0579109  59.1226273 154.8645172  16.6241627
  57.1169472 154.3744507  15.9317827  56.5733986 154.2221832  16.8642368
  56.9565353 155.3868866  15.5612020  56.6273270 153.4499664  14.9060068
  55.6998749 153.2145996  14.9836588  58.8208504 152.7632446  16.8262424
  58.9309502 152.7603760  18.0523376  59.0630379 151.6443787  16.1086845
  58.9904861 151.8175812  15.1162949  59.6609116 150.3542938  16.5552692
  60.2941322 150.5255585  17.4257908  58.4931335 149.5268555  17.0919838
  58.0721054 150.0248413  17.9653969  57.7379570 149.3753204  16.3207245
  58.9477654 148.1413574  17.3838539  59.7829971 147.4536896  16.7305756
  58.5103455 147.5286255  18.4226685  58.8526230 146.5986023  18.6176319
  57.7054634 147.9508057  18.8631516  60.6020126 149.8165283  15.4311371
  60.1069145 149.2347565  14.4610538  61.8978271 149.9728699  15.5933313
  62.2146988 150.1764984  16.5304661  62.8460846 149.6502838  14.5491867
  62.4569054 149.8708801  13.5552168  64.0469818 150.6234436  14.7508602
  63.6885719 151.6465302  14.8646593  64.8238373 150.2340393  16.0540905
  65.1381378 149.1915131  16.0046177  65.7345581 150.8211670  16.1723595
  64.1974411 150.3625183  16.9368248  65.0567017 150.5741577  13.5853157
  64.6465302 150.9942017  12.6669340  65.8292465 151.2759857  13.8994799
  65.5043182 149.6037445  13.3707027  63.1583252 148.1359711  14.4491138
  63.7908134 147.7314606  13.5228405  62.6961060 147.3347931  15.4447241
  62.0544815 147.7712250  16.0912209  62.8047485 145.8886719  15.4926634
  63.7299957 145.6400299  14.9728565  62.9843750 145.4893494  16.9576645
  63.7575722 146.1454163  17.3574753  62.0968018 145.6437378  17.5712433
  63.4689598 144.0386200  17.1234875  62.7111664 143.4704132  16.5840435
  64.5072174 143.9579315  16.8016033  63.5155792 143.6250000  18.6225719
  64.2124786 144.3040771  19.1137810  62.4959259 143.8054962  18.9629116
  63.8263893 142.1596680  18.8427925  64.7699356 141.9263611  19.1173573
  63.0051689 141.1299438  18.7003803  61.7280884 141.2510681  18.4406090
  61.2456665 142.1382141  18.4593525  61.1217308 140.4635620  18.2609425
  63.4351311 139.9023895  19.0158882  64.3758850 139.7277985  19.3392887
  62.7972565 139.1194763  18.9998016  61.6896133 145.1561737  14.6915026
  61.9355774 144.2078400  13.9585934  60.4326324 145.6146545  14.7450285
  60.2258301 146.3059692  15.4517221  59.3875694 145.3182526  13.7828045
  59.5609169 144.2988434  13.4380493  58.0035095 145.3091583  14.4611578
  57.9763641 146.2569733  14.9987516  57.2077522 145.3030853  13.7162867
  57.7860298 144.1899414  15.4832554  58.6752052 144.1812897  16.1136494
  56.9026985 144.2486267  16.1191635  57.7094727 142.8192749  14.7708082
  56.8661842 142.5600891  13.8418255  58.5576553 141.9189453  15.0564079
  59.3625526 146.1253052  12.4867020  58.7495346 145.7553406  11.5133753
  60.1178360 147.2499390  12.4852304  60.5993843 147.4024048  13.3598537
  60.1919212 148.3362122  11.5067902  60.8041687 149.1441345  11.9074602
  60.7919006 147.8226166  10.2075577  60.0830269 147.2478638   9.6115150
  61.0629539 148.6337433   9.5317545  62.0175018 146.9258270  10.3692923
  62.5902672 147.2425537  11.2409153  61.6623535 145.9096375  10.5405416
  62.9205055 147.0044861   9.0977411  63.6216354 146.1700592   9.1132669
  62.3207817 146.9029694   8.1932325  63.6121101 148.2985535   9.0699911
  63.1718140 148.9947357   9.6544447  64.7110214 148.5437469   8.3129349
  65.3390884 147.6734924   7.6050992  65.1028366 146.7039948   7.7611704
  66.0437469 147.9168549   6.9236779  65.2783279 149.7311707   8.3068399
  64.9495239 150.5352173   8.8221025  66.1647720 149.7209320   7.8228879
  58.8350830 149.0548706  11.2441063  58.3662300 149.2722931  10.1024694
  58.1026382 149.2647095  12.2614660  58.4760551 148.9773254  13.1548185
  56.9432144 150.1418152  12.3155737  56.3073425 149.8141327  11.4931450
  56.0800018 149.9866180  13.6406040  56.6345329 150.3133698  14.5202799
  55.2448235 150.6509399  13.4186878  55.6070786 148.5621185  13.9366903
  55.3178253 148.0658875  13.0103025  56.4024391 147.9563293  14.3708801
  54.4745865 148.5465240  14.9453440  54.7342911 148.7406769  16.1806011
  53.3187103 148.2803192  14.4686079  57.3776588 151.5916901  12.1126976
  58.3443375 152.0696259  12.7518616  56.5828514 152.3718414  11.2879152
  55.7925835 151.9595947  10.8129025  56.6561546 153.8710938  11.2920380
  56.9107437 154.3131561  12.2552958  57.8063622 154.2511292  10.3646936
  57.6535606 153.8423157   9.3658876  57.8954124 155.3347015  10.2869902
  58.7545891 153.9185181  10.7869816  55.3658981 154.5698853  10.8089008
  54.6308975 153.9958649  10.0242901  55.0363045 155.7239685  11.3381243
  55.6193390 156.1524811  12.0427837  53.8176689 156.4206238  10.9145765
  53.2433281 155.8016205  10.2253256  52.9749870 156.7534637  12.1680412
  53.6368294 157.3137512  12.8284578  52.0252800 157.2603912  11.9972267
  52.5934868 155.5119019  12.9746475  51.6261635 154.5241394  12.5511894
  51.6506042 153.5607758  13.5018454  51.0812531 152.6472321  13.4142399
  52.3652992 153.9323120  14.5247831  52.5233345 153.3336487  15.3227320
  52.9448318 155.1414948  14.2256422  53.5201950 155.7579041  14.9004726
  54.0644684 157.6771393  10.0346775  53.2068443 158.0712585   9.2119236
  55.2334862 158.3427429  10.1883364  55.7707443 158.1674652  11.0254383
  55.6981850 159.4859009   9.3918076  55.1344337 159.5184479   8.4594851
  55.4857483 160.7486877  10.2870951  56.1758690 160.6549988  11.1255789
  55.7509193 161.7027435   9.8315067  54.0684319 161.0422668  10.7931662
  53.3150024 162.0895233  10.1347895  53.6425323 162.5905457   9.2358398
  52.0549736 162.3994598  10.6885099  51.4880981 163.1983032  10.2336330
  51.6110954 161.8191528  11.8961496  50.6413422 162.0071106  12.3327799
  52.3909607 160.7826691  12.5201950  52.0118446 160.2908325  13.4038057
  53.6330872 160.4423065  11.9859352  54.3059845 159.7710266  12.4987755
  57.1755371 159.4344025   8.9878492  57.8821106 158.4607849   9.2535543
  57.6995850 160.4944611   8.3633480  57.0594444 161.2614746   8.2149563
  59.0964622 160.5265503   8.0039663  59.7086525 160.5412903   8.9056911
  59.4115677 159.6810303   7.3924985  59.4668541 161.8104401   7.2751222
  58.7275620 162.7937927   7.3055010  60.6195984 161.7591400   6.7430363
  61.0028610 160.8251343   6.7137160  61.3442192 162.8644257   6.0409451
  60.5057831 163.5433502   5.8854313  62.3620377 163.5389862   6.9574895
  62.9305649 162.7531128   7.4547677  63.3534508 164.4798279   6.2413325
  62.8708191 165.3495331   5.7954960  64.1365280 164.7648926   6.9439144
  63.8101120 163.9735107   5.3909144  61.6596794 164.3440247   7.8683529
  61.9726677 164.1423645   8.7532129  61.8463402 162.3962555   4.6167040
  62.5409088 161.4021301   4.4546990  61.5307083 163.1535339   3.5503638
  60.9229240 163.9371338   3.7418630  62.1426163 162.9264679   2.1833062
  62.2543259 161.8536377   2.0262027  61.3414612 163.5031433   0.9792762
  61.8526039 163.3471985   0.0292694  59.9492531 162.8997803   0.8204359
  59.3054276 163.4216919   1.5283940  59.5666809 162.9981689  -0.1954680
  59.9626465 161.8319550   1.0388042  61.2501221 164.8926544   1.1759318
  62.1357841 165.2614441   1.2104632  63.5535812 163.5012207   2.1823168
  63.7764435 164.6627350   2.4359851  64.5788422 162.7176056   1.8011591
  64.3673935 161.7347565   1.7042567  65.9521179 163.0810242   1.5980432
  66.0992661 164.0269470   2.1192696  66.8700104 162.0230103   2.2340286
  66.7674332 161.1098328   1.6477946  67.9267502 162.2624817   2.1154802
  66.5737457 161.8749084   3.2724850  66.2209015 163.3864746   0.0824985
  66.0607224 162.4498901  -0.7075548  66.6765137 164.6101990  -0.2999119
  66.8658752 165.3694458   0.3386671  67.1645966 164.8592072  -1.6965840
  66.7251053 164.0732574  -2.3107724  66.6603012 166.2564240  -2.2315700
  65.5895462 166.1899567  -2.4243364  66.7974014 167.0131226  -1.4591004
  67.3626862 166.7669373  -3.5479252  68.4236603 166.8575134  -3.3150523
  67.2139740 166.0300140  -4.3371921  66.8424377 168.0820312  -4.1163411
  65.7496643 168.5569153  -3.6960995  67.5183563 168.5065613  -5.0692911
  68.7059860 164.7076416  -1.6606513  69.3642578 165.1529236  -0.7520179
  69.2180786 163.9487762  -2.6375141  68.5427780 163.4016876  -3.1520624
  70.6888428 163.7281189  -2.7901974  71.1667328 163.7796021  -1.8118955
  71.1000977 162.3845978  -3.3973048  70.5404587 162.3480835  -4.3319550
  72.6557159 162.3831177  -3.6993892  73.2213440 162.4835663  -2.7730608
  72.9581070 161.4578094  -4.1897774  72.8888931 163.1610565  -4.4263835
  70.7502213 161.2041016  -2.5411980  71.3837357 161.1569672  -1.6554570
  69.7141342 161.2577057  -2.2068887  70.8962326 159.7976532  -3.2019446
  71.9153900 159.6205902  -3.5455484  70.6990891 159.0168152  -2.4674177
  70.1670456 159.7655792  -4.0114913  71.3007202 164.9738617  -3.4623291
  71.0970764 165.1329498  -4.7112861  72.1070633 165.7919769  -2.7124519
  72.2417297 165.7263947  -1.7136184  72.8254395 166.9627991  -3.2764537
  72.2723312 167.2393646  -4.1740532  72.8068771 168.2757111  -2.4054310
  73.0536880 169.1261902  -3.0409536  71.7791748 168.4206543  -2.0723805
  73.6688004 168.2676239  -1.1504700  74.8812485 169.0072327  -1.0375880
  75.1883240 169.6687927  -1.8341063  75.6626129 168.9555817   0.1490128
  76.5513382 169.5490112   0.3052868  75.2021027 168.1512909   1.1871642
  75.9205856 168.0735321   2.3158100  76.3991470 168.8818512   2.5137823
  73.9798737 167.4717865   1.0904931  73.6472549 166.8329773   1.8952895
  73.1642685 167.5523682  -0.0398069  72.2027054 167.0614014  -0.0673328
  74.2286758 166.7040405  -3.8391259  74.7449646 167.5839539  -4.5604863
  74.9026413 165.5856934  -3.4503984  74.4798126 165.1174316  -2.6617000
  76.2804794 165.1956482  -3.8802085  76.3307877 165.5852356  -4.8969593
  77.3688049 165.9579620  -3.0569098  77.3420563 165.8481750  -1.9727809
  78.3054504 165.5275116  -3.4111969  77.5030594 167.0148163  -3.2874048
  76.5239258 163.6903076  -4.0675588  76.1013260 162.8632660  -3.2448852
  77.2703400 163.2541351  -5.1065454  77.8471298 163.9214783  -5.5985508
  77.3405457 161.8654022  -5.5496740  77.1694107 161.2629852  -4.6575317
  76.1232147 161.6383362  -6.4491615  75.2669373 162.0202637  -5.8932667
  76.2271347 162.2378387  -7.3535428  75.8590927 160.2573853  -6.9279141
  74.8214417 159.4194031  -6.3704796  74.1938095 159.8168030  -5.5865412
  74.6954880 158.1212463  -6.9201708  73.8737564 157.4749298  -6.6491656
  75.5232162 157.6281738  -7.9536843  75.2481689 156.3869019  -8.5263567
  74.8757782 155.7929382  -7.8705149  76.4301453 158.5107422  -8.4959106
  77.0122757 158.1652679  -9.3374386  76.6109238 159.8034363  -8.0180044
  77.2508621 160.4425964  -8.6082115  78.6977234 161.4444427  -6.1893969
  79.2607574 162.2619171  -6.9288917  79.2299271 160.2814789  -5.8609338
  78.5806274 159.7606506  -5.2888751  80.4447098 159.5982513  -6.4017763
  80.6216049 159.7958527  -7.4590206  81.5894928 160.1449585  -5.5292478
  81.4022598 161.1505432  -5.1526208  81.6341934 159.5078583  -4.6459618
  82.9807281 160.1490173  -6.2191358  83.1025696 159.1929779  -6.7282810
  83.0698471 160.9355469  -6.9684887  84.0768814 160.2112885  -5.2108083
  83.7136536 160.8106689  -4.3759937  84.1639709 159.2193756  -4.7673736
  85.2560425 160.8847351  -5.7447410  85.1158066 161.8141327  -6.1143951
  86.4803238 160.4325867  -5.8803282  86.8283997 159.2048035  -5.5902724
  86.1566849 158.5668793  -5.1878476  87.7099686 158.8838654  -5.9643440
  87.4421310 161.2617645  -6.2387996  87.2397385 162.2416534  -6.3765292
  88.4162216 160.9964905  -6.2090306  80.4483566 158.0242615  -6.2808108
  79.8855286 157.4899445  -5.3210225  81.0138702 157.3170319  -7.2784762
  81.2839050 157.8826447  -8.0704756  81.0287476 155.8404388  -7.3516870
  80.6402817 155.2762756  -6.5038052  80.2224884 155.4297333  -8.6200390
  80.5432129 156.0503540  -9.4567327  80.4356689 154.4036255  -8.9196291
  78.6939774 155.6211090  -8.4328766  78.4382935 155.0623474  -7.5325885
  78.4682846 156.6749268  -8.2697001  77.9996109 155.0334930  -9.6888933
  77.4704132 153.9010925  -9.6331520  77.8721848 155.8234711 -10.6826982
  82.4824448 155.3853302  -7.5243688  83.2342148 155.9174805  -8.3528070
  82.7489243 154.2942963  -6.8143530  81.9773712 153.9087982  -6.2888050
  84.0336761 153.5841827  -6.6347032  84.6928101 153.9618835  -7.4163609
  84.7616959 154.0307312  -5.3801842  84.2706146 153.4883575  -4.5722346
  85.8354034 153.8501282  -5.4315066  84.7978134 155.5620117  -5.1756334
  85.2081070 155.9607391  -6.1034150  83.7938309 155.9755707  -5.0803208
  85.7026596 156.0724030  -4.0330515  86.7021408 155.3833008  -3.6520295
  85.5158005 157.2591248  -3.6783888  83.9850235 152.0411377  -6.9567037
  83.0095749 151.3621674  -6.6018648  85.0348663 151.4473724  -7.4928308
  85.8128815 151.9767609  -7.8596277  85.0848923 149.9868622  -7.6156125
  84.3264389 149.5255432  -6.9831181  84.9590836 149.6594238  -9.1315041
  83.9820480 150.0478516  -9.4189377  85.7044296 150.1656952  -9.7449036
  85.1317444 148.1894989  -9.4436016  86.1030121 147.7260437  -9.2705145
  84.4262238 147.5895538  -8.8687887  84.7695541 147.8695374 -10.9208908
  85.6039658 147.4173279 -11.7244711  83.4843445 148.0487061 -11.3441906
  83.3119583 147.8935242 -12.3271971  82.8344269 148.5238647 -10.7343197
  86.4271393 149.4926758  -6.9447212  87.5677948 149.7895966  -7.4401293
  86.3262634 148.7434845  -5.8233800  85.4051361 148.4358063  -5.5459714
  87.4768295 148.1810150  -5.1338115  88.2635498 147.8636932  -5.8182640
  88.0846100 149.1466064  -4.0759001  87.3985062 149.2278290  -3.2328298
  88.9932175 148.6700439  -3.7079015  88.5720215 150.5767059  -4.4819918
  89.3395309 150.5338745  -5.2547774  87.6862106 151.1220551  -4.8076077
  89.1526871 151.4738770  -3.4237237  88.7087784 151.4873657  -2.2536600
  90.0732574 152.2098083  -3.8558483  87.2220612 146.8027649  -4.4301319
  86.0784531 146.5506287  -4.1264052  88.2475891 145.9323883  -4.2435880
  89.1825790 146.2858887  -4.3882208  87.9915161 144.5769501  -3.6673508
  88.9221878 144.0214691  -3.7829995  87.5745544 144.7256622  -2.1387203
  86.5097275 144.9585571  -2.1388364  87.7173233 143.7338562  -1.7097322
  88.3963776 145.7223206  -1.3568368  89.7106705 145.3538513  -0.9385123
  90.0670395 144.3556061  -1.1456419  90.4805832 146.1791382  -0.1482581
  91.4444351 145.8666840   0.2255698  90.0386658 147.5242310   0.0124558
  90.9272461 148.3618469   0.6033348  91.7705994 147.9558563   0.8167043
  88.8229370 147.9704132  -0.4466470  88.4935455 148.9726410  -0.2154895
  87.9805222 147.0508118  -1.0993005  87.0233002 147.4245911  -1.4316115
  86.9341507 143.7155304  -4.4590979  86.2357483 142.8515167  -3.8870280
  86.7207336 144.0434418  -5.7781410  87.3562317 144.7331390  -6.1530533
  85.7311478 143.4254608  -6.6569510  85.9776154 143.8013153  -7.6499710
  85.8405151 142.3409882  -6.6644340  84.3110580 143.8535004  -6.4189243
  83.4169006 143.2301483  -7.0355783  84.0724716 144.8989716  -5.6131716
  84.8776016 145.4031830  -5.2702036  82.6916428 145.4261169  -5.3122568
  81.9967270 144.6471558  -5.6259766  82.4388885 145.5906219  -3.7777886
  81.3542099 145.5783691  -3.6709368  83.0731354 144.4415741  -3.0113184
  84.1560822 144.5620270  -2.9826887  82.7689514 144.4452362  -1.9646289
  82.7980423 143.5105896  -3.5069981  82.8739471 146.9494629  -3.2432771
  83.9161835 147.1367340  -3.5016904  82.3325424 147.7272644  -3.7818041
  82.7510376 147.2501984  -1.7606900  83.3988876 146.5823517  -1.1929041
  83.0449829 148.2687225  -1.5071135  81.7219772 147.1328888  -1.4210231
  82.4521484 146.7074432  -6.1320167  83.3163528 147.5381317  -6.2681384
  81.1922989 146.8584290  -6.6453953  80.5385971 146.1116333  -6.4581456
  80.6702652 148.2162628  -6.9055114  81.4647751 148.8107758  -7.3565292
  79.5805435 148.1033630  -7.9939790  78.6897964 147.6563110  -7.5526004
  79.2481918 149.1004791  -8.2827806  79.8998718 147.3032074  -9.2979212
  80.8412170 147.5505829  -9.7886200  79.9826431 146.2436676  -9.0558310
  78.8238220 147.5024872 -10.3751669  78.0857086 148.5189972 -10.3647861
  78.7145157 146.6368713 -11.3031559  80.1353531 148.9141846  -5.6095886
  79.4672089 148.2366333  -4.7985969  80.4615479 150.1679230  -5.3438115
  81.1872940 150.5843048  -5.9095201  79.9486542 150.9164886  -4.1478086
  78.9827042 150.4591064  -3.9337101  80.8333664 150.5338593  -2.9791913
  80.7652054 149.4804382  -2.7076004  82.3298569 150.8320312  -3.2653768
  82.4583664 151.8330688  -3.6771064  82.8706512 150.8024902  -2.3194547
  82.7712479 150.1721802  -4.0122857  80.4831772 151.2632599  -1.8224378
  81.0073166 151.0149384  -1.0574423  79.7807999 152.4484558  -4.3809333
  80.1708145 152.9309082  -5.4624152  79.1617050 153.1977844  -3.4801917
  78.8298645 152.7839203  -2.6207135  78.7631760 154.6489563  -3.7403808
  79.6205368 155.0673981  -4.2675753  77.4634247 154.6774597  -4.6879344
  77.6397247 154.0901337  -5.5890832  76.1781693 154.1815338  -3.9800823
  75.8064957 154.8688354  -3.2200980  75.3701324 154.1591949  -4.7112970
  76.3889236 153.2188263  -3.5143900  77.0331955 156.0084991  -5.1726079
  77.7839737 156.3518982  -5.8842998  76.0473175 155.9443817  -5.6330814
  76.7657242 156.6979828  -4.3718729  78.6857529 155.5220490  -2.5321426
  78.3095779 155.0529633  -1.4286171  79.1514435 156.7804871  -2.6898332
  79.6383896 156.9908600  -3.5493279  79.2467194 157.7397461  -1.5817529
  78.9653854 157.2861176  -0.6313996  80.6898651 158.1203003  -1.5621700
  81.0316544 158.4162750  -2.5539756  80.8459549 159.0254517  -0.9752766
  81.5830841 156.9358826  -1.0550252  81.2495728 156.5509796  -0.0913229
  81.5365067 156.0480957  -1.6857181  83.0322952 157.4756317  -0.8096933
  83.2676620 158.2910004  -1.4937086  83.0574951 158.0189362   0.1349114
  84.2185364 156.4768982  -0.8437421  83.8972855 155.6692505  -0.1860256
  84.3980179 156.1009216  -1.8509815  85.5092926 157.1202087  -0.5766398
  85.4662476 157.5752411   0.3240246  86.1197052 156.3353729  -0.3990505
  85.7948532 157.6801605  -1.3672167  78.2851562 158.9558411  -1.8875070
  78.3918381 159.6308746  -2.9069164  77.3627014 159.2384949  -0.9760402
  77.2945557 158.7083435  -0.1190742  76.2860184 160.2035522  -1.2131432
  76.6497803 160.7878265  -2.0583770  74.9190292 159.6618347  -1.6240156
  74.3434753 160.5408020  -1.9142473  74.9747314 158.8133698  -2.9011025
  75.1963501 157.7651367  -2.7006211  73.9802017 158.7283630  -3.3390377
  75.7258072 159.1891479  -3.5959198  74.0661011 158.8716736  -0.4982129
  73.7520370 159.5827179   0.2659063  73.1357040 158.5443878  -0.9622742
  74.6036072 157.9768372  -0.1844670  76.1382446 161.1109772  -0.0034734
  76.1385345 160.6606445   1.1201364  75.8513641 162.3897095  -0.3183064
  75.8606949 162.6523285  -1.2935210  75.3862915 163.3003540   0.7496179
  75.3428879 162.7754669   1.7039297  76.4008713 164.5135345   0.8304958
  76.5901184 164.8764801  -0.1797338  75.8176117 165.2500916   1.3831171
  77.6522522 164.1342621   1.5854967  77.4856339 164.2301025   2.6584151
  77.8456039 163.0838776   1.3677416  78.9264450 164.8904266   1.2657446
  79.7623520 164.4716034   1.8260597  79.2591476 164.6714325   0.2511228
  78.8680191 166.3736420   1.5254581  77.9683990 166.7731018   1.0572453
  78.7145309 166.4123383   2.6039031  80.0714569 167.0722961   1.0240414
  79.9789658 167.1607361   0.0221819  80.1305771 168.0114746   1.3908319
  80.9712067 166.6827698   1.2665749  73.9908218 163.7141266   0.4103936
  73.6599426 164.0656738  -0.7458900  73.1071548 163.8309631   1.4341975
  73.4560776 163.5134735   2.3272583  71.7206421 164.2536011   1.3576058
  71.5477371 164.7054596   0.3808605  70.8534012 162.9655609   1.3136235
  70.8413925 162.4358521   2.2661796  69.8305740 163.2667542   1.0873231
  71.2455826 162.2403717   0.6005907  71.2507401 165.2171173   2.3925905
  71.9865189 165.4823761   3.3205631  70.0356979 165.7890930   2.2236443
  69.7043762 165.6573334   1.2786747  69.5159988 166.8758392   3.0425944
  69.9206543 166.7939911   4.0513835  69.9688339 168.2584381   2.4542415
  71.0419083 168.2969818   2.2668121  69.3116226 168.6470795   1.1649089
  68.2535324 168.8995819   1.2340410  69.8375015 169.4620667   0.6675756
  69.3699036 167.8056946   0.4744100  69.6642075 169.3917084   3.5071313
  68.6378250 169.6967163   3.3031321  69.6761475 168.9654388   4.5102582
  70.5640640 170.6110840   3.4515874  70.5574265 171.0763092   2.4658747
  70.1327896 171.3615417   4.1140985  71.5309219 170.2378540   3.7892075
  68.0765991 166.7169952   3.0680149  67.3375244 166.4188690   2.1305616
  67.4623718 166.9384766   4.2278171  67.9885559 167.3181458   5.0018234
  66.0100555 166.7411194   4.3801107  65.6882629 165.8276367   3.8800173
  65.8862228 166.5900879   5.4524732  65.1529541 167.8659668   3.9073544
  65.2305679 169.0155029   4.4012647  64.3104935 167.6811676   2.8683035
  64.4182968 166.7816772   2.4217768  63.4331474 168.6652985   2.1745300
  63.8762016 169.6610260   2.1932104  63.3896370 168.2775421   0.7332616
  63.1706848 167.2100677   0.7077532  62.6815491 168.8482513   0.1324169
  64.7088089 168.3968506  -0.1051479  65.5871964 168.2462158   0.5224225
  64.6255035 167.6822510  -0.9240029  65.0029373 169.7331696  -0.7912836
  65.8802032 169.5375366  -1.4079134  64.1563110 169.9372711  -1.4467760
  65.2215958 170.8844299   0.1479260  64.3663101 171.2435303   0.5474483
  66.3497162 171.4535370   0.5846529  67.5244141 171.2378845   0.0270794
  67.5998764 170.6241913  -0.7715366  68.2729645 171.8918152   0.2063493
  66.2830811 172.4281464   1.4705518  65.4105301 172.6950684   1.9035800
  67.1538010 172.8800659   1.7107848  62.0907784 168.8064117   2.8542788
  61.6937675 169.9185028   3.2161884  61.4175644 167.6500702   3.0761890
  61.8662529 166.7617035   2.9041369  59.9045181 167.5405273   3.3544595
  59.6060410 168.5438843   3.6582327  59.1106300 167.1428070   2.1029086
  59.3095741 166.0800476   1.9647824  58.0449181 167.2147217   2.3201447
  59.3614044 167.9214020   0.7927913  59.0771103 168.9710999   0.8662677
  60.4271927 167.9613342   0.5678479  58.6513214 167.2476044  -0.3523024
  57.7438049 167.8064575  -0.9226015  58.9783707 166.0125275  -0.7007268
  58.5070038 165.7506409  -1.5547391  59.8563919 165.6179504  -0.3949625
  59.6573906 166.5759430   4.5034809  60.3302727 165.5537872   4.5765514
  58.5831108 166.8138733   5.2994676  58.0577202 167.6490021   5.0835304
  58.0141983 165.8042755   6.1905451  58.7654228 165.0792389   6.5037150
  57.4180756 166.4958649   7.4194536  56.7468185 167.3361664   7.2422233
  56.8149872 165.7471313   7.9330392  58.5093880 166.9571381   8.3718281
  59.0978851 166.0646210   8.5844221  59.1854248 167.6970215   7.9432907
  57.9657631 167.4667511   9.7081079  57.3773193 166.6740417  10.1700888
  58.7437439 167.6851044  10.4396610  57.1276093 168.7092896   9.5827150
  57.4852600 169.4874268   9.0473003  55.8833733 168.8656006  10.0381365
  55.2806854 167.9314117  10.7095966  55.7399559 167.0908508  11.0299368
  54.4854050 168.2549438  11.2415314  55.2904587 170.0373383   9.9555349
  55.8670425 170.8189087   9.6784325  54.4183807 170.3384552  10.3665152
  56.8951111 165.0382996   5.3564215  56.1417313 165.6722870   4.5530272
  56.4868164 163.8723297   5.8523059  56.9579086 163.3752747   6.5946813
  55.2867317 163.2095490   5.3830242  54.5158195 163.9449310   5.1527739
  55.6167297 162.4483032   4.0896878  54.6842270 162.0446930   3.6951826
  55.9872398 163.0805206   3.2827644  56.6814728 161.3226471   4.2071128
  56.4188194 160.1575317   4.9595213  55.4122734 159.9638062   5.2997203
  57.4123306 159.2271118   5.2765474  57.1871262 158.2984314   5.7797923
  58.6522064 159.3727875   4.7384100  59.3679504 158.5695190   4.8325887
  58.9219513 160.4105072   3.8234570  59.8897705 160.4565277   3.3463733
  57.9779968 161.4233093   3.6829793  58.2527199 162.3030090   3.1198969
  54.5626602 162.3450623   6.4705582  55.2160225 161.7884521   7.3433604
  53.2117195 162.0958405   6.2788815  52.7427063 162.6306610   5.5618734
  52.5050201 160.9117432   6.8196115  52.9584846 160.6876678   7.7851501
  51.0152931 161.2177887   6.8982315  50.8882599 162.2379150   7.2605991
  50.5457954 161.2390289   5.9147592  50.1748619 160.2650146   7.7759008
  50.3979111 159.2372589   7.4894028  50.5054855 160.5204163   8.7826586
  48.6595230 160.5059052   7.8093433  48.3128166 160.6820068   6.7910676
  48.2123184 159.6010742   8.2209501  48.0983276 161.6864777   8.6386366
  48.5907478 161.4971924   9.5924683  48.3748016 162.6569214   8.2264280
  46.6101875 161.6779480   8.8025618  46.2703896 160.7998962   9.1681471
  46.2813950 162.3795013   9.4504948  46.1591797 161.8511200   7.9155989
  52.6208458 159.6687012   5.9304795  52.5489655 159.8422699   4.6931171
  52.8772545 158.4464111   6.4588337  52.9369164 158.4324646   7.4669738
  52.8047371 157.1053009   5.8361106  53.2864189 157.2342377   4.8668551
  53.6691895 156.0959320   6.6370015  53.2909470 156.1024628   7.6592488
  53.5580750 154.7098846   6.0224738  53.9991913 154.7115173   5.0257215
  54.0720978 154.0780029   6.7467732  52.5006714 154.4526215   5.9607205
  55.1339836 156.5215607   6.6777687  55.2756310 157.5506592   7.0078998
  55.6837921 155.9547882   7.4291620  55.5881310 156.5536499   5.6874046
  51.3693161 156.6089935   5.6855059  50.6546440 156.3183899   6.6291838
  51.1037369 156.0986481   4.4684477  51.7877541 156.3260345   3.7609742
  49.9155579 155.4037628   4.0520830  49.1885796 155.5626526   4.8485508
  49.3908272 156.1092377   2.7958894  50.2925262 156.1176605   2.1835444
  48.6870193 155.3851166   2.3855042  48.7958527 157.5192108   2.8306134
  49.4868011 158.1154175   3.4266250  48.5995522 158.0216370   1.4443032
  47.8179283 157.4656067   0.9266062  48.3112106 159.0704041   1.3733804
  49.5159683 157.9763641   0.8558924  47.3813133 157.5227814   3.4815781
  47.6113243 157.3925629   4.5390511  46.8726807 158.4700928   3.3026803
  46.7725334 156.7769470   2.9704750  49.9760971 153.8590851   3.8906879
  49.1737442 153.1257172   4.4647450  51.0898056 153.4972076   3.2913473
  51.7932053 154.1914673   3.0831645  51.4209709 152.0669861   3.1257234
  51.2038002 151.4681854   4.0102391  50.5576553 151.5183258   1.9558911
  49.5334778 151.8631439   2.0982361  51.0189209 151.9953766   1.0911598
  50.4899712 150.0156097   1.6396698  51.4129105 149.5052948   1.9150854
  49.7333031 149.6049652   2.3081956  50.1607437 149.6199646   0.2054747
  49.4230881 150.3406982  -0.5085663  50.5295296 148.4930878  -0.2119173
  52.9519958 151.9499054   2.8807404  53.6520233 152.8470459   2.4536347
  53.4706688 150.7143250   3.2287805  52.8768158 149.9515533   3.5213997
  54.8565369 150.3256226   2.9171579  55.3444443 151.0514374   2.2665825
  55.8578148 150.2400055   4.0786424  55.5287285 149.3980865   4.6877151
  57.2717934 150.0027618   3.5233982  57.6871643 150.8457947   2.9712458
  57.9308891 149.9322510   4.3886862  57.3419991 149.0655060   2.9713805
  55.8877106 151.5328064   4.9382658  56.4422035 152.2636108   4.3495641
  54.8645668 151.8662109   5.1118364  56.5484276 151.3260193   6.2841420
  57.5766640 150.9649658   6.3058186  56.5831718 152.2575684   6.8490558
  55.9329033 150.6516724   6.8795366  54.7735023 149.0812225   2.0900564
  54.1973495 148.0961914   2.5892437  55.3362503 149.0588989   0.8854087
  55.7301559 149.8995361   0.4875821  55.5419922 147.8706665   0.0927150
  55.0355797 146.9982147   0.5055859  54.9603157 148.1568604  -1.3081199
  53.8950958 148.3542175  -1.1878705  55.4374161 149.0855713  -1.6211059
  55.1057129 147.0182037  -2.2960508  56.1639671 146.8413239  -2.4881685
  54.7043533 146.0695953  -1.9394863  54.2714157 147.2246552  -3.6068096
  53.2399902 147.1779022  -3.2574115  54.5232620 148.1717224  -4.0840383
  54.5320358 146.0109863  -4.5272145  54.8264160 145.1291351  -4.1325278
  54.4920311 146.0541077  -5.8538375  54.5395393 147.2231445  -6.4841580
  54.5461922 148.0786438  -5.9473367  54.7893715 147.2253876  -7.4627686
  54.5770607 144.9385986  -6.5347381  54.7690163 144.0422668  -6.1106806
  54.5050964 145.1228333  -7.5251813  57.0398941 147.5576172   0.0336694
  57.7582550 148.5256042   0.0063764  57.4179268 146.3278809  -0.1378551
  56.6743584 145.6621552  -0.2928594  58.8495407 146.0366821  -0.4430673
  59.3839188 146.9866943  -0.4380805  59.5385933 145.2243958   0.6057509
  59.2359009 144.1772919   0.5970517  61.0393448 145.2541046   0.5046795
  61.4103012 146.2122650   0.8685960  61.5305595 144.4547424   1.0594978
  61.2729607 145.1101227  -0.5502105  59.1709099 145.8113708   1.8509181
  58.2467422 145.6881409   2.0796676  58.9305115 145.3811493  -1.7813559
  58.0742760 144.5655518  -2.1964853  59.9805832 145.7408752  -2.5459268
  60.6281242 146.4242859  -2.1802273  60.3104744 145.1068878  -3.8668070
  59.4610443 144.5934601  -4.3173232  60.8093071 146.1486359  -4.9004278
  61.6055641 146.7042236  -4.4050393  61.2896767 145.5947571  -5.7070031
  59.6569710 146.9468536  -5.4698601  58.8867149 146.2942657  -5.8808575
  59.1127357 147.3363495  -4.6095119  59.9264297 148.2147980  -6.2595358
  60.2925224 149.2556458  -5.7750473  59.6699371 148.2040863  -7.5565481
  59.8933525 149.0178528  -8.1115122  59.2652359 147.4490204  -8.0915060
  61.2910042 143.9054565  -3.6451464  61.9774475 143.8289642  -2.6089981
  61.3509293 143.0190735  -4.6017594  60.8293457 143.2771759  -5.4272485
  61.9798698 141.7285767  -4.5649877  61.4578056 141.1560059  -3.7983627
  61.8138351 141.0325775  -5.8443375  62.2466812 141.5848541  -6.6784415
  62.3482704 140.0835876  -5.8004670  60.4222527 140.7887878  -6.1192017
  60.2334595 140.1076965  -6.7688766  63.4485664 141.8679199  -4.2624507
  64.0645142 141.0718689  -3.5945799  64.1289520 142.8592529  -4.8497748
  63.6563911 143.4767761  -5.4943318  65.5172577 143.1533508  -4.5069494
  66.1626968 142.2829590  -4.6249557  65.9456711 144.1459656  -5.6099920
  67.0281982 144.0933685  -5.7260227  65.6896591 143.7064667  -6.5740452
  65.4291611 145.5481262  -5.4673333  64.5992279 145.8135986  -4.6302571
  66.0146332 146.4669952  -6.1033154  65.7364502 143.6923981  -3.0327513
  66.8462753 143.8082428  -2.5137284  64.6608810 143.9029236  -2.2839937
  63.7533340 143.9252625  -2.7266614  64.6552811 144.0738525  -0.8012108
  63.7516289 143.5869598  -0.4345302  65.5055008 143.5415649  -0.3746899
  64.6910706 145.4885406  -0.2844039  64.9025803 145.7120819   0.8896013
  64.5085297 146.4959259  -1.1521398  64.5160370 146.2988892  -2.1427059
  64.2865982 147.9256134  -0.7405785  64.7708588 148.0425568   0.2289109
  64.9631805 148.9699402  -1.6940955  64.9638290 149.9508362  -1.2187740
  66.4564514 148.6362000  -1.8925802  66.5317230 147.7483215  -2.5203726
  66.8024139 149.5645599  -2.3470609  67.0369034 148.4292297  -0.9935011
  64.2721405 149.0369720  -3.1126409  64.9840927 149.0868530  -3.9364951
  63.8359337 148.0506592  -3.2708435  63.2792320 150.1373138  -3.2260747
  63.7861786 151.0722198  -2.9872234  62.7934914 150.1715240  -4.2012582
  62.4145470 149.9946899  -2.5779374  62.8029251 148.2181396  -0.5346783
  61.9990540 147.6033173  -1.2530158  62.4658318 149.1588287   0.3757347
  63.1921768 149.6044464   0.9179063  61.1497002 149.4813995   0.6977925
  60.5484734 148.6820984   0.2645046  60.9584961 149.5924988   2.2107344
  61.2956581 150.5848999   2.5100286  59.8738441 149.5636444   2.3146315
  61.4620972 148.4149780   3.0587115  61.2690392 147.4853973   2.5232909
  62.5450630 148.3732758   3.1751246  60.8078575 148.2469482   4.4815869
  61.2524872 148.8957062   5.4641843  59.8291550 147.3711548   4.5323052
  59.3576088 147.2648773   5.4191270  59.6096878 146.7570038   3.7611048
  60.6985703 150.6800842  -0.0818711  61.5529175 151.5640259  -0.4991135
  59.3945007 150.7750244  -0.3461007  58.8123283 149.9892883  -0.0935376
  58.7323608 151.8881531  -0.9663487  59.4270821 152.7090759  -1.1439908
  58.2645950 151.4245453  -2.2913051  57.7173538 150.4828186  -2.2490726
  57.5110016 152.1264343  -2.6484690  59.3699989 151.2024231  -3.3156276
  60.3015060 150.8061523  -2.9114559  59.0126190 150.4278412  -3.9941494
  59.7176971 152.4223938  -4.1629834  59.2186394 153.5163879  -3.9510367
  60.4394913 152.2699890  -5.2646413  60.6214371 153.1066742  -5.8003163
  60.7238846 151.3434143  -5.5486827  57.5387001 152.3108368  -0.0601284
  56.5063972 151.5897980   0.0543301  57.6445541 153.5180054   0.4947638
  58.4662552 154.0825195   0.3328029  56.5281067 154.0525208   1.2573924
  55.9447327 153.3126526   1.8054540  57.1536942 155.0258179   2.2476673
  57.5730820 155.9076996   1.7634143  56.4553185 155.2969055   3.0394263
  58.0390015 154.5807953   2.7018642  55.6065941 154.7880096   0.2489664
  56.0450058 155.6887512  -0.4987717  54.3140221 154.5525360   0.4149007
  54.0295563 153.8243103   1.0543240  53.2522087 155.4862671  -0.0421913
  53.5166664 155.9674988  -0.9837754  52.0030098 154.8037415  -0.4249099
  51.5514603 154.2951355   0.4268579  51.2434082 155.5626984  -0.6122817
  52.0848503 153.8022461  -1.6412736  53.0642395 153.7104645  -2.1108241
  51.9620094 152.8160400  -1.1936197  51.0368996 154.2338104  -2.7061241
  50.0677910 154.0932312  -2.2274048  51.1248970 155.3027954  -2.9001114
  50.9445152 153.5226440  -4.1046872  50.2503891 154.1064758  -4.7091885
  51.9102783 153.5858612  -4.6060853  50.4800873 152.1079865  -4.0751748
  49.6500626 151.9595795  -3.5191693  50.2797127 151.8621368  -5.0340848
  51.2154579 151.5599670  -3.6520925  53.0695801 156.6039429   1.0083559
  52.8736801 156.2542725   2.2144997  53.1967888 157.8634186   0.6341616
  53.3633308 158.0287933  -0.3481904  53.0562782 158.9759979   1.5736434
  52.6376343 158.5439606   2.4825904  54.4679680 159.4702454   1.9518319
  54.4297943 160.0608826   2.8671415  55.4033699 158.3080597   2.2867570
  55.7621269 157.8124084   1.3846933  56.3016472 158.7389526   2.7289598
  54.9207535 157.6298981   2.9905066  55.1759796 160.2589111   0.8498598
  54.6980667 161.2181854   0.6511055  56.1801033 160.4620056   1.2221446
  55.2394524 159.6259003  -0.0352144  52.1538162 160.1565704   1.1506310
  51.8320961 160.2826538  -0.0333363  51.7310295 161.0626373   2.1207936
  51.9416504 160.6695709   3.0270183  51.1589508 162.4198456   1.9415789
  51.1336555 162.5546875   0.8602470  49.7246704 162.5176086   2.5437841
  49.0728188 161.7888489   2.0620232  49.6397438 162.4410553   3.6277745
  49.0701561 163.9208221   2.3055327  49.4714432 164.6529999   3.0062487
  49.2634544 164.2315063   1.2787799  47.5694923 163.9618073   2.4520838
  46.7957191 163.0267487   2.1635387  47.0481415 165.0772247   2.9660985
  46.0452423 165.0964661   3.0841188  47.6208382 165.8405762   3.2968707
  52.1342316 163.5424347   2.4678226  52.4544830 163.5496368   3.6822679
  52.5624275 164.5169220   1.6147004  52.2029877 164.4397583   0.6739836
  53.6125145 165.4967346   1.9485947  54.3445854 165.0414429   2.6155899
  54.3005447 166.0327759   0.6497391  53.6074524 165.9454346  -0.1869814
  54.7468605 167.5243988   0.7863677  55.6080780 167.5729218   1.4527376
  54.9548874 167.9462585  -0.1969263  53.9412994 168.1799622   1.1171530
  55.4991379 165.1838074   0.2712346  55.8861427 165.4675446  -0.7074474
  56.3066940 165.4119568   0.9668656  55.3621597 163.6703033   0.1726260
  54.6762161 163.3530731  -0.6128274  56.2804718 163.1117554  -0.0085582
  54.9516029 163.2714386   1.1002291  52.9783859 166.6234741   2.7926066
  51.9588547 167.2345886   2.4204514  53.5345383 166.8967133   3.9476070
  54.4273567 166.4714050   4.1527576  52.9616547 167.8094635   4.9227581
  51.8831596 167.8444366   4.7687254  53.2343903 167.1681976   6.2688317
  54.3081894 166.9809723   6.2668309  53.0263748 167.8685760   7.0777292
  52.5188141 165.8101044   6.5485520  52.7004204 165.1125031   5.7309456
  53.0134315 165.1849365   7.8819437  52.9387856 165.9091492   8.6931524
  52.4019241 164.3310852   8.1736164  54.0183258 164.7676544   7.8174901
  50.9933624 166.1156464   6.5383821  50.5783882 166.0761414   5.5312366
  50.4626884 165.4427795   7.2119789  50.8380775 167.0938263   6.9935102
  53.4589653 169.2396088   4.9430251  54.6521339 169.4412842   4.7349167
  52.5431061 170.2394257   5.1249080  51.0872765 170.2059174   5.0687304
  50.8250847 169.5905914   5.9293857  50.6820488 169.6837616   4.2019839
  50.5133972 171.6380768   5.1321788  50.1851349 171.8464966   6.1504645
  49.6992950 171.7177277   4.4117613  51.7391968 172.4512329   4.8019371
  51.6604271 173.4629211   5.1999316  51.8348198 172.5158997   3.7180634
  52.9614487 171.6121826   5.2119069  53.7691307 171.8565369   4.5219450
  53.3279953 171.9377594   6.6413312  52.7535400 171.5049896   7.6308832
  54.1481934 172.9127045   6.7698674  54.5197411 173.1693115   5.8664265
  54.3250351 173.8789520   7.8811946  54.4543076 173.3669281   8.8347178
  55.5952759 174.6949921   7.6352201  55.7383232 175.0077972   6.6009159
  55.5651283 175.5359039   8.3280859  56.7792969 173.7734528   7.8855085
  56.6634941 172.7772675   7.4585366  57.6328735 174.3126221   7.4746447
  57.0845795 173.6641235   9.4067907  57.5456848 174.7037354   9.9700985
  56.9226761 172.5205994   9.9381170  53.0647278 174.8227844   7.9485135
  52.6291504 175.4692535   6.9599466  52.3542938 174.7560730   9.0528831
  52.4963722 174.0625153   9.7732162  51.0839119 175.5877991   9.2086983
  50.5746078 175.6703186   8.2485399  50.0789299 174.9280090  10.1705732
  50.5183601 174.8022461  11.1601124  49.2230492 175.5905457  10.2994919
  49.4272652 173.6389923   9.6796484  49.0249405 173.6912689   8.6679659
  50.2663841 172.9625244   9.5172567  48.5167847 172.9651489  10.7118921
  48.3385239 171.9812775  10.2779331  48.9972534 172.8631897  11.6849566
  47.2251816 173.6608429  10.7117023  47.0266380 174.0494232   9.8008299
  46.2838402 173.7689972  11.6590033  46.4403038 173.2214966  12.8252478
  47.1466675 172.5164490  12.9803619  45.6391106 173.1778107  13.4386663
  45.2210732 174.4916687  11.4902468  45.2383080 174.9773102  10.6048365
  44.3770065 174.4636993  12.0442009  51.3845062 177.0455780   9.6455908
  51.1802673 177.4543915  10.7704268  51.8205833 177.8690643   8.6842356
  51.9807014 177.5150452   7.7519636  52.4875984 179.0945892   9.0527868
  53.1477737 179.0480194   9.9188700  53.4464111 179.5089417   7.8799047
  52.8316956 179.8806915   7.0601339  54.1806641 180.7965240   8.3090067
  54.9281998 180.6008301   9.0777664  54.5517006 181.2891998   7.4102831
  53.4634972 181.4457397   8.8112879  54.4785538 178.4247437   7.2852516
  53.8934326 177.8041229   6.6065946  55.2827873 178.9772339   6.7993860
  54.9244881 177.8540802   8.0998611  51.4691391 180.2504120   9.3446579
  50.7598648 180.7641602   8.4750509  51.3232994 180.6026764  10.6567497
  51.8473549 180.1296082  11.3790226  50.4089088 181.6120758  11.1933260
  49.4857445 181.4884949  10.6271105  50.0773239 181.2246399  12.6143055
  50.9430313 181.1737366  13.2746515  49.3793945 181.9720001  12.9917545
  49.3815460 179.8677063  12.9040346  50.0403214 179.0741730  12.5512724
  49.1463356 179.6951904  14.4602499  48.5707855 180.5562134  14.8000736
  48.5041618 178.8209381  14.5670462  50.0941391 179.5757141  14.9851274
  48.0219307 179.8142548  12.1579733  48.1635551 179.7807312  11.0777321
  47.7155838 178.7778320  12.2996864  47.4008141 180.6383667  12.5088949
  50.8172264 183.0848694  10.9503069  51.9440002 183.4841003  11.2441139
  49.8697205 183.9765472  10.5938606  48.4588890 183.6648712  10.2460957
  47.8858147 183.0440979  10.9348059  48.4765472 183.1923218   9.2640152
  47.7465897 185.0060577  10.1681919  47.3021622 185.2609406  11.1302834
  46.9586334 185.0069275   9.4150400  48.9153061 185.9315033   9.8582067
  48.6138344 186.9439087  10.1269865  49.0968819 185.8662567   8.7854185
  50.1227646 185.4185791  10.5702991  50.9627914 185.6448669   9.9136009
  50.2292709 185.9329834  12.0126867  49.9085655 185.2470703  12.9816847
  50.5026283 187.2336884  12.1338682  50.6023331 187.7294159  11.2595596
  50.5811386 187.9441833  13.4677925  51.3529053 187.4763641  14.0790424
  50.9545822 189.4266510  13.2575016  51.8621368 189.6291656  12.6887903
  50.1952362 189.9946136  12.7200069  51.0407867 190.0644836  14.4815388
  51.2745438 190.9864502  14.3513803  49.2403030 187.8547668  14.1683197
  48.1441498 188.0283356  13.6316957  49.3192482 187.5389404  15.4604445
  50.2326241 187.5014496  15.8899097  48.2420578 187.2957611  16.3664684
  47.7375984 186.3873901  16.0370865  48.7449455 187.0661621  17.7929535
  47.9925232 187.2950134  18.5476665  49.2204437 185.6004486  18.0450974
  50.0038643 185.3438873  17.3319798  49.6804848 185.5625000  19.0325279
  48.4297447 184.8689423  17.8783627  49.8391457 187.9698029  18.0952587
  50.2966766 187.6318665  18.8686085  47.2801971 188.4698181  16.4546165
  46.0859413 188.2537689  16.5711498  47.8607292 189.6631012  16.3373966
  48.8661499 189.6809692  16.2430210  47.1979103 190.9107513  16.4359665
  46.3101883 190.8075867  17.0599899  48.1463356 191.9926758  17.0896149
  48.9960175 192.2662964  16.4640903  47.6063576 192.9380646  17.1424828
  48.6282539 191.7695770  18.4883575  49.0395584 190.7601471  18.4888420
  49.4944878 192.3902435  18.7175140  47.4695816 191.9478912  19.8942642
  46.5548859 190.3498383  20.0043659  47.2862968 189.5740204  19.7780018
  46.1170044 190.3306427  21.0023594  45.7760773 190.2168884  19.2534409
  46.7047462 191.4096832  15.0771427  45.8758316 192.2870026  15.0531511
  47.1400871 190.8647919  13.8530922  47.8490181 190.1454010  13.8515224
  46.6740646 191.3929901  12.5372601  46.6434441 192.4806976  12.6009054
  47.6968231 191.0906067  11.3812952  47.4894905 191.6841888  10.4909105
  48.6419563 191.5686646  11.6387663  47.8105621 189.7324982  10.9733801
  48.2068672 189.6417694  10.1037188  45.2352028 190.9577942  12.2695255
  44.5723457 191.5190735  11.3874512  44.7180710 190.0771332  13.0621653
  45.3294563 189.4797668  13.6001844  43.2887611 189.6746674  13.2760067
  42.8828468 189.6870270  12.2644825  43.0965157 188.2704620  13.8046627
  43.8304138 188.1749725  14.6048994  42.1013680 188.0537415  14.1930084
  43.3338394 187.5072174  13.0635633  42.5088120 190.7266693  14.1295252
  41.3648186 190.4416199  14.5145988  43.1320992 191.8646851  14.5003014
  44.1120033 192.0437927  14.3335333  42.4185905 192.8509064  15.3765459
  41.4426003 192.9275208  14.8972979  42.3150177 192.2952576  16.7950516
  42.2700539 191.2162018  16.6477757  43.5997086 192.4903412  17.6860447
  43.6496391 193.5355988  17.9910717  43.4682045 192.0014343  18.6513290
  44.5672836 192.2270050  17.2587795  41.0144310 192.6581879  17.4829140
  40.1401978 192.1524963  17.0729313  41.0029106 192.3009796  18.5126553
  40.8025398 193.7257690  17.4240971  42.9739113 194.2659149  15.3919325
  42.2208443 195.1800537  15.6803617  44.2442894 194.4937286  14.9478178
  44.8181496 193.6951141  14.7175856  44.8150139 195.8388214  14.7844286
  44.4230537 196.5757141  15.4854755  46.3379898 195.7807007  15.0480146
  46.6464462 196.8228760  15.1307316  46.5890350 195.3938446  16.0356464
  47.2383461 195.1003723  14.0140114  47.4470901 194.1240845  14.4514799
  46.7744789 194.9596710  13.0377283  48.6304855 195.7159576  13.8709164
  49.2521629 196.1918030  14.8029137  49.2458534 195.4302521  12.7098856
  50.0694313 195.8981476  12.3593292  48.6612930 194.9396820  12.0482769
  44.4390335 196.4179230  13.4643707  45.2735138 196.9992676  12.7102709
  43.1819572 196.2339935  13.0610828  42.5846863 195.7024231  13.6781750
  42.4619942 196.9164276  11.9804687  43.1537018 197.0773468  11.1535759
  41.3054314 196.0112762  11.4679480  40.5302391 195.9174347  12.2284546
  40.7376022 196.5740662  10.7270422  41.7715149 194.6627960  10.8108940
  42.6922455 194.8735199  10.2668772  42.0508881 193.5629272  11.8435907
  41.3629723 193.4517670  12.6817493  42.1371574 192.6254120  11.2943020
  43.0325203 193.7672119  12.2711010  40.6753426 194.0931091   9.9431973
  40.4117699 194.8583221   9.2130699  40.9176102 193.2060089   9.3580027
  39.7921448 193.9415436  10.5637503  42.1646042 198.4069672  12.3787174
  40.9872513 198.7850494  12.4912300  43.2063179 199.1756134  12.7608776
  44.0958138 198.8309479  12.4290638  43.0234222 200.5636444  13.2717743
  42.1871262 200.9375000  12.6810637  42.6536636 200.5540314  14.7819405
  42.2808380 201.5329132  15.0834217  41.7756767 199.9091187  14.8185692
  43.7255402 199.9847107  15.7094116  44.3017654 199.1826477  15.2481375
  44.4719582 200.7407227  15.9531078  43.2061081 199.4036865  17.0855732
  43.7392273 198.4684448  17.6051731  42.1638336 199.9021149  17.6277065
  41.7659874 199.3531799  18.3763657  41.6728287 200.6362915  17.1378117
  44.2496490 201.3530731  12.8969183  45.2724342 200.7998505  12.4888868
  44.2469482 202.6858215  13.0048494  43.4374466 203.0746613  13.4670420
  45.3313713 203.6286011  12.6210318  45.4084015 203.6424255  11.5338449
  44.9494591 205.0047607  13.1060190  45.7814674 205.6708221  12.8774681
  44.0881729 205.3578033  12.5388794  44.8039246 204.9752197  14.5549507
  44.2052155 205.7069092  14.7216234  46.7616386 203.2222290  13.1031008
  47.7515411 203.7088318  12.5276165  46.8454285 202.5654449  14.2571621
  45.9754715 202.3278351  14.7119274  48.0384712 202.1762848  15.0277090
  48.7021866 203.0380859  15.0974646  47.6552773 201.7803802  16.4447250
  46.8199081 201.0932922  16.3099442  48.4597626 201.1532440  16.8289108
  47.4003334 202.8910828  17.4301224  48.1374168 203.6878357  17.3301449
  46.0459709 203.5065918  17.2169724  45.2313423 202.7832642  17.2524109
  45.8156471 204.2687378  17.9614086  46.1185913 203.9724426  16.2342129
  47.3813019 202.3003845  18.8711376  48.3281097 201.7778778  19.0076771
  47.2281380 203.0905914  19.6061306  46.5316010 201.6318970  19.0098209
  48.8733215 201.0587769  14.3410435  49.9282188 200.6866455  14.8240328
  48.3590813 200.4533234  13.2956400  47.4394035 200.7546692  13.0066967
  49.0332985 199.3219757  12.6153173  49.0471382 198.5558624  13.3905525
  48.1175880 198.7707367  11.5169544  48.6056099 197.8664246  11.1534262
  47.1794128 198.5092468  12.0063915  47.8679008 199.7865295  10.4753952
  46.9860001 199.6434631  10.1241388  50.4648438 199.5710297  12.0797482
  51.3847771 198.7680817  12.2063856  50.6508369 200.7776337  11.5120258
  49.8196411 201.3421631  11.4094810  51.9759178 201.3508301  11.0077419
  52.4468956 200.5901337  10.3851414  51.6841698 202.6113586  10.1668186
  52.4828110 202.7790375   9.4442120  50.8219719 202.3927612   9.5367899
  51.4099236 203.8314362  11.0008211  50.6283417 203.5710602  11.7145672
  52.2671661 204.0950317  11.6203003  51.0104256 205.0624237  10.2101526
  51.7488632 205.8417053  10.0216455  50.7048073 204.7055206   9.2266235
  49.7912292 205.5493164  10.8668079  49.0815010 204.9074707  11.1899643
  49.4177933 206.7840424  10.8423939  50.1806488 207.7686310  10.6518755
  51.1176758 207.6731567  10.2872286  49.8947487 208.7315979  10.7571316
  48.2157707 207.0071869  11.1716194  47.5703697 206.2441864  11.3178082
  47.9527855 207.9720306  11.3130808  53.0684891 201.6268463  12.0219536
  54.0588684 202.3292999  11.7025948  52.8392410 201.2194061  13.2565832
  52.0225410 200.6623230  13.4633713  53.8920860 201.3371887  14.2798700
  54.3447189 202.3261108  14.2074184  53.2022095 201.3741150  15.6082096
  52.5686264 200.4874420  15.5862570  53.8511353 201.2544098  16.4757729
  52.3373566 202.6629028  15.8128605  52.9141235 203.5793152  15.6878033
  51.6141357 202.7065887  14.9985247  51.6678772 202.7201538  17.1768570
  50.8496208 203.4389496  17.1331043  51.1898270 201.7822418  17.4595070
  52.5330429 203.1391754  18.2605515  53.3724861 203.5846863  17.9185562
  52.2601357 203.1391296  19.5389481  51.1789017 202.6604767  20.0585556
  50.4368935 202.2289429  19.5262985  51.0098228 202.6574860  21.0543003
  53.1654243 203.6300964  20.3572636  54.0865784 203.7932434  19.9765320
  52.9122543 203.6970367  21.3327236  55.0199013 200.2498779  14.0894480
  55.1679611 199.2865906  14.8193655  55.8115234 200.3892670  12.9999475
  55.6513786 201.1955872  12.4131622  56.6717606 199.3241272  12.4108353
  56.1208153 198.4082031  12.6245174  56.6458130 199.4897766  10.8442917
  55.6384964 199.7303314  10.5043755  57.3866386 200.1959229  10.4692965
  56.9136314 198.1984100  10.0607824  58.1014519 197.8150330   9.4334269
  57.8429108 196.6456604   8.7767076  58.4438705 196.0498962   8.1056604
  56.5475235 196.2570648   9.0128708  56.1378517 195.4384766   8.5860577
  55.9452095 197.2669373   9.7307577  54.8798714 197.3302460   9.8964252
  58.0062103 199.1103058  13.0795240  58.5035286 199.9334106  13.9034452
  58.6823616 198.0460815  12.7066460  58.2686653 197.5541382  11.9275751
  59.9544830 197.5457306  13.2451563  59.8481178 197.5537109  14.3299246
  60.0779953 196.0464020  12.8973951  60.9726486 195.6697388  13.3931932
  58.8595238 195.2654419  13.3333139  58.0011749 195.4638214  12.6914511
  59.1764717 194.2246094  13.3988771  58.6636200 195.5399780  14.3698254
  60.3794861 195.8380432  11.3954182  59.6095924 196.4073944  10.8746500
  61.3291779 196.3197937  11.1628361  60.4915047 194.4083862  10.9425316
  59.5653610 193.8436584  11.0495157  60.6700363 194.4126740   9.8672609
  61.2690392 193.8436890  11.4569883  61.2721748 198.3209534  12.9513588
  61.3012810 199.0572815  11.9648199  62.4497795 198.2447205  13.6381941
  63.1023827 198.8448944  13.1544561  63.0983467 197.1504059  14.4557943
  64.0629578 197.6215057  14.6446714  62.4628296 197.0278625  15.8830204
  61.5688972 196.4053802  15.8442554  63.2082863 196.5354767  16.5074806
  61.9734612 198.3301239  16.5494442  62.8459702 199.4114838  16.7191391
  63.9180679 199.4149780  16.5887775  62.4244270 200.6520996  17.2193413
  63.1008224 201.4842987  17.3471355  61.0821037 200.8266754  17.4850025
  60.7679024 201.7830658  17.8761940  60.1606102 199.7487488  17.3917942
  59.1200867 199.7994537  17.6766396  60.6309319 198.4739075  16.9545059
  59.9058266 197.6901245  16.7923660  63.5085526 195.8189697  13.7150364
  63.7470474 195.8566132  12.5224123  63.5502739 194.5959930  14.3283625
  62.5249519 194.0850830  15.2256908  61.5189629 194.3195801  14.8777056
  62.6231766 194.3417969  16.2804680  62.5356827 192.5302582  15.1466455
  61.9668503 192.1484985  14.2988329  62.1705894 192.0104828  16.0324402
  64.0598145 192.3363190  14.8358994  64.1906815 191.4547272  14.2083797
  64.6043320 192.2174530  15.7726326  64.6412125 193.6731567  14.2487783
  65.3652115 194.1267242  14.9256954  65.3178024 193.5026550  12.8483076
  64.6788330 193.0869446  11.8826838  66.6597366 193.4496765  12.7381325
  66.8789673 193.2856445  11.7659540  67.7208710 193.9653625  13.6785784
  68.6495361 194.0148163  13.1100349  67.9692612 192.9977722  14.9006910
  68.7295532 193.4399109  15.5445557  67.0388947 192.9283600  15.4643440
  68.4221420 191.7373657  14.4648552  68.5499420 191.2066040  15.2545166
  67.5620575 195.4411926  14.1892986  66.6923599 196.1265411  13.6254292
  68.3563919 196.0155945  15.1230593  69.0719070 195.4866333  15.6009092
  67.9577408 197.2646484  15.7765074  67.4567719 197.8793182  15.0286312
  66.7939987 197.0297699  16.8063965  66.1184540 196.3253021  16.3211422
  67.3487244 196.4681396  17.5580311  66.0658875 198.1463623  17.3034058
  65.8898697 198.7609100  16.5872135  69.0550079 198.2915344  16.2622223
  68.9498749 198.8506775  17.3309650  70.1729507 198.5448456  15.5870829
  70.7192993 199.2487793  16.0625515  70.8045654 197.8926086  14.4141169
  71.7251892 198.4438629  14.2226238  69.7644958 198.2090607  13.2582045
  68.8056488 197.6966705  13.3368444  69.4493942 199.2513123  13.2081165
  70.2603531 197.7658386  11.7940502  70.2027359 196.6779480  11.8296804
  69.6387482 198.2397003  11.0343390  71.7901611 198.0924530  11.5447540
  72.4625015 197.6401062  12.2737551  72.1256638 197.6578064  10.6031437
  72.0858917 199.5936890  11.4392500  71.2568207 200.0485992  11.9812756
  73.0119095 199.8852539  11.9348173  72.0923386 199.9673462   9.9712086
  71.1737061 200.1831818   9.6111488  72.7295761 200.7353821   9.8157921
  72.4710617 199.2807312   9.3346281  71.4120865 196.4582367  14.6959267
  71.4643173 195.6358032  13.7712631  72.0031815 196.1793365  15.9066992
  71.7078934 196.6198578  17.2346783  70.6414948 196.7524872  17.4171391
  72.2793655 197.5401917  17.3551006  72.0884247 195.5254669  18.1871319
  71.2195663 194.9789429  18.5538692  72.7766037 195.9704285  18.9058208
  72.9576340 194.6038513  17.3783493  73.9065704 194.4157562  17.8805828
  72.3700943 193.6945496  17.2515697  73.1547089 195.3097229  16.0215378
  73.1940308 194.5233307  15.2677994  74.4916534 196.0581970  16.0657921
  75.5214233 195.3960114  16.1212196  74.4831161 197.3900909  16.2551498
  73.5858688 197.8403931  16.1443710  75.7146301 198.2029572  16.2401829
  76.2541428 198.0161743  15.3116646  75.2918701 199.6790466  16.2318630
  74.3409424 199.7962341  15.7121449  75.1396179 199.9003754  17.2882385
  76.3673248 200.6257629  15.6738939  77.3721695 200.2842255  15.9223766
  76.3013687 200.6475983  14.5861101  76.2448730 202.0652008  16.0492020
  76.1413345 202.1787262  17.1283188  77.1412354 202.5831146  15.7080135
  75.0343323 202.8093567  15.5407171  74.9225845 202.5654755  14.4842424
  74.1666565 202.4010010  16.0588779  75.2470856 204.2711639  15.8383608
  76.1861877 204.5419159  15.5836430  74.5615158 204.8186035  15.3379583
  75.1399460 204.5630188  16.7993183  76.6502304 197.8265686  17.3854942
  77.8583908 197.7911530  17.2600136  76.0715942 197.4696808  18.5508080
  75.0645294 197.4124603  18.4993210  76.7715454 197.1165466  19.7757778
  77.6936111 197.6954041  19.7226295  76.0840454 197.6855927  21.0197372
  76.9108124 197.6853333  21.7300587  75.6877365 199.1769714  20.8008995
  74.6500778 199.3726196  20.5305824  75.7107162 199.5491028  21.8251514
  76.3939514 199.6753540  20.1368389  74.8691254 196.9276886  21.5917530
  75.1650620 195.9329529  21.9249401  74.3954086 197.5611725  22.3416805
  74.1215820 196.8637695  20.8010654  77.3092194 195.6584778  19.9113426
  77.9783325 195.3610535  20.9224873  77.1180191 194.7747040  18.9084873
  76.7827530 195.1178284  18.0196915  77.4482498 193.3762817  19.1145687
  77.2536621 192.7711487  18.2291050  78.9739227 193.0954132  19.3332138
  79.3002701 192.9582214  20.3641243  79.1664047 192.1780853  18.7768307
  80.0189896 193.9914703  18.7119923  80.6634293 194.9546509  19.4257603
  80.4937897 195.0910034  20.4836025  81.4439850 195.7080994  18.5794926
  81.9648590 196.5317383  18.8448849  81.5480804 195.0925140  17.3473778
  82.2170563 195.4573822  16.1109009  82.8752594 196.3133545  16.0892296
  81.9995575 194.6876221  14.9386044  82.6328430 194.8600769  14.0809317
  81.1680374 193.5782013  15.0329771  81.1921844 192.8455963  14.2398167
  80.4605255 193.2472839  16.1899433  79.8519440 192.3631592  16.3097477
  80.5209351 194.0392456  17.3342762  76.5410461 192.7660828  20.2597733
  75.4072876 193.1980286  20.3249989  77.0757065 191.8516693  21.0864944
  78.0234985 191.6496582  20.8019199  76.6288223 191.2409973  22.3021069
  77.5758667 190.8762360  22.6997890  75.7358093 189.9591370  22.0492325
  75.3071671 189.6911774  23.0149269  74.9434586 190.2848663  21.3753071
  76.6536636 188.8614655  21.5265579  76.0532761 188.0829468  21.0558834
  77.2085876 189.1583557  20.6365986  77.5990829 188.1845093  22.5569611
  77.5610199 188.4134827  23.7123795  78.5397186 187.4045410  21.9933376
  79.2560654 186.9857330  22.5691452  78.5634537 187.3192902  20.9872227
  76.0580978 192.1638641  23.3566475  75.7158051 193.3179321  23.1446629
  76.0012512 191.5967712  24.5629520  76.3669281 190.6568909  24.6179962
  75.7612991 192.1393433  25.9115448  75.1045303 191.4066925  26.3805771
  77.0880737 192.0122681  26.7141037  77.1290283 192.6369629  27.6063862
  77.1979752 190.9420776  26.8893452  78.3509293 192.5665283  26.0121784
  78.3902283 193.7552490  25.6892128  79.3174896 191.7701721  25.8873291
  75.0968933 193.5407104  26.1837978  75.2637253 194.5382233  25.4979954
  74.3698196 193.6042328  27.3024063  74.4539566 192.7408447  27.8196907
  73.6848755 194.7401276  27.9019508  72.8923416 194.3613892  28.5473576
  74.5433273 195.4977722  29.0068226  74.0007401 196.3706512  29.3698330
  74.7469940 194.8293610  29.8433933  75.9348907 195.9911194  28.6195374
  76.4647980 196.0534058  29.5700226  76.4046021 195.2751770  27.9450836
  76.0042648 197.4086304  27.8944321  75.1673889 198.0485535  28.1741390
  76.8383942 198.0037842  28.2660675  76.3036270 197.3071747  26.4303551
  75.6207352 197.5802307  25.7381134  77.4507828 197.0441895  25.8726082
  78.5934372 196.7681427  26.5310860  78.5102692 196.6056824  27.5244598
  79.3669586 196.3314209  26.0504208  77.4156647 197.0301056  24.5565624
  78.2394257 196.7272949  24.0567436  76.6002197 197.2445526  24.0005417
  72.8263168 195.5349579  26.9975967  72.2521591 194.8714905  26.0568142
  72.6249695 196.7978821  27.1471195  72.9683762 197.0912323  28.0505085
  71.8162384 197.7622375  26.4120197  71.8367538 198.7014771  26.9647446
  72.4914474 197.9539032  25.0737038  72.8509369 197.0194855  24.6427460
  71.8294678 198.4020996  24.3327560  73.3611221 198.6011200  25.1871967
  70.3166275 197.4302521  26.1734676  69.3898544 198.1075439  26.6227951
  70.0241699 196.4438324  25.3317127  70.8059235 196.0101318  24.8617439
  68.6734848 196.0813904  24.8409138  68.1985245 197.0441284  24.6521378
  68.7714462 195.4209595  23.4624615  67.7502594 195.1491699  23.1952515
  69.0932465 196.1894684  22.7596474  69.6707764 194.2015839  23.3850040
  69.1589890 192.9429474  23.8158894  68.2765656 192.8045807  24.4229946
  69.8558273 191.7862549  23.5324078  69.5188751 190.8267822  23.8960896
  71.0237274 191.9026184  22.7327957  71.5743103 191.0287323  22.4172306
  71.5254822 193.1732330  22.2876492  72.3777695 193.2149963  21.6256371
  70.7926407 194.3116455  22.5858574  71.0456696 195.3097229  22.2599773
  67.7165451 195.4311676  25.8132591  66.7004089 194.8385620  25.4122677
  67.9487381 195.5964355  27.0889187  68.8133392 196.0474243  27.3519135
  67.0977402 195.0992584  28.1628380  66.8082504 194.0595093  28.0104561
  67.8659515 195.2336426  29.4798737  68.2146454 196.2584076  29.6078358
  67.2686844 194.8799896  30.3202934  69.2061920 194.3332062  29.5950775
  68.8704071 193.4215698  30.0893040  69.5755234 194.1226959  28.5913906
  70.2466431 195.1736908  30.4375668  71.1653824 194.5887451  30.4809494
  70.4814072 196.1405182  29.9923573  69.7583160 195.4143524  31.7833958
  69.5874557 194.5155487  32.2112808  69.7457962 196.5391998  32.4147377
  70.0121384 197.6766815  31.8657112  70.2090149 197.7413483  30.8771973
  69.8834076 198.5463104  32.3629570  69.3398285 196.6143494  33.6793022
  68.9363327 195.8262787  34.1653595  69.2684784 197.4618530  34.2240295
  65.7352371 195.8104095  28.1451530  64.7384262 195.1522064  27.9273872
  65.7481384 197.1573792  28.4014072  66.6761703 197.5436401  28.4997368
  64.4957047 197.9027405  28.3783951  63.8379898 197.5590820  29.1767712
  64.9542465 199.3723755  28.7035408  65.8317337 199.6981964  28.1450138
  64.0802994 199.9654846  28.4342289  65.3558044 199.5474854  30.2311459
  64.5557861 199.1168365  30.8333168  66.1640778 198.8629456  30.4884624
  65.6806412 200.9471588  30.7637882  65.8187866 201.8665619  29.9831333
  65.9704514 201.0755310  32.0497360  66.2650223 201.9780579  32.3943977
  65.9367065 200.2470856  32.6264839  63.6667786 197.8197632  27.0640678
  62.4380188 197.9406128  27.0519276  64.2933502 197.5895844  25.8868332
  65.3030243 197.6133270  25.8972054  63.6330795 197.4975281  24.5912209
  62.8779297 198.2835236  24.5833626  64.5693207 197.7152557  23.4453201
  64.9366455 198.7368317  23.5429420  65.3917618 197.0065613  23.5425301
  63.9141121 197.5020752  22.0599785  63.3346100 198.4548340  21.2456436
  63.1137619 199.4628143  21.5643940  62.7956886 197.8599091  20.1266804
  62.3797340 198.4020233  19.3829174  63.0662041 196.5164490  20.0787640
  62.7196770 195.4907532  19.1594868  62.0083084 195.7132874  18.3779259
  63.2654457 194.2098694  19.3316975  63.0686569 193.4980469  18.5436726
  64.0828171 193.9602356  20.4576054  64.5540237 192.9998627  20.6061115
  64.4352188 194.9392090  21.3919678  64.9426804 194.7114716  22.3177204
  63.8943558 196.2756805  21.2727375  62.8743210 196.1944275  24.4367428
  61.8604774 196.1973572  23.8056221  63.2607841 195.1106262  25.1465282
  64.1915970 195.1170502  25.5385056  62.4409752 193.8698883  25.0332146
  62.2305260 193.8239288  23.9647121  63.2534409 192.5792084  25.4039078
  63.9557762 192.9085846  26.1696339  62.5389328 191.8471069  25.7802219
  63.8440895 192.0045471  24.2063103  65.1664963 191.9262695  23.9218006
  65.9344788 192.3880615  24.5245743  65.3786774 191.1699829  22.7873592
  66.2850266 190.9867554  22.3810863  64.1987991 190.7641296  22.2393284
  63.8112793 189.9196625  21.1623249  64.5437241 189.7009430  20.3993835
  62.4393311 189.5042877  21.0509510  62.1129112 188.7927704  20.3069153
  61.5178871 189.9838104  21.8914013  60.4949303 189.6730499  21.7384987
  61.8443489 190.7669067  23.0168324  61.1055145 190.9253082  23.7884731
  63.1873856 191.2217407  23.1438408  61.1139336 193.9694519  25.7621231
  60.1165047 193.4012146  25.2114620  61.0182114 194.8506165  26.7868309
  61.8960838 195.1860504  27.1568680  59.7361221 195.2802124  27.3619518
  59.1592102 194.3709106  27.5306454  59.9103775 195.9383392  28.7561588
  60.4830666 196.8579254  28.6357937  58.9317703 196.1608582  29.1814938
  60.6548920 194.9918671  29.7593746  60.1524315 194.0484924  29.9730988
  61.7022705 194.8196259  29.5115242  60.6465721 195.6462708  31.1642780
  60.8049774 196.8772430  31.3004971  60.7207336 194.8612823  32.2077637
  61.0453682 195.2546387  33.0795326  60.7251129 193.8515320  32.1859131
  58.9211273 196.1886292  26.4107056  57.7128067 195.9152679  26.2093315
  59.5639839 197.1496735  25.8574600  60.5199394 197.2063751  26.1784592
  59.0294228 198.2495422  25.0508785  58.3400917 198.8635559  25.6304569
  60.1153526 199.1850739  24.7048550  60.7225456 199.3869629  25.5872707
  60.7420387 198.7227325  23.9422207  59.7036018 200.5560455  24.0925045
  59.1115417 200.3828278  23.1938629  59.1140404 201.1253967  24.8110905
  60.9470139 201.3658752  23.6522636  61.6818314 201.3546906  24.4572582
  61.3778152 200.8852692  22.7738953  60.7020226 202.8772278  23.3516903
  61.6461830 203.3255920  23.0424366  59.9444427 203.0161591  22.5804081
  60.2895126 203.6911774  24.5205460  60.8772163 203.5346985  25.3269062
  60.3717613 204.6709442  24.2894993  59.3649178 203.4382019  24.8387260
  58.4186020 197.6792450  23.7729378  57.3524170 198.1248779  23.3445816
  59.0896072 196.6993713  23.1239700  59.9781418 196.4067383  23.5047245
  58.5967865 196.0550232  21.9095764  58.2993431 196.7859039  21.1576118
  59.7607536 195.3880005  21.2990417  60.5340576 196.0935364  20.9951897
  60.1529884 194.6481171  21.9967747  59.4806099 194.3941803  20.1373291
  59.1128616 194.8793335  18.8705997  59.0499802 195.9437714  18.6991615
  58.9506950 194.0678406  17.7464943  58.8551102 194.5086517  16.7651901
  58.9484367 192.6373138  17.9023647  58.6227493 191.8256989  16.8906136
  58.6413002 192.1926117  16.0036888  59.1909256 192.1354828  19.1822014
  59.1990089 191.0745850  19.3842373  59.4259644 193.0002441  20.2507076
  59.6268044 192.5407562  21.2072353  57.3845253 195.1024475  22.1406078
  56.3594322 195.3211212  21.4995480  57.4188461 194.2905884  23.2138042
  58.2787056 194.3201752  23.7428246  56.2395325 193.6073303  23.6930313
  55.9731216 192.8404694  22.9656715  56.6408157 192.8078766  24.9734268
  57.2572403 191.9640350  24.6635094  57.2664261 193.4169159  25.6259575
  55.4416733 192.2910156  25.8494129  54.8065186 193.1456451  26.0823517
  54.8325119 191.6097412  25.2553520  56.0383415 191.6477814  27.0778656
  55.9064713 190.4490967  27.1793880  56.4472084 192.4124908  28.0328388
  56.5605507 192.0336761  28.9622231  56.2913322 193.4019623  27.9034023
  55.1003380 194.5793610  24.0162792  53.9678459 194.2777710  23.5577221
  55.3287506 195.6279297  24.8197517  56.2086678 195.6976624  25.3106575
  54.2623749 196.7106476  25.0225906  53.4017563 196.1757050  25.4241829
  54.7658310 197.7483826  26.0776901  55.1873474 197.1304779  26.8705578
  55.5183411 198.4163513  25.6585999  53.6731682 198.6819305  26.6450176
  53.3648148 199.3045502  25.8051662  52.8472672 198.1685333  27.1373787
  54.2891617 199.6863403  27.6779900  54.6439896 199.1414490  28.5528011
  55.0967789 200.2851562  27.2569427  53.2601662 200.6477966  28.1820087
  53.2932930 201.4481964  27.4428425  52.2415848 200.2617340  28.2213364
  53.6083145 201.1436005  29.5443039  54.5687714 201.4542236  29.5103836
  52.9954605 201.8736420  29.8782997  53.6202850 200.4505920  30.2789536
  53.7628250 197.3755951  23.6984959  52.6795311 197.9257355  23.7257957
  54.5793877 197.4456329  22.5804005  55.5377960 197.1955566  22.7779179
  54.1678467 198.0640717  21.3279266  53.4958954 198.8919220  21.5542984
  55.4777184 198.6934509  20.7497406  55.8423805 199.2638855  21.6039791
  56.2479820 197.9584198  20.5162106  55.1158371 199.5325470  19.5340004
  54.7375183 198.8980255  18.7325230  54.2841148 200.1927032  19.7800331
  56.3115768 200.3791504  18.9548378  57.0946236 199.6883698  18.6421700
  55.9643784 200.9536591  18.0960712  56.7816200 201.3202057  19.9534187
  56.5349350 201.0829163  20.9036503  57.4494667 202.4405823  19.7841263
  58.0747643 202.6775360  18.6227608  57.9679413 202.0607452  17.8301334
  58.3942451 203.6059875  18.3860741  57.5027618 203.3717957  20.7475510
  56.9944839 203.3371277  21.6196461  58.2493668 204.0512695  20.7158165
  53.4504547 197.1578064  20.3432941  52.3782234 197.5747986  19.8175335
  54.0709190 195.9851074  20.1588516  54.9817009 195.7816772  20.5451012
  53.5830345 195.0151825  19.2109642  53.4340935 195.5234985  18.2583141
  54.7256203 194.0016174  18.9183140  55.6449509 194.5164185  18.6391945
  54.9839821 193.5313721  19.8671150  54.3286324 192.8773041  17.9523258
  53.6307945 192.1808319  18.4171295  53.7678452 193.2528839  17.0964260
  55.5557976 192.1232605  17.4127693  56.2624779 192.8584290  17.0277672
  55.9870682 191.5409546  18.2270374  55.2010040 191.0862427  16.3580990
  56.0054474 190.3509827  16.3773403  54.2684517 190.5840454  16.6155052
  55.1711006 191.6313782  14.9747381  56.0973625 191.9127808  14.6867228
  54.8329430 190.9343109  14.3267727  54.5909653 192.4568481  14.9285717
  52.3064499 194.3590393  19.6589775  51.5235367 193.8767548  18.8768654
  52.1251183 194.2791138  20.9740200  52.8841896 194.5361328  21.5887165
  50.9430466 193.6276398  21.6155529  50.3059464 193.3313904  20.7822247
  51.3860588 192.4241333  22.5387859  52.0651474 192.8203888  23.2937183
  50.4416885 192.0168915  22.8999043  52.1025124 191.4178009  21.6983585
  51.5111465 190.6313934  20.7087765  50.4350319 190.6345520  20.6172810
  52.2563400 189.7425385  19.8791904  51.8194237 189.0804138  19.1463184
  53.6305389 189.5887909  20.0986900  54.1934013 188.9413452  19.4426460
  54.2365379 190.3826752  21.0829353  55.3046570 190.4085846  21.2405987
  53.4925499 191.2907867  21.7626495  54.0278320 191.9153748  22.4624901
  50.0060539 194.5974274  22.3598175  49.2135239 194.1324921  23.1087971
  50.0532494 195.9127808  22.0893707  50.7555122 196.2158661  21.4297733
  49.1175652 196.9037933  22.6872883  49.2249565 196.8424530  23.7702503
  49.4852486 198.3050232  22.1171761  50.4997444 198.5604858  22.4231815
  49.4541054 198.2246246  21.0305920  48.5917969 199.4920349  22.3652000
  48.9041557 200.5199890  23.2340374  47.8246574 201.2922668  23.2193527
  47.7147942 202.1918030  23.8068409  46.8890266 200.8206177  22.3869400
  45.9387131 201.1625671  22.3783302  47.3720551 199.6676636  21.7897892
  46.9226799 199.0803223  21.0027122  47.6432076 196.5422211  22.3348312
  46.7188225 196.7870789  23.1481800  47.3925781 195.9207306  21.1964912
  48.1841545 195.9158020  20.5692081  46.0495720 195.5416870  20.7308426
  45.3631554 196.3567200  20.9602814  46.0480194 195.5156097  19.2011833
  46.7733383 194.7672882  18.8817463  45.0857620 195.1469879  18.8458099
  46.5842056 197.1202850  18.5662193  45.4241714 197.7803192  18.6260662
  45.4268074 194.2630615  21.2956867  44.2409286 193.9374084  21.2113056
  46.1919327 193.6385956  22.1618595  47.1355972 193.9970856  22.1947842
  45.7470932 192.6351929  23.1457386  45.3669624 191.7884979  22.5741558
  46.9996605 192.1007385  23.8310318  47.3946381 192.9261169  24.4233475
  46.7222557 191.4409485  24.6531181  47.6373367 191.6192627  23.0896378
  44.7164459 193.1708374  24.1345959  43.9597969 192.3666687  24.7073517
  44.5037422 194.4767914  24.2490883  45.1257935 195.1367493  23.8045387
  43.5377235 195.1095428  25.1581631  43.6921043 194.7044830  26.1582565
  43.8005600 196.6276398  25.2219868  43.2333488 197.1474457  25.9941177
  44.8697548 196.7610779  25.3866615  43.4919586 197.2248077  23.8929958
  43.7705536 198.1430359  23.9221020  42.1188698 194.8721771  24.7076530
  41.2163506 194.8471527  25.5350590  41.8243332 194.6619110  23.4180050
  42.6387939 194.6790771  22.8209610  40.5405350 194.3603210  22.8365173
  39.7549934 194.9874115  23.2581501  40.4898109 194.5508728  21.3233833
  40.9561539 193.6789246  20.8647804  39.4922981 194.6097870  20.8879547
  41.2174683 195.7841339  20.7628326  42.2658768 195.6988068  21.0486031
  41.1312218 195.8756866  19.2254066  40.1182976 195.7666931  18.8378487
  41.5101318 196.8415222  18.8912048  41.8089600 195.0757446  18.9273052
  40.5997925 197.0796814  21.3276749  40.8059921 196.9723663  22.3926029
  41.1822624 197.8996124  20.9074802  39.5131950 197.1130219  21.2483025
  40.0422668 192.9413605  23.1701145  38.8232994 192.6748657  23.3634739
  41.0129662 192.0303345  23.2514496  41.9547768 192.3863525  23.1717205
  40.9600296 190.6000061  23.5856171  39.9776993 190.2822418  23.2361145
  41.9130669 189.6998901  22.8817863  41.5824394 188.6912537  23.1296902
  41.9502068 189.7966766  21.3814640  42.3503418 190.7497406  21.0355682
  42.4678307 188.9590302  20.9139843  40.9350052 189.6594849  21.0090904
  43.2396584 189.8445129  23.3836803  43.6947975 189.0664978  23.0533142
  41.0318375 190.3563232  25.1179123  41.2981949 191.2577820  25.9080353
  40.7113800 189.1541290  25.5838795  40.4599304 188.4231873  24.9338150
  40.6149216 188.8217163  27.0348511  40.2472153 189.7071381  27.5534172
  39.6026688 187.7299805  27.1668587  39.5077515 187.3988800  28.2010040
  38.6286545 188.0703125  26.8153248  39.9517517 186.6194153  26.3474483
  40.5554008 186.1155090  26.8981590  41.9604073 188.5003204  27.7144470
  41.9879494 188.0861511  28.8807411  43.0379829 188.7064209  27.0579090
  42.9929581 189.3294220  26.2642174  44.4221497 188.3324432  27.4700756
  44.3989868 187.8181610  28.4308395  45.0207062 187.2750397  26.5398140
  45.2136345 187.6994934  25.5545597  46.0374298 187.0053558  26.8255558
  44.1266823 186.0931702  26.2793903  43.4640198 185.8043823  25.1443233
  43.5383492 186.3291321  24.2033119  42.7406502 184.5853271  25.2443352
  42.0865440 184.2319946  24.5606689  42.8484917 184.0870514  26.5494480
  42.3249779 182.9332123  27.1640415  41.5168114 182.3623810  26.7311325
  42.7903557 182.5885620  28.4568233  42.3442879 181.6866150  28.8491154
  43.6327057 183.4248810  29.1787510  43.9577827 183.1763916  30.1782417
  44.0364876 184.6615601  28.5759697  44.6403503 185.2966766  29.2071571
  43.7138138 185.0415344  27.2527485  45.4459381 189.4191742  27.5792732
  45.4801788 190.2371216  26.6783695  46.3397598 189.4441376  28.5711498
  46.5250816 188.4006653  29.6188793  46.6231689 187.4091644  29.1768341
  45.6383247 188.4147491  30.2525673  47.7669640 188.7509766  30.3802776
  48.5589905 188.1890717  29.8852367  47.7142792 188.4774933  31.4340954
  47.9495850 190.2437286  30.1490078  48.9980736 190.5385132  30.1923714
  47.2739449 190.8192139  30.7818089  47.3256226 190.4672241  28.7519054
  46.8559914 191.4508362  28.7442875  48.3884888 190.3683319  27.6646061
  48.7532463 189.2711029  27.1957932  49.1416321 191.5076599  27.3771687
  48.8760719 192.8400421  27.9540062  49.3312340 192.8434143  28.9444199
  47.8092117 193.0268860  28.0764771  49.5034294 193.8211670  27.0176277
  49.7937393 194.7127380  27.5734463  48.8195000 194.1704559  26.2441082
  50.6774712 193.0276184  26.4696522  51.5217171 193.0718231  27.1576958
  51.1087303 193.3970337  25.5392513  50.1184654 191.5618286  26.2835541
  49.5959587 191.4297791  25.3361092  51.2321434 190.4677582  26.3212814
  51.5468521 189.8694458  25.2842751  51.7194023 190.0867767  27.4847202
  51.4493179 190.5496368  28.3408298  52.7141304 189.0397797  27.7000923
  53.4901390 189.4449310  27.0506573  53.2339859 189.0827332  29.1216450
  53.9755096 188.2890625  29.2128143  53.8573265 189.9701233  29.2316456
  52.3248405 188.8827362  30.2618637  51.8504753 189.8467712  31.0958405
  52.0168915 190.9086914  30.9908829  50.9742813 189.3249664  32.0193138
  50.4171791 189.8194427  32.7013893  50.8876648 187.9460754  31.8411770
  50.0806961 186.9366760  32.4087219  49.3752518 187.1540985  33.1970596
  50.1398811 185.6051025  31.9917145  49.5367012 184.8816986  32.5201569
  51.0696030 185.2360535  31.0093842  51.1166496 184.2489319  30.5737247
  51.8867378 186.2110291  30.4125347  52.4715462 185.9810181  29.5341911
  51.7547035 187.6100311  30.7741261  52.3622169 187.6210938  27.2716694
  53.2612572 186.8878326  26.8057270  51.0820999 187.1726837  27.2456627
  50.3224907 187.8168335  27.4135151  50.7023888 185.8683014  26.7215347
  51.3215294 185.1988068  27.3186493  49.2278671 185.5369263  27.0115604
  49.0003548 185.6399078  28.0725670  48.7394600 186.2947845  26.3990059
  48.7772408 184.0989380  26.5439110  48.9547997 184.0136261  25.4718609
  49.3847237 182.9504547  27.3590260  49.2658958 183.0978546  28.4324532
  49.0117188 181.9508972  27.1357365  50.4539070 182.8735962  27.1614418
  47.2550354 183.9946899  26.6031399  46.9174271 184.8117065  25.9654789
  46.9151573 183.0520630  26.1741600  46.9542923 184.1612396  27.6375065
  51.1045914 185.6511383  25.2364655  51.6519737 184.6370392  24.8861599
  50.7701416 186.6349335  24.4143066  50.4536171 187.5152893  24.7949581
  51.1153488 186.5773468  22.9958744  50.5909920 185.6558228  22.7430210
  50.4101181 187.7218933  22.2604008  50.7429047 188.6729279  22.6761990
  50.7660027 187.7286377  21.2301579  48.8703079 187.6372681  22.1953926
  48.2056694 186.6061859  21.5116520  48.8415298 185.8609314  21.0570183
  46.7880592 186.5066376  21.5239754  46.3380623 185.6872101  20.9831753
  46.0696068 187.4650421  22.2345982  44.7367706 187.4915771  22.2984066
  44.3814240 187.0126038  21.5461292  46.7472610 188.5272217  22.8910637
  46.2495155 189.2617035  23.5068550  48.1525917 188.5927582  22.9200993
  48.5619049 189.3715668  23.5464478  52.6226692 186.4821320  22.6859245
  52.9763069 185.7787781  21.7708740  53.4875946 187.0718994  23.5338326
  53.0662880 187.6260681  24.2656136  54.9351120 186.8582458  23.3932590
  55.3010178 187.2581787  22.4475994  55.7280540 187.6058197  24.4353027
  55.4136581 187.2692413  25.4232140  56.7750587 187.3974915  24.2151241
  55.5599289 189.0414581  24.4382935  56.0403290 189.4068451  25.1848297
  55.3986740 185.3751831  23.5321236  56.3760338 184.9723511  22.9558029
  54.6171761 184.5276031  24.1663818  53.7527618 184.8721619  24.5590229
  54.8938332 183.0589294  24.4132519  55.9763031 182.9875031  24.3071785
  54.3242264 182.5618286  25.7720127  53.2469826 182.4829712  25.6256428
  54.7839088 181.5821228  25.9023380  54.5822563 183.3629913  27.1054096
  53.8822899 184.1965485  27.0476646  54.2735748 182.6536713  28.4793644
  55.0884590 181.9461365  28.6326008  54.3912048 183.4985504  29.1579151
  53.2733688 182.2227020  28.4350929  56.0272446 183.9488220  27.2888126
  56.1075478 184.6599579  26.4666538  56.1448631 184.4989014  28.2224483
  56.6734505 183.1153259  27.0134659  54.3400078 182.1854706  23.2686539
  54.5119667 180.9854584  23.2538986  53.8267746 182.8088074  22.2404099
  53.4560661 183.7440033  22.3302879  53.4345016 182.1985321  20.9768505
  53.7945213 181.1726074  20.8996010  51.9149017 182.1550140  20.8679790
  51.5657463 183.1685028  21.0655956  51.5882263 181.7748566  19.9000607
  51.2271309 181.1993103  21.8331490  50.7606354 181.7460175  23.0371895
  50.8509026 182.8107147  23.1942348  50.1682014 180.9391632  23.9681339
  49.7671165 181.3027802  24.9026527  49.9097557 179.5637360  23.7356071
  49.2911186 178.8098450  24.7004147  48.7028542 179.2342834  25.3292236
  50.3789711 178.9689636  22.5363369  50.2483253 177.9120789  22.3565502
  50.9951668 179.8167725  21.5352936  51.2109947 179.4140320  20.5567131
  54.0379219 182.9914093  19.7772236  53.9184952 182.6685638  18.5799809
  54.7090302 184.1112213  19.9938393  54.7976532 184.4273834  20.9489765
  55.3675156 184.9586029  18.9845619  54.6225471 185.2084808  18.2291279
  55.6861343 186.2645569  19.6574993  54.7371254 186.7635803  19.8536282
  56.2653275 186.0817261  20.5626068  56.4885941 187.2082977  18.6663437
  56.4137688 187.0469513  17.4073162  57.4508018 187.8784485  19.1507397
  56.6506004 184.3673553  18.3780422  57.6195602 184.2058105  19.1131439
  56.6667213 183.9699249  17.0720730  55.8445511 184.1156311  16.5038204
  57.8393745 183.3110962  16.4395409  58.0253563 182.3509216  16.9207764
  57.5718155 182.9409943  14.9625711  57.6190758 183.8244629  14.3258934
  58.2951279 182.1625214  14.7198381  56.6100273 182.4500275  14.8141727
  59.1005478 184.1516113  16.5797920  60.1927071 183.6269073  16.6841240
  59.0846710 185.5197906  16.6470928  58.1719360 185.9391785  16.7526016
  60.2580338 186.3420715  16.8808708  61.1272049 185.9695435  16.3387699
  59.9123573 187.8017578  16.4438667  59.0383530 188.1894684  16.9672146
  60.7124710 188.4639587  16.7746296  59.7095261 187.9281464  14.9166822
  58.8590050 187.2677002  14.7477865  59.5205841 188.9703217  14.6592302
  60.9027634 187.4031677  14.1015034  62.0803604 187.4077606  14.4857607
  60.6622772 186.9644012  12.9793720  60.7526360 186.2861328  18.2904949
  61.9728546 186.1926422  18.5546703  59.8482590 186.3033295  19.3014736
  58.8959274 186.6096344  19.1624241  60.2925720 186.1291046  20.6863995
  61.2285995 186.6834106  20.7550087  59.1293335 186.4567261  21.6437206
  58.2702637 185.7952728  21.5314579  59.5382576 186.2916412  23.1500702
  60.4813156 186.8378448  23.1700096  58.8258743 186.7150574  23.8581161
  59.6275826 185.2305298  23.3827877  58.6117516 187.8026581  21.4766827
  58.3740654 187.8513641  20.5478477  60.7791557 184.6619110  20.9613743
  61.7227936 184.4596405  21.6518898  60.0832863 183.7216644  20.3453197
  59.2650375 183.9320831  19.7918816  60.4852257 182.3516693  20.4950199
  60.5643044 182.0190125  21.5300007  59.4168549 181.4888000  19.7262211
  59.2486229 181.9192200  18.7390327  59.8937416 180.5172119  19.5970287
  58.0662422 181.2948456  20.4727287  57.7069016 182.2689056  20.8046532
  56.9709015 180.7807617  19.5186310  57.2973480 179.9249725  18.9277306
  56.1332130 180.4566650  20.1361656  56.4278641 181.4171295  18.8198891
  58.2596207 180.3382874  21.6616325  59.0669289 180.7191010  22.2872009
  57.3671188 180.2709808  22.2837296  58.3554916 179.3357697  21.2446232
  61.8630104 182.0101166  19.8381653  62.4321594 181.0909882  20.3325100
  62.2424240 182.6799469  18.7692013  61.6754074 183.4478455  18.4391575
  63.6052284 182.5791321  18.2371311  63.7757950 181.5037842  18.1856880
  63.7777481 183.2086487  16.8216324  63.3420906 184.2067719  16.7765579
  64.8482666 183.2926331  16.6344376  63.1654549 182.3254395  15.7493010
  63.7436447 181.4054108  15.6636782  62.1428490 182.0742798  16.0308971
  63.1356049 183.0155182  14.0966578  64.9005737 183.1061859  13.6348238
  65.3396912 182.1096497  13.6815548  64.9547119 183.4612122  12.6056843
  65.4767532 183.7723083  14.2770147  64.6403275 183.1929779  19.2234669
  65.7613831 182.6868744  19.3269920  64.2556992 184.3248596  19.7877808
  63.4101372 184.8015747  19.5087280  65.2206116 184.9427795  20.6895752
  66.1552582 185.0722656  20.1438866  64.7039566 186.3548126  21.1066513
  64.5728073 186.9087982  20.1771297  63.8232117 186.1318512  21.7088757
  65.7336578 187.1447906  22.0117531  65.3178711 188.1447144  22.1357975
  65.7229996 186.6861572  23.0005112  67.1415176 187.2592926  21.4081573
  67.1922226 187.5042267  20.1909599  68.1362762 187.0179749  22.0862293
  65.4851685 184.1652985  21.9647274  66.6241913 184.0899353  22.3984909
  64.4900665 183.4413452  22.5877132  63.5641441 183.6387329  22.2358475
  64.8134766 182.5685577  23.7799797  65.2440567 183.1249847  24.6124992
  63.4556084 182.0129852  24.3874550  62.9242744 181.5509949  23.5553761
  63.6438904 181.3309174  25.2165813  62.5449486 183.1685944  24.8771286
  63.0565491 183.6135864  25.7305641  62.4574280 183.9904785  24.1665287
  61.1458588 182.6983337  25.3541412  60.4663124 183.5387268  25.4957256
  60.7613411 182.1248779  24.5106926  61.2959251 181.9919586  26.6113892
  62.2220001 181.9558563  27.0128689  60.2825584 181.4003448  27.2904949
  59.0518990 181.2313232  26.8492718  58.8384705 181.7924042  26.0370274
  58.4301300 180.6348572  27.3762741  60.5732384 180.8065186  28.3632278
  61.5409088 180.7041321  28.6338406  59.8318024 180.4040985  28.9185963
  65.8181229 181.5158997  23.3595219  66.6484680 181.1937714  24.1969776
  65.7060318 180.9076996  22.1289940  64.8243256 181.0744171  21.6654186
  66.6063538 179.8054352  21.7692909  66.8878403 179.1929779  22.6258888
  65.9370041 178.9102173  20.6544552  65.5820236 179.5508118  19.8471642
  66.8726196 177.8238831  20.1334934  67.1624985 177.3002167  21.0444622
  66.1893463 177.1832428  19.5759811  67.7501526 178.2323303  19.6322994
  64.5803452 178.2744293  21.2233887  63.9528618 178.9866486  21.7592220
  64.0244446 177.9198303  20.3554420  64.7861938 177.3981628  21.8381195
  68.0240631 180.4212189  21.3961124  69.0207977 179.8426971  21.8524857
  68.0934372 181.5859985  20.7227116  67.2764511 182.1323853  20.4900990
  69.3609848 182.2627258  20.5227604  70.0172272 181.6359253  19.9189606
  69.2634354 183.5854797  19.7531414  68.5040588 184.1612549  20.2822247
  70.1962891 184.1145325  19.9480686  69.0134964 183.5059204  18.2228260
  69.7719116 182.8340912  17.8209152  68.0352325 183.0688934  18.0225315
  68.9778366 184.9477692  17.7186947  68.0883942 185.4938660  18.0329781
  69.8540192 185.4917297  18.0715637  68.8842468 184.9206848  16.2039642
  69.6265945 184.2122650  15.8363008  67.9242020 184.5274963  15.8695545
  69.2124329 186.2866364  15.6163998  70.1434784 186.5958405  15.8564768
  69.1897583 186.2303162  14.6082249  68.6096420 187.0333405  15.9313011
  70.1728134 182.4910126  21.8024826  71.3036118 182.0910492  21.9139404
  69.5820923 183.0972137  22.8075733  68.7067490 183.5757599  22.6498280
  70.1763916 183.2966614  24.1678677  71.0949402 183.8720703  24.0526886
  69.0936584 184.1405182  24.9865875  68.7611237 184.9217987  24.3031158
  68.2265015 183.5269470  25.2308769  69.7045288 184.8282013  26.2843761
  70.0798111 184.0578613  26.9580574  70.5287933 185.4932861  26.0268040
  68.6455917 185.7469330  27.0195961  69.1378708 186.3536987  27.7795982
  68.3465118 186.4946442  26.2850246  67.5472488 184.9539795  27.5466862
  67.7083282 183.9810944  27.7649803  66.3643494 185.3604889  27.9080162
  65.9405594 186.6241302  27.8277493  66.5029297 187.4016266  27.5125618
  65.0380096 186.9068909  28.1820793  65.4668884 184.5027771  28.3393230
  65.8146439 183.6081085  28.6535473  64.5836716 184.8476410  28.6873188
  70.6351624 182.0098114  24.8492851  71.5149155 182.0293579  25.6761055
  70.1558990 180.8251648  24.4458332  69.3234406 180.7747803  23.8761139
  70.7633591 179.5487366  24.8270988  71.2366943 179.6842041  25.7995739
  69.5606995 178.5671387  25.0065708  68.8656387 178.9422607  25.7577534
  69.0118179 178.4704742  24.0698280  69.8695450 177.1363525  25.3980579
  68.9278412 176.5942535  25.3118763  70.5190125 176.7104187  24.6332836
  70.4445038 177.0559082  26.7977467  69.7302780 176.8739624  27.7427921
  71.7376480 177.0261078  26.8803616  72.1477966 176.9008331  27.7947903
  72.2483215 176.7672272  26.0483208  71.8275604 179.0812378  23.8192520
  72.8909988 178.6075745  24.2054520  71.6652069 179.2283630  22.4743748
  70.8764267 179.7095642  22.0664635  72.6454620 178.8175049  21.4638786
  72.8718338 177.8085480  21.8086205  72.0907974 178.7485504  20.0214958
  71.8859253 179.7591400  19.6681690  72.8866882 178.2908478  19.4339809
  70.8534088 177.9183960  19.7112617  69.9895020 178.1733246  20.3250885
  70.4926605 178.0906219  18.2367821  71.4396439 177.9293060  17.7217102
  69.7180710 177.4487152  17.8171711  70.2374039 179.1368713  18.0685310
  71.1135330 176.4156189  19.9712925  71.1957779 176.2990265  21.0519180
  70.2609558 175.7934875  19.6989594  72.0152817 176.0597076  19.4730320
  74.0233383 179.6006317  21.5586224  75.0985489 179.0717926  21.2310810
  73.9462891 180.8385773  22.0066948  73.0289917 181.2598724  22.0411720
  75.1404953 181.6387329  22.3257580  75.8685226 181.5522766  21.5191574
  74.8967056 183.1008301  22.6678810  73.9777222 183.2066193  23.2444134
  75.6889572 183.4093781  23.3499622  74.7977142 184.0195312  21.4350910
  75.8617325 184.8400726  20.9563179  75.3482285 185.4770508  19.8746262
  75.9249878 186.1759949  19.2870560  74.0233459 185.2010956  19.7750492
  73.3852234 185.6071777  19.1057262  73.6672440 184.2839813  20.7590122
  72.7174072 183.8076477  20.9521656  75.9684219 181.0420990  23.5956497
  77.2026978 181.1526794  23.5658531  75.2888947 180.4219055  24.5108509
  74.2814789 180.4923248  24.5267582  75.9396210 179.6677551  25.5441780
  76.7273560 180.3392334  25.8857689  74.9862366 179.3024292  26.7273273
  74.0717697 178.8966217  26.2947083  75.4108200 178.5131836  27.3477421
  74.5574265 180.5678711  27.4983425  74.6572113 181.4913788  26.9280205
  73.4969940 180.4500580  27.7213001  75.3414154 180.5677490  28.8294201
  75.9677353 181.6018677  29.1478539  75.3001404 179.5690308  29.5716019
  76.5460129 178.4373322  24.8967495  77.7320709 178.2237396  25.2189102
  75.9313889 177.6829987  23.9996109  75.0374222 177.9702301  23.6275635
  76.4656982 176.5149841  23.2879753  76.9409103 175.9506836  24.0903625
  75.3940353 175.6795959  22.5678234  74.8293381 176.3159180  21.8864193
  75.9678192 174.9544067  21.9907932  74.4642258 174.9241486  23.4685917
  74.6761703 174.8088837  24.7954063  75.5212631 175.2053528  25.3385887
  73.6340561 174.1337280  25.3752689  73.5031509 174.0552521  26.3736706
  72.7842865 173.6543579  24.4005070  71.6143494 172.8419189  24.4042912
  71.2687759 172.4489136  25.3490276  70.8935013 172.6218719  23.2152348
  69.9096222 172.1764679  23.2135658  71.3867874 173.1584625  21.9841194
  70.8753815 172.9893494  21.0480251  72.5453568 173.9238434  22.0144196
  72.9156494 174.3116150  21.0769062  73.2191620 174.2905731  23.2124653
  77.5908890 176.9071503  22.3169060  78.5328598 176.1242828  22.1506672
  77.6636963 178.1138458  21.7489548  76.8600845 178.6987000  21.9285679
  78.6698685 178.6091003  20.7897987  79.5589752 177.9864197  20.8891220
  78.1457748 178.4729156  19.3665829  77.6198120 177.5190735  19.4071999
  77.4307480 179.2588501  19.1233501  79.2422180 178.4547272  18.2866554
  80.3649597 178.9285583  18.5182457  78.9862671 177.9259491  17.1910229
  79.1117401 179.9905090  21.1665802  78.4209747 180.9273529  20.8037815
  80.2253113 180.1157227  21.9422493  80.7768478 179.2941742  22.1446381
  80.7664871 181.4165039  22.4798088  79.9899063 181.9461670  23.0316143
  81.8593750 181.1498566  23.5347137  82.7047806 180.6584778  23.0531158
  82.0945358 182.1533813  23.8892937  81.4072266 180.2515869  24.7093353
  82.0172501 180.6000977  25.5427132  80.3365784 180.3795624  24.8688278
  81.7430344 178.7731018  24.4773407  81.4385605 178.2309418  23.3872433
  82.1531754 178.0660706  25.4387932  81.2691727 182.4053802  21.3954220
  81.5600204 183.5477142  21.6740990  81.4861908 181.9443207  20.1548843
  81.1623154 181.0140228  19.9318619  82.0546646 182.7032471  19.0633125
  82.3871078 183.6457672  19.4983139  83.3899994 182.0661163  18.5227852
  83.3731003 181.0255737  18.8469315  83.4292221 182.2263794  17.4453449
  84.6323090 182.6488342  19.1984539  85.2526703 182.0786743  20.1057014
  85.0986023 183.7489166  18.6325645  85.9465485 184.1063843  19.0488720
  84.6255035 184.2778931  17.9139156  81.0626221 182.9928284  17.8685932
  81.4469757 183.5055542  16.8172207  79.8197403 182.4040680  17.9586964
  79.6479721 181.8880920  18.8097992  78.8092804 182.4398651  16.8699589
  79.2958450 182.0857239  15.9611483  77.7088699 181.4408569  17.2111950
  78.1914825 180.4734802  17.3503571  77.3359833 181.7317200  18.1932678
  76.5342102 181.3232727  16.1590977  76.9848022 181.6441193  15.2198811
  75.9193878 179.9517059  16.1879768  75.4356461 179.8278961  17.1568737
  75.2558670 179.9299622  15.3234768  76.6327362 179.1352081  16.0759258
  75.3708649 182.3180695  16.4645119  75.6380844 183.3748016  16.4594898
  74.6693039 182.2577515  15.6324787  74.7900009 182.1864624  17.3774033
  78.3580017 183.8664551  16.6097317  77.7691040 184.5237274  17.4561996
  78.5113144 184.3455505  15.3827457  79.1147232 183.8662109  14.7298717
  77.9222412 185.5516663  14.8249884  77.5960159 186.1909027  15.6454010
  79.0737381 186.1816406  13.9940901  79.4565125 185.4445801  13.2881546
  78.6121979 186.9890900  13.4256868  80.1785202 186.6733398  14.8894024
  79.7378235 187.3390961  15.6314621  80.7364273 185.9040527  15.4233007
  81.2482758 187.4411163  13.9872837  82.2075119 187.5728912  14.4878693
  81.5212631 186.7290497  13.2084723  80.8689499 188.8066559  13.3932753
  81.7118835 189.2421417  12.8566990  80.0747757 188.7779694  12.6472378
  80.4405670 189.8043976  14.4054985  81.1945496 190.4167480  14.6823473
  79.6119843 190.3221588  14.1496153  80.1792068 189.2610626  15.2157965
  76.6274643 185.2551727  14.1029940  76.6589737 184.2632904  13.3798523
  75.5531311 186.0671539  14.2628117  75.6453247 186.8646088  14.8757334
  74.1630859 185.7669220  13.8672132  73.8652267 184.9495697  14.5239744
  73.2580719 186.9718628  14.2529402  73.7283783 187.9115143  13.9631472
  72.3228760 186.7813263  13.7264328  72.9482880 187.0628510  15.8177834
  73.7941437 186.6741028  16.6508198  71.7568817 187.3447876  16.1229229
  74.0161896 185.3978729  12.3676777  73.1691895 184.5062714  12.0291939
  74.8556671 185.9209290  11.4624186  75.5000229 186.6018219  11.8383303
  74.7658768 185.8179474   9.9572096  73.8871307 186.3151550   9.5464849
  76.0261383 186.5250397   9.4754314  76.8796005 185.9115906   9.7642059
  75.9556198 186.4983368   8.3880405  76.2956238 187.9979095   9.9528885
  76.7344513 188.0582123  10.9488277  77.0641251 188.3173523   9.2489967
  75.0404053 188.9144287   9.7890759  74.3656311 188.7740173   8.6975460
  74.7156525 189.8376923  10.5952520  74.8177032 184.3304138   9.4457808
  74.2868195 183.9929810   8.3812780  75.4029160 183.3770599  10.2447023
  75.7863464 183.6580963  11.1358185  75.3983688 181.8749237  10.0041952
  75.5950699 181.7062683   8.9454393  76.5249939 181.2854767  10.7913446
  76.7242279 180.2509918  10.5116282  77.4405060 181.8523712  10.6222782
  76.2410736 181.3385468  12.1685734  77.0227585 181.1422272  12.6901379
  74.0234222 181.1472473  10.2969780  73.9281387 179.8972168  10.0721102
  72.9687729 181.8002472  10.8214989  73.0145874 182.7920837  11.0066481
  71.6869736 181.1806335  11.2197809  71.7581940 180.0970612  11.1254749
  71.4063416 181.4113159  12.7584715  71.4837646 182.4953613  12.8419247
  70.4250107 181.0314331  13.0426588  72.4736786 180.7992096  13.6986485
  73.4827652 181.0970764  13.4138212  72.2637253 181.2283325  15.2627878
  71.2055435 181.0658417  15.4676399  72.9509888 180.7261505  15.9436502
  72.3876648 182.3079834  15.3470354  72.4415054 179.2525787  13.6280146
  72.6915283 178.8630676  12.6411600  73.2225037 178.8485107  14.2721224
  71.4564819 178.8586121  13.8782167  70.5115891 181.6472473  10.2915945
  70.5021286 182.7687531   9.8395872  69.4817276 180.8150635  10.1273642
  69.5477142 179.3681793  10.3435297  69.2118073 179.1142578  11.3489132
  70.5533676 179.0031891  10.1348467  68.6336136 178.7594147   9.3471403
  68.2062836 177.8026276   9.6471939  69.1834946 178.7679749   8.4060488
  67.5216599 179.8045807   9.1969757  66.7976685 179.6458740   9.9961977
  67.0274124 179.6220093   8.2427769  68.3081284 181.1259308   9.2999630
  68.6847153 181.3937988   8.3127794  67.4472046 182.2727661   9.8218813
  66.9808578 182.3304596  10.9370327  67.1222305 183.2140961   8.8673754
  67.5531158 183.1948853   7.9541020  66.2792664 184.4149170   9.1657057
  66.5087814 184.8246155  10.1493559  66.5330048 185.5227356   8.1337519
  65.7076569 186.2300873   8.2147789  67.7802505 186.3013000   8.4970541
  68.6455002 185.6383972   8.4943581  67.9473877 187.0458832   7.7187409
  67.6967773 186.7560272   9.4841509  66.7281189 185.0332794   6.7859445
  66.7713242 185.8225555   6.2411876  64.7430038 184.1119232   9.2115564
  63.9052391 184.8608551   9.7138109  64.3527069 182.8410950   8.8841438
  65.1188049 182.2204895   8.6649904  62.9997559 182.2987366   8.7451220
  62.3658752 183.1682587   8.9190569  62.8741188 181.6507874   7.3122349
  63.4794044 182.2180328   6.6051559  63.3024826 180.6495514   7.3580894
  61.4674377 181.6857300   6.7926989  60.8263168 182.7165375   6.8096590
  60.9208145 180.5390930   6.3491898  60.1012421 180.7966614   5.8180985
  61.5406380 179.7854614   6.0884895  62.6921196 181.3503876   9.8831959
  63.4613228 180.3902893  10.0825720  61.6379662 181.5380096  10.7312794
  60.5980988 182.5630188  10.6247606  60.3075104 182.7622528   9.5932722
  60.9916420 183.5150452  10.9809608  59.4348412 182.0193787  11.4909582
  58.8657379 181.2567444  10.9593487  58.8159676 182.8043213  11.9256563
  60.1949081 181.3359985  12.6085577  59.5919991 180.6585693  13.2132740
  60.5880585 182.1472168  13.2213087  61.4254723 180.7120209  11.9109097
  62.2508850 180.8426056  12.6107235  61.1437912 179.2613373  11.5705519
  61.6178398 178.4546967  12.3485374  60.5835724 178.9122467  10.3976088
  60.2695770 179.6503448   9.7838373  60.4146767 177.5176849   9.9046593
  59.8105392 176.9919891  10.6440916  59.6140213 177.5144043   8.5761623
  60.0484276 178.3075714   7.9676576  59.7037315 176.2935944   7.6666026
  59.6104622 175.3498535   8.2039757  58.9690857 176.2029114   6.8664937
  60.7056808 176.4015503   7.2512212  58.1193199 177.9728699   8.7845354
  57.4186440 177.2889099   8.3056335  57.9504738 177.9477539   9.8610849
  57.9936485 179.4484558   8.2482872  57.8019981 179.3914948   7.1767812
  57.1322250 179.9283142   8.7128029  58.8622513 180.0760803   8.4475346
  61.7990646 176.8237762   9.8206549  62.1257172 175.9104309  10.5889874
  62.6509247 177.3268890   8.9276876  62.2984810 178.0793304   8.3534718
  64.0379715 176.9421844   8.8587322  64.0468140 175.9197540   8.4809923
  64.7085114 177.8189392   7.7646661  64.7338486 178.8013611   8.2361784
  65.7573395 177.5616760   7.6167550  63.9841728 177.9821777   6.3770142
  62.7904129 178.3898468   6.3166203  64.6893234 177.6512604   5.3431611
  64.9393158 176.8987885  10.1035881  65.7449493 175.9286194  10.2475405
  64.7767181 177.8444061  11.0272131  64.2616882 178.6517334  10.7061472
  65.4842606 177.9598389  12.2552633  66.5593414 177.8351440  12.1257973
  65.2576447 179.3396301  12.8723841  65.5261612 180.0405884  12.0820246
  64.1822433 179.4156799  13.0331268  65.9139633 179.6266022  14.2572947
  65.2251968 179.1753387  15.4287643  64.2774734 178.6594696  15.3828430
  65.8166580 179.3346252  16.6670418  65.3875885 178.9687653  17.5881538
  67.0489044 179.9662323  16.7595119  67.5985641 180.0591125  17.6845245
  67.7361832 180.3875275  15.5721807  68.7381821 180.7658844  15.7108641
  67.2086868 180.1201935  14.3346415  67.8416672 180.1284637  13.4596176
  65.1474991 176.8323669  13.2136459  65.9611359 176.0426788  13.7058458
  63.8094444 176.7563629  13.4544373  63.1372757 177.4407654  13.1383934
  63.2565079 175.7095795  14.3684330  63.7453499 175.7470245  15.3419476
  61.7654800 175.8866730  14.6697531  61.4640274 175.2551270  15.5054512
  61.4621506 176.9225311  14.8217020  61.1503830 175.5286560  13.4181662
  61.3123856 176.1636353  12.7166281  63.6072464 174.3185272  13.9054670
  63.9917221 173.5163269  14.7369699  63.5729370 174.0518188  12.5669098
  63.1281357 174.6803436  11.9133024  64.0680542 172.7814941  11.9847021
  63.4623909 171.9926758  12.4308319  63.7328262 172.6778259  10.4858217
  64.0412369 173.6197968  10.0323162  64.4604340 171.9921112  10.0516682
  62.3796425 172.2572174  10.0047617  61.7598610 171.0993958  10.5215254
  62.3152580 170.5041199  11.2311707  60.5559235 170.6130371   9.9221659
  60.0317497 169.7306824  10.2584667  60.0454292 171.2850494   8.8419685
  58.9042168 170.8649750   8.2626238  58.8183212 171.1445312   7.3482547
  60.6502037 172.4499969   8.3510742  60.2156525 172.9361115   7.4901004
  61.7642403 172.9760437   8.9618301  62.3158417 173.8193207   8.5732260
  65.5056229 172.4695892  12.3503494  65.7767029 171.3201141  12.7331972
  66.4928589 173.3851776  12.2177572  66.2088623 174.2655334  11.8122816
  67.9168930 173.2225647  12.5969658  68.3108673 172.3503418  12.0753317
  68.7289886 174.5053711  12.2691364  68.4140396 174.8803864  11.2953396
  68.5060883 175.2302856  13.0520267  70.2463226 174.2194519  12.3684006
  70.8017044 175.1532593  12.4558535  70.5416565 173.6319885  13.2377491
  70.8173599 173.7186127  10.9811611  71.9027634 173.6444092  11.0482521
  70.3932266 172.7255402  10.8327770  70.4396362 174.6145935   9.8742313
  69.6123810 174.3290405   9.3700304  71.2009659 175.5154114   9.2956619
  72.3321075 176.0234070   9.8367462  72.5716782 175.7141113  10.7678967
  72.8364182 176.7500916   9.3492050  70.9141846 176.0119934   8.1209106
  70.0917969 175.6825867   7.6358552  71.5444260 176.7003937   7.7349186
  67.9739761 172.7796631  14.1201506  68.6305161 171.7865295  14.4023771
  67.1859818 173.4340973  14.9064541  66.5488052 174.0838013  14.4682693
  67.1788788 173.1747894  16.3651943  68.2186966 173.1310272  16.6891708
  66.5025482 174.2666931  17.1715813  65.5412445 174.4401398  16.6879406
  66.4425201 173.9432220  18.6980591  67.3838120 174.0215149  19.2420673
  65.8324051 174.7599335  19.0838547  66.0430679 172.9730377  18.9934807
  67.2638397 175.5919952  17.0218220  67.3736877 175.8156281  15.9606762
  66.7897797 176.4142151  17.5578327  68.3022537 175.5614929  17.3517628
  66.5734940 171.8091125  16.6590462  67.1773300 170.9787598  17.3756123
  65.3767929 171.3827209  16.0594292  64.8560562 172.0878906  15.5577688
  64.8468094 170.0338287  16.2605724  64.6588211 169.7653351  17.3001251
  63.5345688 170.0665741  15.4975681  63.7979927 170.2448883  14.4550133
  63.0349998 169.1000671  15.5639257  62.9231834 170.8981323  15.8479891
  65.7734070 168.8993378  15.7417946  65.9303665 167.8832092  16.4276104
  66.5477295 169.1276703  14.6739244  66.3967056 169.9831696  14.1587191
  67.6227493 168.2715759  14.1987762  67.1037369 167.3379364  13.9818869
  68.0841293 168.8640900  12.8760004  68.5783005 169.8275757  13.0009232
  68.8278961 168.1352539  12.5539455  67.3121796 168.9165955  12.1082525
  68.7430496 168.1440735  15.2357445  69.1239777 166.9757385  15.4899759
  69.3068619 169.2231903  15.8179951  68.9100418 170.1325531  15.6290579
  70.5290222 169.1874695  16.6147099  71.1627731 168.3696136  16.2718430
  71.3461914 170.4381561  16.4028645  72.3524857 170.3582916  16.8140602
  71.3936081 170.6795807  15.3409929  70.5222168 171.8322449  17.1149521
  69.4304428 171.6629486  16.3637829  70.3152466 168.9324036  18.1335087
  71.2950363 169.0267334  18.9026337  69.0218964 168.7326202  18.5564766
  68.2834320 168.8472290  17.8770409  68.6171036 168.5955811  19.8964348
  69.2426300 169.3161621  20.4232903  67.1552963 168.9393463  20.0982304
  66.6435776 168.8119049  19.1442890  66.7363968 168.2247925  20.8067818
  66.9026184 170.3592682  20.6195297  67.3289719 171.1648407  20.0217247
  65.3855820 170.5179596  20.7930660  65.0744324 169.8910675  21.6287022
  65.2475662 171.5473175  21.1239777  64.8497009 170.2733765  19.8759480
  67.5426483 170.5472412  21.9964981  68.5862961 170.8145905  21.8309383
  67.0979385 171.4137421  22.4859085  67.4650879 169.7125549  22.6931973
  68.8395615 167.1058044  20.4486427  68.3664780 166.2305145  19.7604179
  69.4963989 166.9049530  21.5949745  70.3790512 167.8834839  22.2159557
  69.8178940 168.7704773  22.5099735  71.1365204 168.1523285  21.4797077
  70.9327393 167.1864014  23.4029808  70.2558060 167.3488770  24.2417049
  71.8762436 167.6618195  23.6710873  71.0321884 165.7005615  23.0390797
  71.0024872 165.1095276  23.9544468  71.9636688 165.5019684  22.5089855
  69.7640457 165.5462494  22.1528263  70.0939713 164.8695984  21.3645458
  68.5508728 164.9786987  22.8641109  68.1747360 165.5114441  23.9205513
  67.9151840 163.9416809  22.3567581  68.2356644 163.5084076  21.5025482
  66.6718369 163.3609009  22.9291000  66.8292542 163.3348846  24.0073605
  65.3390121 164.2015381  22.6684113  64.7776642 163.5830078  21.9681244
  64.4635773 164.2244568  23.9521561  65.0242310 164.3586121  24.8772373
  63.6191788 164.8923798  23.7819481  64.0116196 163.2465057  24.1178398
  65.5293961 165.6415710  22.0533352  65.9856110 166.3002319  22.7923489
  66.1707306 165.4499359  21.1930676  64.2421875 166.3377686  21.5693531
  63.7879295 166.7362366  22.4765396  64.4638672 167.1147156  20.8377037
  63.5923271 165.6043701  21.0919571  66.4311600 161.9965515  22.4785995
  66.9701462 161.5891113  21.4354134  65.6213150 161.1842804  23.1973305
  65.1787186 161.4677277  24.0598087  65.1752853 159.8585358  22.6956577
  66.0020905 159.2902985  22.2695007  64.6257477 159.0850983  23.9409561
  64.3911667 158.0516357  23.6859436  65.3626556 158.9740753  24.7364082
  63.3247757 159.7360840  24.5030136  63.5046730 160.6973267  25.2803593
  62.2541275 159.1937561  24.1027355  64.0688705 159.9336090  21.6255970
  63.3603058 160.9357758  21.4549141  63.9703789 158.8508911  20.8814831
  64.5100174 158.0645752  21.2140503  63.3591385 158.7295532  19.5598125
  63.7845459 159.5133362  18.9330540  63.4324265 157.3908386  18.8050041
  63.1167908 156.6214905  19.5096817  62.7497864 157.3984985  17.9552727
  64.8283539 156.9963226  18.3470821  65.7666626 157.8380432  18.3210926
  65.0609894 155.7787781  18.0203896  61.8546066 159.0531921  19.7005615
  61.3694878 159.7629242  18.8600788  61.2025604 158.6817017  20.7906303
  61.7221413 158.3366852  21.5850525  59.7304420 158.8532715  20.9694481
  59.3121490 158.3936005  20.0739937  59.2419472 157.9627838  22.1850739
  59.6535606 158.2203979  23.1609383  58.1816063 158.1675262  22.3329258
  59.3245201 156.9026642  21.9454250  59.3500862 160.3362579  21.0112877
  58.3700409 160.7973328  20.3820114  60.1349525 161.1659698  21.6670341
  60.8924789 160.7788544  22.2114544  60.0355949 162.6256256  21.7955990
  59.0011826 162.8808594  22.0257034  60.8202438 163.0094299  23.0727654
  60.4727287 162.2897339  23.8139629  61.8677444 162.7712555  22.8880463
  60.6663361 164.4914703  23.5560970  61.4524612 165.0158539  23.0128365
  59.3317184 165.1864777  23.3327656  58.5668755 164.6423645  23.8868904
  59.2921295 166.2237244  23.6653748  59.1474037 165.1626282  22.2587280
  60.9626884 164.6310425  25.0569153  61.9566498 164.2525330  25.2954216
  60.9245033 165.6943207  25.2937412  60.2179260 164.0590363  25.6103020
  60.4294662 163.2759857  20.4933510  59.7561226 164.2638550  20.1264248
  61.4913101 162.7942963  19.8051434  61.8325348 161.9016418  20.1320267
  61.8818359 163.2663727  18.4246445  61.9831314 164.3504486  18.3733749
  63.2715454 162.6671295  18.0384445  63.2002869 161.6416168  18.4008598
  63.4872208 162.6189117  16.9710846  64.3585281 163.4839630  18.7183781
  64.3071899 164.5181122  18.3778210  64.0659409 163.4992065  19.7682629
  65.7844772 162.9198456  18.6686935  66.5365753 163.5461578  19.1484585
  65.8365173 162.0770721  19.3579903  66.4151611 162.6658020  17.3236141
  66.1594467 161.7960205  16.8784103  67.2455673 163.4757843  16.5858555
  67.5823746 164.6389313  17.0096493  67.1944733 164.9669037  17.8826180
  68.1051559 165.2713165  16.4206734  67.7711945 163.1742554  15.4252539
  67.5731659 162.2659149  15.0305214  68.6286621 163.6020813  15.1061602
  60.7536659 162.8669128  17.3870316  60.6209755 163.7012024  16.5109386
  59.8546410 161.8501740  17.5554600  60.1377335 161.1138916  18.1862221
  58.5819054 161.7390747  16.8005104  58.7646446 161.8430939  15.7309828
  58.1069145 160.2902527  17.0258732  57.9262123 160.2068176  18.0975475
  56.7759628 160.1669617  16.2707710  56.8376465 160.4334412  15.2156477
  56.4056511 159.1418457  16.2605247  55.9602356 160.7146759  16.7426796
  59.0360260 159.2273254  16.4110889  58.8712578 159.1983337  15.3340034
  60.0967522 159.3620453  16.6227684  58.6310806 157.8366394  16.9896240
  57.7509155 157.3913422  16.5258064  59.3345566 157.1378479  16.5369377
  58.6809578 157.7774048  18.0768700  57.6325111 162.8513184  17.2415066
  57.0599556 163.5883636  16.3829288  57.4409370 163.0615540  18.5588245
  57.9506721 162.4855957  19.2134552  56.5106201 164.0370331  19.0875702
  55.5461998 163.7127380  18.6966381  56.4155540 163.9995270  20.6485596
  57.3527336 164.3300476  21.0963936  55.6974449 164.7836609  20.8884926
  55.9520531 162.7177582  21.3467617  56.7930298 162.0264740  21.4015102
  55.8101311 162.8814087  22.4150238  54.7370644 161.8862610  20.8018665
  53.7858467 162.3669128  20.1566067  54.6309395 160.6182404  21.1396961
  53.8874016 160.0866852  20.7099304  55.2794266 160.2008209  21.7918644
  56.8730049 165.5313721  18.6535873  56.0410957 166.3910370  18.3672962
  58.2084312 165.7142181  18.4362068  58.8818016 165.1689301  18.9551792
  58.7701225 166.8825836  17.7475967  58.3105431 167.7263947  18.2622566
  60.2290573 167.0246735  18.0382614  60.3959618 166.7422485  19.0777206
  60.8535728 166.4506378  17.3537521  60.8268700 168.4896088  17.9123878
  60.6737099 168.7946320  16.8772049  60.0595093 169.3890686  18.8283539
  60.1735992 169.0421906  19.8553677  60.4939690 170.3886108  18.8121052
  59.0494308 169.6123505  18.4848633  62.3099709 168.5234528  18.2091942
  62.9169655 167.8228302  17.6357899  62.6768303 169.5408020  18.0730629
  62.4210968 168.3568420  19.2806377  58.4013786 166.8434753  16.2445011
  57.8274765 167.7336731  15.7557077  58.7807198 165.8010101  15.5022202
  59.2866020 165.1013489  16.0263081  58.6616287 165.7051849  14.0421371
  59.2504692 166.4979706  13.5807915  59.1936989 164.3110352  13.5607901
  60.1886215 164.0181122  13.8960791  58.6565552 163.6077271  14.1971436
  58.9220123 163.8059540  12.1118698  57.8702774 163.9201660  11.8493509
  59.7849693 164.6770172  11.2134190  60.8219910 164.3494415  11.1401052
  59.5251617 164.4500580  10.1794519  59.6818314 165.7405548  11.4286776
  59.1766853 162.3560028  11.8640661  58.5879898 161.7339325  12.5382853
  58.8772316 162.2389526  10.8225660  60.2160568 162.0570374  11.9998007
  57.1711006 165.8442841  13.6118555  56.8912048 166.2564697  12.4897566
  56.2728233 165.4215546  14.4784746  56.5595589 165.0748596  15.3827353
  54.7893600 165.5323029  14.3317318  54.5052376 165.1537781  13.3498497
  54.1137810 164.7269745  15.4803057  54.8048897 164.3006439  16.2074299
  53.5086250 165.3892365  16.0994320  53.1989632 163.5970917  14.9657383
  52.3002129 163.9992676  14.4981861  53.6567688 162.9090881  14.2549934
  52.7346344 162.8171082  16.2365227  53.5975571 162.3257294  16.6859703
  52.3962517 163.5191498  16.9985809  51.6506577 161.8704681  15.7372704
  50.8773880 162.4336548  15.2148066  52.1517525 161.1579895  15.0819988
  51.0184708 161.2478790  16.9009209  50.8067627 161.9757538  17.5683632
  50.1831703 160.7768860  16.5838394  51.6282310 160.6568909  17.4477444
  54.2036362 166.9754944  14.3175077  53.0873184 167.1179810  13.7799425
  54.8909836 167.9149933  14.9666386  55.7676125 167.6941071  15.4170103
  54.4666214 169.2879486  15.0911951  53.7198105 169.3401947  15.8834324
  55.6521721 170.1645203  15.6289434  56.4988480 170.0081329  14.9605265
  55.3016396 171.6779175  15.5413322  54.2814484 171.9211273  15.8382435
  55.9608994 172.1263580  16.2845573  55.6266785 172.1398468  14.6090918
  56.0707359 169.7721863  17.0893898  56.3052101 168.7078400  17.1067905
  57.0003357 170.2955933  17.3129902  55.0144463 170.1026764  18.1345139
  54.1928940 169.3877411  18.0895653  55.5309448 170.0003510  19.0889034
  54.6951714 171.1355743  17.9955826  53.9139671 169.8578644  13.7581892
  54.4784279 169.7205505  12.7003050  52.8238983 170.6530762  13.8417139
  52.4306259 170.8088684  14.7588663  52.2383194 171.3194427  12.7503624
  52.2580566 170.6284790  11.9075871  51.1883316 171.5211945  12.9623051
  52.9800262 172.5735474  12.4619122  53.3814011 172.7281494  11.3134937
  53.2145233 173.4916077  13.4106970  52.8793335 173.2622986  14.3354483
  53.8397636 174.7967529  13.0488281  54.0952950 174.7879486  11.9892406
  52.8082657 175.8845825  13.4717855  51.8634720 175.7643585  12.9416838
  52.6092567 175.7254639  14.5315866  53.3744392 177.2059326  13.2782030
  53.2545776 177.4342651  12.3534880  55.1582298 175.0917969  13.7831039
  55.2651825 174.6416016  14.9242373  56.0314026 176.0277863  13.2456055
  55.9397469 176.2360077  12.2615623  57.3034134 176.3655701  13.9022055
  57.8769646 175.4555359  14.0781660  58.1101074 177.2312469  12.9621544
  57.4617157 178.0790558  12.7409868  58.9661903 177.6936035  13.4535255
  58.3048820 176.6646881  12.0515690  57.0794945 177.0736542  15.2647877
  57.8670540 176.8882446  16.1692657  56.0410843 177.8280334  15.3737125
  55.4046364 177.8677063  14.5904751  55.5635376 178.4064789  16.6518993
  56.2488480 179.1668396  17.0264606  54.1900139 179.1491241  16.4351768
  53.5711975 178.4495392  15.8732738  53.5650749 179.4408722  17.8712330
  54.1847763 180.0399170  18.5384750  52.6024208 179.9471436  17.7998581
  53.4236107 178.5102997  18.4209099  54.4798126 180.4865875  15.7816124
  54.9868660 181.1523132  16.4800510  55.1346817 180.2699738  14.9376183
  53.2091103 181.1640167  15.2382927  52.5686455 181.5020294  16.0529480
  53.4720345 182.0816193  14.7120171  52.7042046 180.4798737  14.5562916
  55.5292816 177.3493805  17.7416115  56.2733307 177.4256744  18.7142792
  54.7367249 176.2769470  17.5168514  54.2364616 176.1787415  16.6449623
  54.7573624 175.1214294  18.4172573  54.6252670 175.3950958  19.4640427
  53.7530479 174.1137695  17.9777489  54.0691223 173.6639252  17.0365677
  53.8850822 173.2754517  18.6617737  52.2745209 174.4352875  17.9319859
  51.9175720 174.2747192  18.9492893  52.1732292 175.5104523  17.7841721
  51.5373650 173.7746277  16.7908707  51.9103355 172.8328400  16.1079464
  50.2384682 174.1376648  16.6888390  49.7425995 173.6427612  15.9613180
  49.9026985 175.0037231  17.0854626  56.0920792 174.4202271  18.4474087
  56.5092430 174.0101776  19.5276089  56.8412743 174.3112640  17.3374901
  56.3614464 174.5316467  16.4765034  58.0833282 173.5101471  17.4290714
  57.9562149 172.5341187  17.8973885  58.6614647 173.2126770  16.0229721
  57.8097992 172.8391571  15.4544258  59.0356674 174.1379089  15.5847425
  59.7446098 172.0850220  16.0078335  60.6779404 172.5462799  16.3307037
  59.4903755 171.3101196  16.7310143  60.0272560 171.4664154  14.6614981
  60.9950943 170.9685974  14.7211523  59.3046837 170.7202606  14.3310137
  60.2154999 172.5108337  13.5923958  61.0028496 173.1419067  13.6364498
  59.3904152 172.7461090  12.5933437  58.2985840 172.0010681  12.2785501
  58.0942688 171.1064758  12.7005033  57.7974586 172.3456268  11.4721661
  59.6157799 173.7405853  11.7723427  60.4329796 174.3258057  11.8713350
  58.9576607 173.9875183  11.0470839  59.0519218 174.1525574  18.3653278
  59.6459732 173.4834290  19.2637520  59.1596909 175.4758606  18.3217068
  58.5766373 175.9832458  17.6715469  59.9242592 176.3213043  19.2193604
  60.9101830 175.8852234  19.3803005  59.9131317 177.7450409  18.7140865
  58.9027977 177.8790741  18.3276043  60.0322876 178.4947815  19.4962635
  60.9662399 177.8746643  17.5776539  61.1062546 176.9757233  16.9773312
  60.4678230 179.0393524  16.6174126  60.3158836 179.9500885  17.1967087
  61.2640762 179.2263031  15.8969059  59.5351181 178.8592987  16.0828667
  62.2980843 178.3412933  18.1826115  62.5473366 177.5651093  18.9061604
  63.0283165 178.3820648  17.3744049  62.2045898 179.3556213  18.5705223
  59.4377403 176.2749023  20.6432152  60.2652130 176.1510315  21.5314274
  58.1178398 176.2959900  20.8961506  57.5413055 176.3162537  20.0671158
  57.6326141 176.0345764  22.2796955  58.0372887 176.7850189  22.9587994
  56.0815620 176.1889496  22.2142105  55.6223869 175.5719452  21.4418297
  55.7357903 175.8637238  23.1954212  55.7017441 177.6989288  22.1194763
  55.9978447 178.1765747  23.0534382  56.2615585 178.2501526  21.3639240
  54.1643791 177.9517212  21.9225597  53.9525566 179.0203552  21.8870049
  53.8737831 177.6001892  20.9325676  53.4049873 177.2195282  23.0494156
  52.9954758 176.3486786  22.7428017  53.2507515 177.5233154  24.3050022
  53.5690956 178.6836090  24.7674618  53.9493065 179.3671875  24.1285133
  53.2410355 178.9416046  25.6872005  52.7423248 176.6286621  25.1020889
  52.6702309 175.6934357  24.7276096  52.5626183 176.8286896  26.0756397
  58.1025429 174.7066803  22.8173485  58.6267738 174.6258545  23.9063396
  57.9561996 173.6562347  22.0447884  57.4061661 173.7397766  21.2018261
  58.2732430 172.3404999  22.5257702  57.7689934 172.1494141  23.4730434
  57.8446655 171.2785797  21.4508247  56.8049812 171.4022522  21.1477451
  58.5006905 171.4756012  20.6029358  58.2434235 169.6396027  22.0405674
  57.5849304 168.8930054  21.1495800  59.7734604 172.1856689  22.8186321
  60.1839561 171.5576782  23.8315544  60.5477448 172.7493591  21.8988438
  60.1377831 173.2341156  21.1133232  61.9714241 172.8805084  22.1211720
  62.4014206 171.8792267  22.0961304  62.6310539 173.6714020  21.0211830
  62.1467323 174.6385651  20.8865757  63.6480522 173.9181061  21.3260746
  62.6529732 172.9863129  19.6360950  63.3943558 172.1898956  19.7006550
  61.7358742 172.4255676  19.4555359  62.8695946 173.9794769  18.4601650
  63.3243065 175.1182556  18.6428070  62.4545135 173.5542908  17.3153019
  62.3227043 173.4792938  23.4783211  63.2295303 172.9660950  24.1554737
  61.6622467 174.6198883  23.8524418  60.9376564 174.9917450  23.2551174
  61.9177818 175.2719116  25.1381817  62.9933548 175.4376526  25.1997108
  61.2872124 176.6634979  25.1599064  60.2242317 176.6145935  24.9237251
  61.2803841 177.1243439  26.1476707  61.8741646 177.6730042  24.1356335
  62.0649452 177.2156525  23.1647930  60.9174347 178.8216858  23.9113712
  60.7145004 179.3491211  24.8434238  61.4412384 179.4816437  23.2198753
  59.9817390 178.5742035  23.4100437  63.2348862 178.1882019  24.5121384
  63.9437981 177.3741150  24.6631870  63.7486038 178.9012756  23.8673687
  63.0318222 178.7891541  25.3985538  61.4988785 174.5350647  26.3742790
  62.1561623 174.5963440  27.4048862  60.4261932 173.7291412  26.2483387
  60.0226326 173.6703186  25.3243389  59.9101524 172.7379150  27.1856785
  59.7692223 173.2699738  28.1264992  58.5423508 172.2187500  26.6046009
  57.8995628 173.0716858  26.3868275  58.6160851 171.6598206  25.6717243
  57.6738853 171.3680115  27.5436630  58.1451607 170.9656219  28.6179256
  56.4594269 171.2052155  27.2276192  60.9471321 171.6321716  27.5033607
  61.1498032 171.4087067  28.6787128  61.6448097 171.1304169  26.4640999
  61.2548294 171.4230194  25.5795670  62.8033409 170.2398071  26.4956951
  62.4703064 169.4760132  27.1984196  63.1034737 169.5562439  25.0998611
  63.3321114 170.3344116  24.3716545  64.3499451 168.6890411  25.2575493
  64.1571274 167.9126282  25.9978905  64.4240189 168.0995178  24.3437214
  65.2521744 169.2743225  25.4351330  62.0043945 168.5599976  24.5525494
  62.2731972 167.5153198  24.7090473  61.0027313 168.7227478  24.9503918
  61.9230766 168.7675629  22.9990616  62.8732681 168.8270111  22.4683094
  61.3376846 167.9987335  22.4947739  61.3821297 169.6791992  22.7452698
  63.9423294 171.0324707  27.1395206  64.4951248 170.6234894  28.1613350
  64.3835983 172.1718140  26.5875607  63.8886261 172.4462585  25.7510300
  65.5820312 172.9277649  27.0264130  66.4573822 172.2811279  26.9653091
  65.8313141 174.1418915  26.0702209  64.9874344 174.8199005  25.9426670
  66.6643906 174.7574921  26.4095211  66.3391800 173.6450958  24.7191544
  67.2133026 173.0217438  24.9074230  65.5500259 172.9607086  24.4078026
  66.4715576 175.0130920  23.5141029  67.2482224 174.2783051  22.1455135
  66.6223450 173.4410400  21.8367252  67.5807190 175.0284729  21.4280224
  68.1502151 173.7819366  22.5034504  65.4225311 173.3566589  28.4544506
  66.4730988 173.4031219  29.0443859  64.2607574 173.6400452  28.9797611
  63.4136047 173.7815857  28.4483509  64.1773605 174.0190277  30.4081364
  64.8728638 174.8329315  30.6129169  62.7454567 174.5783081  30.6748810
  62.0161743 173.8535309  30.3130016  62.6770859 174.7438660  31.7500629
  62.4782257 175.9772034  30.0346470  63.3827019 176.6680756  29.5540314
  61.2111626 176.4122162  30.0610714  60.9871368 177.3464355  29.7494221
  60.5504608 175.8013000  30.5197201  64.4777985 172.8546600  31.3668861
  65.0794754 172.9421692  32.4582558  63.9400673 171.6809387  30.9646378
  63.4900551 171.7008972  30.0606518  63.8223724 170.4418793  31.7698765
  63.8622284 170.6792755  32.8329659  62.4534225 169.8215027  31.4656506
  62.4250755 169.7988586  30.3762550  62.4093132 168.7984161  31.8390713
  61.3214951 170.7134399  32.1020126  61.4075928 170.5516357  33.1764908
  61.4523659 171.7854156  31.9541988  59.9285774 170.2965240  31.6250935
  59.9497108 169.9743195  30.5840187  59.6656990 169.4321747  32.2349167
  58.8309975 171.3928223  31.8157730  58.8239365 171.7191010  32.8557663
  59.0697098 172.2650757  31.2072697  57.4735069 170.8737488  31.4551945
  57.1778183 170.0654602  31.9837360  56.8010902 171.5774841  31.7248173
  57.4233589 170.7919312  30.4497623  64.9604721 169.4461212  31.5223846
  65.0546112 168.4129333  32.2656555  65.7768250 169.6396790  30.4820843
  65.6240768 170.4107361  29.8478584  66.9462128 168.9362335  30.1639633
  66.8367081 167.8579712  30.2799988  67.3509827 169.4261932  28.7618637
  66.5076447 169.3776703  28.0730057  67.6012115 170.4831848  28.8526859
  68.7749023 168.6215973  28.0379162  68.3115463 167.4073792  27.7282658
  68.0822906 169.2179565  31.2569122  68.4335785 170.3686066  31.5224400
  68.7383118 168.1672821  31.7480335  68.5901642 167.2419434  31.3713245
  69.7506409 168.3442535  32.8282242  70.2370834 169.3013763  32.6400871
  69.1613464 168.4061890  34.2667274  70.0308762 168.5651703  34.9045029
  68.2317200 169.6212616  34.5936356  67.2596207 169.3283844  34.1969490
  68.2502670 169.7497711  35.6758728  68.6629486 170.5220490  34.1569099
  68.4772339 167.2329865  34.5473213  67.8718719 167.0702820  33.8202286
  70.9226151 167.3741455  32.7111816  71.7567673 167.4808197  31.8383293
  70.9365463 166.3011780  33.5333328  70.2321548 166.2608948  34.2560387
  71.7021332 165.0952606  33.3772812  72.7527008 165.3514252  33.5143700
  71.4207306 164.1269989  34.5082474  71.7244034 164.5873260  35.4484520
  70.3555527 163.9003143  34.4623947  72.2260590 162.9351654  34.4693222
  72.1219635 162.5325623  35.3345795  71.4625473 164.3893738  31.9799080
  70.2997131 164.2040558  31.5148411  72.4975510 163.8194427  31.4036102
  73.4159851 163.9132385  31.8132114  72.3526230 162.7831421  30.3218479
  71.2792664 162.6000519  30.2719440  72.6963806 163.3860321  28.9183674
  73.7851028 163.4216309  28.9571476  72.5671921 162.6565552  28.1188240
  72.0534515 164.7505798  28.4309216  71.9856033 165.4693298  29.2475624
  72.7338333 165.4842682  27.2896786  73.0101166 164.8310699  26.4619637
  72.1840591 166.3298950  26.8764496  73.6976929 165.7541504  27.7212296
  70.6493225 164.4085693  27.9371662  70.0900269 163.8365631  28.6774940
  70.0627594 165.2544708  27.5787106  70.8134537 163.6978455  27.1272011
  73.1245575 161.4648438  30.6407261  74.3507614 161.3215332  30.9026585
  72.3873291 160.3278961  30.5760498  71.4164658 160.4594727  30.3306561
  72.8373108 159.0234528  31.1457748  73.8333282 159.0715637  31.5859299
  71.8300095 158.6095886  32.1932755  70.9193497 158.3914795  31.6353970
  72.0451279 157.6125641  32.5776672  71.6752930 159.7998199  33.5414734
  70.8870697 159.1556549  34.4067154  72.9196777 157.9097900  30.0201149
  72.4096069 158.0338898  28.9165859  73.6344757 156.8205566  30.3522701
  74.0891418 156.7509003  31.2514534  73.6018448 155.6097412  29.5219555
  73.8029327 155.8851471  28.4866657  74.7574158 154.6765594  29.9042320
  75.6495819 155.1788025  29.5302067  74.7479858 154.5444946  30.9861603
  74.7133713 152.9830780  29.1203651  73.6501465 152.5116882  29.7778015
  72.2112808 155.0233002  29.6095028  71.7705307 154.7648468  30.7364826
  71.6317825 154.6242523  28.4692154  72.1474228 154.8423920  27.6286030
  70.1978302 154.1648712  28.4205990  69.5193787 154.8589783  28.9165993
  69.7404327 154.0276184  26.9616566  69.9993820 154.9086914  26.3745117
  70.2765045 153.2091980  26.4811020  68.2327652 153.7873383  26.7891922
  68.1034546 152.7773590  27.1781902  67.7191467 154.4705048  27.4656334
  67.8049927 153.8293915  25.3484707  68.5434341 153.2360840  24.8092098
  66.8125076 153.3848267  25.2746983  67.9353790 155.2714996  24.8577271
  67.2849274 155.8333282  25.5280781  68.9690018 155.6147156  24.9017372
  67.3538208 155.4550629  23.4391270  66.4126587 155.1089020  23.3186970
  67.3188019 156.4107513  23.1142693  67.9139023 155.0352478  22.7110100
  70.0761871 152.8126831  29.1618462  69.0896530 152.6132660  29.9257050
  70.9989700 151.8608246  28.9512272  71.8203201 152.1352997  28.4314651
  70.8567352 150.5381012  29.5773582  69.9298630 150.0960846  29.2118092
  72.0014725 149.6733551  28.9601421  71.9359360 149.7846527  27.8778229
  72.9496231 150.0636749  29.3299637  72.0078583 148.1536560  29.2687569
  72.3816452 148.0917816  30.2907906  71.0256424 147.6810760  29.2646503
  72.7951279 147.3162537  28.2647686  73.4358292 147.8459320  27.2826748
  72.8866882 146.0298462  28.4051228  73.3460770 145.5595703  27.6383743
  72.5748978 145.4931488  29.2018967  70.7890167 150.5548248  31.1330566
  70.1686935 149.6875305  31.7294807  71.5028381 151.4844360  31.8339672
  72.1805267 152.0040894  31.2947102  71.4093628 151.7623596  33.2746658
  71.2323227 150.8678589  33.8718376  72.7309647 152.3881073  33.6988373
  72.7870407 153.4234619  33.3626900  72.7889175 152.3686523  34.7871246
  74.2162247 151.4195557  33.2541084  75.0188065 151.9885864  34.1579704
  70.1957474 152.6637878  33.6140480  69.6691208 152.6144257  34.7322655
  69.7668304 153.4551239  32.6133881  70.2040482 153.2355957  31.7297840
  69.0092773 154.7605286  32.7775154  68.9176254 155.1898346  31.7798176
  67.5357056 154.3618774  33.1202736  67.6124725 153.8069000  34.0552597
  66.9189835 155.2482758  33.2688560  66.8700180 153.3892365  32.0985222
  67.0963821 153.6552582  31.0660095  67.2448883 152.4214783  32.4317360
  65.3660049 153.3367157  32.2452965  64.7107239 154.2796326  32.7241592
  64.7059021 152.3519745  31.7570782  63.7079430 152.4982147  31.8099384
  65.1230774 151.5023651  31.4045944  69.5586319 155.7823334  33.7849083
  69.4241867 156.9799500  33.4843330  70.1533203 155.3641968  34.8729477
  70.0217133 154.3924255  35.1146965  70.5771027 156.2183075  36.0016403
  69.8399506 157.0169373  36.0847855  70.3723526 155.4306641  37.3229637
  70.4598846 156.1497650  38.1374245  69.3645935 155.0254517  37.4142227
  71.4461899 154.3755341  37.7200584  72.4140167 154.1561279  36.9894562
  71.1954193 153.5846710  38.6432114  72.0061111 156.8039551  35.9705315
  72.2878036 157.7942352  36.6260986  72.9246826 156.2266998  35.1812668
  72.6270981 155.5271301  34.5163193  74.3271027 156.5740814  35.2473526
  74.5947952 156.7612610  36.2872620  75.2379150 155.4241638  34.8441086
  75.1132050 155.3172302  33.7665596  76.6749268 155.6701202  35.2579498
  76.8590851 155.5189209  36.3215904  77.1440735 154.8964996  34.6500778
  77.0892715 156.6467896  35.0078506  74.9797058 154.1839600  35.4514961
  74.0997314 154.2606812  35.8274841  74.6685791 157.8000031  34.3327484
  74.8721695 157.6698914  33.1472511  74.8262405 158.9909363  34.9420586
  74.4466553 159.0289917  35.8772430  75.2780533 160.1987000  34.3054810
  74.5404739 160.4619446  33.5473442  75.5283890 161.2436676  35.3935547
  74.6336060 161.4353943  35.9857597  76.3782654 160.9128723  35.9905357
  75.9235077 162.6941071  34.8672905  76.7743607 162.6990814  34.1860237
  75.1089020 163.1007843  34.2680206  76.3473129 163.6653442  36.0304375
  76.4088745 163.2427673  37.1809464  76.6445084 164.8558197  35.7700806
  76.6082001 159.9911499  33.5176353  77.5875626 159.5608673  34.0325928
  76.6152725 160.5124817  32.2634964  75.7932587 160.8614807  31.7916889
  77.8353119 160.5904846  31.4613400  78.6737061 160.0772095  31.9322453
  77.6388779 159.6626434  30.2217407  76.5811386 159.5636444  29.9778461
  78.4100189 160.1815033  28.9533424  79.4307785 160.3872070  29.2755985
  78.4200821 159.5119934  28.0932579  77.9969864 161.1619568  28.7162189
  78.1396866 158.2235107  30.4119778  77.9915924 157.6197205  29.5166512
  79.1933212 158.3206177  30.6737404  77.4403763 157.3462982  31.4161224
  76.3752518 157.1976624  31.2386112  77.9725494 156.4106445  31.5876942
  77.3553772 157.9202271  32.3388863  78.2493896 161.9993591  31.2340870
  79.4287415 162.2573242  31.1607895  77.2432632 162.8254547  30.9345722
  76.2928696 162.5303955  31.1071930  77.3939743 164.2713928  30.8961773
  78.1186676 164.5910645  31.6449986  77.9570618 164.6736145  29.5121078
  78.8548126 164.1400299  29.1999779  76.9101791 164.7091064  28.3654175
  76.1859436 165.5235443  28.3824921  77.4038010 164.7036591  27.3936119
  76.2959747 163.8190002  28.5016518  78.4512253 166.0472717  29.5579243
  79.4009094 165.9939575  29.6877956  76.1641464 165.0423889  31.3888912
  75.1160583 164.5197296  31.8390579  76.1995087 166.3788757  31.3943424
  77.0602341 166.8148041  31.0956306  75.1579895 167.3492432  31.8169594
  74.1612320 166.9175110  31.7265892  75.3880463 167.6353912  33.2771988
  75.2710037 166.7333527  33.8778038  76.6284943 168.2744904  33.7473946
  76.6776886 169.2884674  33.3504982  76.7691193 168.2495422  34.8279953
  77.5225754 167.7901917  33.3547401  74.4001160 168.4791718  33.8408470
  74.7924118 168.9419556  34.5848465  75.0523224 168.5927887  30.8883991
  76.0492783 168.9899902  30.2713261  73.9576645 169.3330994  30.9552479
  73.2450409 168.9320374  31.5480461  73.6093597 170.4447937  30.0753460
  73.4163361 170.0003510  29.0989647  72.3185730 171.0474243  30.6900482
  71.4712219 170.3633118  30.7355309  72.5112686 171.3320007  31.7244530
  71.9184723 172.2724762  29.8915443  72.7069626 173.0157166  30.0097942
  71.9068680 171.9743347  28.8431778  70.5689163 172.8808441  30.2748356
  69.9002304 172.0415192  30.0838604  70.6755524 173.1668091  31.3212395
  70.2413177 174.0920563  29.3802261  71.0807037 174.7782898  29.4925385
  70.1330338 173.7939453  28.3373909  69.0400391 174.8137970  29.7686882
  68.9781876 175.0127869  30.7569618  68.9607620 175.7150421  29.3196888
  68.1771393 174.3267975  29.5728893  74.8219681 171.4266968  29.8900833
  75.1293106 171.7495575  28.7509651  75.4305038 171.9509430  30.9649525
  75.0073624 171.7039337  31.8481522  76.3700409 172.9987640  30.9104633
  75.9556961 173.8070679  30.3079205  76.5648880 173.4777985  32.3366127
  77.0247803 172.7227936  32.9742393  77.2794113 174.2965393  32.2516098
  75.3145523 174.1040802  32.9799004  74.4440079 174.7721863  32.3664894
  75.0223923 173.8080444  34.1946449  74.2516403 174.2372284  34.6864090
  75.7248764 173.3327179  34.7429962  77.7267380 172.5982971  30.1580353
  78.4691162 173.4685822  29.7423897  77.8701401 171.2813416  29.9819050
  77.2331543 170.5658722  30.3019581  79.0075607 170.7992706  29.2093296
  79.8693695 171.4090118  29.4806385  79.3605576 169.3214722  29.5763874
  78.5237045 168.6691589  29.3268299  80.1885071 168.9514008  28.9716988
  79.7947311 169.1920013  31.0059147  78.9255829 169.2549744  31.6606750
  80.1642761 168.1685333  31.0695915  80.9629745 170.0889587  31.5794163
  81.7218323 170.7939148  30.8467445  81.2311630 169.9508209  32.7945404
  78.7693634 170.8167114  27.6491261  79.7051620 170.6211548  26.8345490
  77.5128326 170.8406982  27.2189159  76.7447662 170.8855743  27.8732605
  77.0871964 170.9738312  25.8269787  77.5606995 170.1573029  25.2818298
  75.5033646 170.8640442  25.6216240  75.1186676 171.7862396  26.0571270
  75.3118591 170.9551697  24.1056366  75.9422073 170.1994171  23.6370182
  74.3028336 170.7101288  23.7740860  75.5045700 171.9544373  23.7152100
  74.7830048 169.6076813  26.1504459  75.0970764 168.7476349  25.5590324
  75.1638489 169.4451294  27.1587334  73.2510605 169.8202972  26.2231331
  72.7894135 169.8388672  25.2358990  72.8026505 169.0015717  26.7859039
  73.0765228 170.8078613  26.6501522  77.7193604 172.2290649  25.1408939
  77.5061951 173.4078674  25.5253296  78.5040436 171.9616241  24.0504379
  78.5559158 170.9936676  23.7667866  79.1185303 172.8803101  23.1643276
  78.6100388 173.8402557  23.2539024  80.6028900 173.1597443  23.5471058
  80.8793793 174.2066193  23.4218845  80.6772690 173.0487671  24.6288891
  81.6050644 172.2799072  22.8710461  81.9440994 171.0345612  23.4104996
  81.3483429 170.6547241  24.2273197  82.9034348 170.2142334  22.7822189
  83.2074814 169.2890930  23.2491970  83.6511307 170.7345428  21.7336330
  84.4547272 170.1809235  21.2708817  83.2868118 171.9472656  21.1316204
  83.8267059 172.2641602  20.2515659  82.2219467 172.7144012  21.7042007
  81.9639053 173.7024994  21.3528328  78.8834152 172.4795227  21.7094555
  78.4679108 171.3533936  21.4034348  79.0747375 173.5072479  20.8204441
  79.2641754 174.3979187  21.2573872  78.9383621 173.4517365  19.3754463
  78.3593140 172.5826263  19.0632420  78.1501923 174.7021484  19.0152378
  78.5133362 175.6505432  19.4111862  78.0665436 174.7004242  17.9284496
  76.8187408 174.4900513  19.3627148  76.3242645 175.2921906  19.1792240
  80.3120651 173.4066010  18.6096325  81.0260620 174.3851318  18.4000416
  80.6856308 172.1865082  18.3118057  80.2253342 171.3697968  18.6875954
  81.8625031 171.9233246  17.4350605  82.6672211 172.6206055  17.6681271
  82.3929977 170.5395966  17.6484280  82.3863220 170.3435822  18.7206402
  81.6374893 169.9326019  17.1495533  83.8030472 170.2510071  17.0940914
  83.7954636 170.4090424  16.0156384  84.9387894 171.1469574  17.6743488
  85.1272583 170.8872223  18.7160378  85.8523483 170.9373474  17.1179619
  84.7748795 172.2241821  17.6450748  84.1307144 168.7752686  17.3106995
  83.3417892 168.1036835  16.9720821  85.0293427 168.5077362  16.7548332
  84.2523117 168.6197205  18.3826675  81.5180969 172.2234955  15.9198570
  82.3673706 172.6563416  15.1553106  80.1992035 171.9994202  15.5868196
  79.6660156 171.5983582  16.3450756  79.6881027 172.1763611  14.2469540
  80.5181808 172.1712341  13.5405283  78.7391205 171.0097198  13.9045038
  79.2365570 170.0506134  14.0485611  77.8432007 171.1856995  14.4998741
  78.4017105 171.0844727  12.5702419  78.2118149 170.2466888  12.1417027
  78.8898849 173.4944611  14.0779676  78.3966370 174.0526276  15.0590725
  78.6915436 173.9576874  12.8290701  79.2404785 173.4413910  12.1566019
  77.6902695 174.8440094  12.3561115  77.6836624 175.7845764  12.9069042
  78.1326218 175.1971436  10.9364691  78.2415009 174.3179474  10.3014431
  77.2295227 175.5262146  10.4224386  79.3278427 176.1785736  10.7063780
  80.2121964 175.6814270  11.1049643  79.4068985 176.4484406   9.1675129
  78.5497971 177.0066681   8.7908821  80.2259903 177.0870972   8.8368883
  79.4157257 175.5238495   8.5903187  79.1395111 177.5135345  11.4259377
  79.1640167 177.3839874  12.5079327  79.9758224 178.1674652  11.1788120
  78.1766815 177.9909668  11.2439928  76.2679291 174.2566376  12.3239784
  75.2913132 175.0044250  12.3979425  76.0616837 172.9274139  12.4581347
  76.8832626 172.3399506  12.4599228  74.8375931 172.2425995  12.8333960
  73.9249268 172.6870880  12.4364643  74.8574600 170.7869873  12.3504372
  75.7791061 170.2919006  12.6563320  73.9932022 170.2792358  12.7786388
  74.5898895 170.8361359  10.5116034  74.6555328 169.5040741  10.4327993
  74.4854507 172.4333038  14.2975836  73.4721756 171.9044647  14.7767410
  75.2652512 173.2021484  15.1147032  76.0681763 173.6725006  14.7220249
  75.1504517 173.2044678  16.5650139  75.5122528 174.1620178  16.9395771
  74.1019516 173.2575684  16.8581486  75.8142166 172.0415344  17.2804070
  76.7383194 171.5009766  16.7254162  75.3965912 171.6588287  18.4627762
  74.2171097 172.1149445  19.2678528  73.3786850 172.1625671  18.5729580
  74.3870773 173.0873260  19.7300892  74.0143356 171.0964813  20.3661709
  73.5168152 170.1948090  20.0089912  73.3646240 171.5666351  21.1043606
  75.4461136 170.8060913  20.7257710  75.4670563 169.8815155  21.3026867
  75.8576126 171.6393890  21.2953129  76.0849533 170.6259308  19.3158779
  77.1245041 170.9145813  19.4711895  76.0474319 169.2010193  18.8205929
  76.5962677 168.3289795  19.5160942  75.3259430 168.8207855  17.7331409
  74.8659744 169.5986176  17.2820244  75.0160141 167.4559784  17.3530846
  75.9682312 166.9563446  17.5312786  73.8829269 166.9080200  18.2383194
  74.0604858 167.1297760  19.2906475  72.9757156 167.4248657  17.9253731
  73.5744095 165.3987732  18.1226997  73.3576279 165.0971375  17.0979443
  74.3774643 164.7592468  18.4890327  72.1079178 164.9953461  18.9623203
  70.8771591 165.3741913  17.6613770  70.8978653 164.5797577  16.9153500
  69.8842392 165.2472382  18.0927677  70.9222412 166.3671417  17.2140293
  74.6983261 167.3778534  15.8604031  73.9191971 168.2667694  15.3967772
  75.2672119 166.3833771  15.1773310  75.9113541 165.7945251  15.6856918
  74.9726028 166.1068573  13.7402678  73.9479294 166.3887177  13.4979687
  75.9642792 166.9320374  12.9658480  76.9582062 166.5914154  13.2559786
  75.7151947 166.8045959  11.9123697  75.9683914 167.9630127  13.3196754
  75.1775360 164.5929413  13.4643345  75.5746078 163.8493652  14.3470678
  74.7919159 164.2093658  12.2599802  74.3645859 164.9233704  11.6875439
  74.9845200 162.7936859  11.7595701  74.9997177 162.1652374  12.6500368
  73.7254333 162.4423218  10.9075899  73.6444855 163.1421204  10.0758181
  73.8403854 161.4816437  10.4056320  72.8290024 162.3670807  11.5231056
  76.2810287 162.5650482  10.9141111  76.6816711 163.4513855  10.1648378
  76.8379669 161.3562775  11.0315294  76.5606384 160.7833099  11.8156805
  78.0382462 160.8900299  10.3920755  78.2184525 161.4371338   9.4667101
  79.2463989 161.3012238  11.2514563  79.2136002 160.6614532  12.1333466
  80.1454010 161.1541595  10.6528959  79.2991867 162.7758484  11.8576050
  79.7898560 163.9071808  11.1211329  80.1487732 163.8334045  10.1051912
  79.9638519 165.1834412  11.6589918  80.3410339 165.9592285  11.0091505
  79.5091553 165.3941040  12.9378252  79.5081863 166.6936798  13.3902807
  79.8239441 167.3220367  12.7367783  79.0070572 164.3543396  13.7470779
  78.6905594 164.5128937  14.7674170  78.8363037 163.0554504  13.1572266
  78.3261566 162.3188629  13.7602167  78.0070267 159.3690033  10.1497431
  77.1062393 158.6801300  10.5811014  78.9967270 158.7849884   9.4470377
  79.8342361 159.3125763   9.2462444  79.1068802 157.3353424   9.1911039
  78.5280609 156.7433014   9.9000130  78.5031281 156.9008484   7.8233624
  78.7449799 155.8489380   7.6714311  77.0133514 156.9931488   7.7833934
  76.6376572 157.9785309   8.0590200  76.5776215 156.7763519   6.8080783
  76.6353531 156.2350616   8.4693441  78.9605331 157.7139740   6.6634240
  80.0501404 157.6858978   6.6546731  78.5846024 157.2925873   5.7311158
  78.6008148 158.7300415   6.8256459  80.4786835 156.6582489   9.2415333
  81.4562302 157.1731415   8.7339563  80.5173340 155.3672638   9.7210741
  79.6933365 154.9983215  10.1738596  81.6899033 154.4540405   9.5624294
  82.5909805 155.0643005   9.6237326  81.7301788 153.4252167  10.7680044
  82.7014694 152.9327240  10.8143940  81.6022263 154.0214386  11.6714811
  80.6982193 152.3600464  10.7674913  79.8221664 152.3067932   9.9158764
  80.8190994 151.4201050  11.6090603  80.1494751 150.6832581  11.7787056
  81.6364899 151.4540253  12.2013664  81.8338776 153.8001709   8.1500463
  80.9048920 153.9613647   7.3421350  82.9032593 153.0097809   7.7672315
  84.1690750 152.8973083   8.4804268  84.2571564 152.0808563   9.1971922
  84.3591461 153.7827759   9.0869846  85.1809616 152.6484528   7.3435235
  86.0566559 152.0808105   7.6582150  85.5260773 153.5309906   6.8048830
  84.4475708 151.7228851   6.4774823  84.4861603 150.7382355   6.9433966
  84.8705826 151.6488037   5.4756470  83.0494232 152.3969879   6.4846897
  83.1105576 153.2068634   5.7577357  81.9434052 151.3917542   6.1068087
  81.4910889 151.3241730   4.9710159  81.4240036 150.6419983   7.0654683
  81.8918991 150.8432770   7.9376268  80.2779922 149.7008057   7.0669847
  80.3588333 149.0130463   6.2252321  80.3868332 148.9015503   8.3415537
  80.1774979 149.6255798   9.1289968  79.7212143 148.0392761   8.3022900
  81.8105469 148.3602448   8.6079121  82.9074783 149.0463715   9.2066498
  83.9052887 148.1742859   9.2545557  84.8218079 148.3198853   9.8070049
  83.5653305 147.0505371   8.6368008  84.1257172 146.2176514   8.7479963
  82.2272644 147.0684357   8.3452511  81.6812515 146.2853546   7.8402143
  78.8747864 150.4240570   7.0288529  77.8406143 149.7947998   7.2384481
  78.8915710 151.7288055   6.8504338  79.7707596 152.2259064   6.8455224
  77.6997452 152.5483856   6.5695796  78.0555649 153.4863892   6.1433744
  77.0486450 152.0533142   5.8491125  76.7735901 152.8531799   7.7467103
  75.8899231 153.6681824   7.5002513  76.8802261 152.2475128   8.9608002
  77.7938919 151.8558502   9.1394424  76.0974884 152.6081543  10.1460428
  75.0464325 152.3599854   9.9984035  76.6366272 151.8681488  11.3890514
  76.9433975 150.8955994  11.0041876  77.5705566 152.3617401  11.6578722
  75.5900345 151.8063049  12.4864664  74.6455078 150.7556763  12.4596128
  74.8623810 149.8914337  11.8493156  73.5268097 150.7092743  13.3182573
  72.7936859 149.9172058  13.2789154  73.3611603 151.7660065  14.2245646
  72.2047882 151.7163544  14.9158764  71.6280441 150.9643097  14.7629318
  74.3302231 152.8290100  14.2997313  74.2030869 153.5613708  15.0832462
  75.3623962 152.8772583  13.3643665  76.0551758 153.7037811  13.3068037
  76.0645828 154.1383057  10.4657068  77.1272354 154.8090210  10.4724531
  74.8646851 154.6711273  10.7484951  74.0761871 154.0407257  10.7796059
  74.6521149 156.1096191  10.9476023  75.4928360 156.5736084  10.4318514
  73.3602829 156.6656952  10.3059998  72.4856033 156.2146606  10.7746401
  73.3638382 158.1560364  10.7041769  74.2716904 158.6034241  10.2995176
  72.5510788 158.6668701  10.1878834  73.2697296 158.3487854  11.7728624
  73.3579254 156.4432220   8.7769604  73.5570145 157.3095398   8.1461105
  74.1960449 155.8010406   8.5063162  72.1500778 155.6698608   8.2468004
  71.3153915 156.3707733   8.2584009  72.3623047 155.4101410   7.2096872
  71.9906921 154.7910004   8.8715343  74.8018036 156.3756409  12.4629974
  74.0251770 155.9012756  13.2627420  75.6471863 157.3469238  12.7402382
  76.3319550 157.5206604  12.0184278  76.1014862 157.7544403  14.0692024
  75.5234375 157.1643677  14.7803717  77.6231842 157.4037628  14.2558279
  78.1949158 157.8391876  13.4362888  77.9750443 157.8984222  15.1611500
  77.8600616 155.9183807  14.3764629  77.3380508 155.0880127  15.3980236
  77.9032593 153.9130859  15.1575260  77.6154251 153.0415649  15.7267427
  78.7537918 153.9414215  14.1364784  79.3211441 153.1503448  13.8673697
  78.7537079 155.2348633  13.6174393  79.2695389 155.5851746  12.7356253
  75.8198471 159.2130127  14.2375221  76.3483963 160.0321808  13.4732256
  74.9645920 159.5502472  15.1636848  74.5914154 158.8578491  15.7972708
  74.5801315 160.9488525  15.5057535  74.9092636 161.6813660  14.7687378
  73.0978699 161.1554565  15.7316151  72.6137543 160.3522644  16.2871399
  73.0102310 162.0495605  16.3488617  72.2340698 161.4552917  14.4617548
  72.7826996 162.2675934  13.9850206  72.1965485 160.5883331  13.8021488
  70.7830429 161.8650360  14.8509369  70.1863022 161.3212280  15.7555161
  70.2427063 162.7670898  14.1406727  75.2870789 161.2743073  16.8135033
  74.8589325 160.7495422  17.8535995  76.3223343 162.1973419  16.8597679
  76.6237488 162.7046051  16.0400581  77.1637039 162.3213043  18.0457916
  76.8711853 161.6490631  18.8524055  78.7093582 162.0432129  17.8408833
  79.3003159 162.5498352  18.6039047  78.9778671 160.5580750  17.7048836
  78.4403458 160.1294708  16.8590298  80.0326385 160.3872681  17.4895077
  78.7418594 160.0476990  18.6386471  79.1326447 162.6851959  16.6971874
  80.0702438 162.5278625  16.5639381  76.9748917 163.6854095  18.6548100
  77.1340103 164.6786804  17.9312954  76.7226181 163.7724457  19.9483681
  76.6265640 162.9118042  20.4681416  76.5833664 165.0156403  20.6511440
  76.2185440 165.9006805  20.1298847  75.6689606 164.7758331  21.8555851
  74.6350098 164.7258606  21.5141907  75.9565506 163.8356323  22.3261414
  75.7135086 165.8245392  22.9460087  76.7784958 165.9717407  23.1255226
  75.0568008 167.0827026  22.4479122  74.0232010 166.8863983  22.1629086
  75.2468185 167.9115448  23.1298332  75.5856705 167.4188538  21.5560589
  75.0632782 165.4509277  24.2687645  75.5962143 164.6051483  24.7032089
  75.1923752 166.2568054  24.9912510  74.0296860 165.1604156  24.0806503
  78.0046921 165.3369598  21.1542091  78.7011108 164.4283295  21.6400318
  78.3799667 166.5919342  21.0303669  77.7344894 167.2693024  20.6500683
  79.7350998 167.0615997  21.4519711  80.3310547 166.1496582  21.4879227
  80.4106064 167.9524841  20.3719597  81.3873291 168.3678284  20.6201439
  80.6829681 167.1327972  19.0830669  79.6754303 166.9055023  18.7347908
  81.0970917 167.8477020  18.3720684  81.3584213 166.2794342  19.1433563
  79.5360947 168.9541321  19.9591961  79.5253754 169.6815338  20.5855923
  79.7600708 167.7424011  22.8054123  78.9785614 168.6780548  23.0935955
  80.5974350 167.2895050  23.7428074  81.1841583 166.4772797  23.6157417
  80.7574463 167.8094635  25.1272411  80.3577805 168.8229675  25.1613922
  79.9740753 167.0523834  26.2150764  80.1986465 167.4830017  27.1909008
  78.4311066 167.2226105  25.9897861  78.1575851 166.6023560  25.1362247
  77.8422394 166.8313599  26.8193932  78.1893692 168.2518463  25.7245827
  80.3732071 165.5566711  26.2923088  81.4429626 165.4543457  26.4746628
  79.9273224 165.0957947  27.1737099  79.9203720 165.0710602  25.4278946
  82.3108978 167.9236298  25.4116764  83.0292587 167.0325317  25.0379581
  82.7830963 168.9202728  26.1548443  82.1865692 169.6215363  26.5701656
  84.1777878 169.0214233  26.7123451  84.8952942 168.9273071  25.8972130
  84.2660751 170.4206085  27.4104557  83.5146179 170.4955139  28.1964607
  85.2229843 170.5133057  27.9241028  84.0939713 171.5809479  26.5031471
  84.9254532 171.7289276  25.3891506  85.6155777 170.9284058  25.1670914
  84.8335342 172.8989563  24.5957298  85.4773865 173.0976715  23.7517033
  83.8566055 173.8354492  24.9119663  83.7920074 175.0156708  24.2179871
  84.5045853 175.0122833  23.5746975  83.0132446 173.6887817  26.0594826
  82.3558426 174.5132751  26.2927971  83.1666641 172.5587463  26.8982334
  82.6016541 172.4610596  27.8134499  84.5217972 167.9497375  27.7057285
  85.6941147 167.5783386  27.8286953  83.5273438 167.4992828  28.5224152
  82.5977402 167.8824310  28.4268265  83.8193665 166.5729675  29.6419296
  84.7505112 166.0231171  29.5050659  84.0000458 167.5062103  30.9113560
  84.7969818 168.2234955  30.7151909  83.1236572 168.1534271  30.9452839
  84.1699982 166.8424072  32.2713203  83.3033981 166.2280121  32.5154915
  85.0664749 166.2299194  32.1749916  84.3913422 167.8865356  33.3114853
  85.2298050 168.5186920  33.0191307  83.5347137 168.5503845  33.1948242
  84.6694412 167.2502899  34.6963120  84.6119385 168.0006256  35.4848442
  83.8830338 166.5395355  34.9502678  86.0816498 166.7189941  34.8296852
  86.8431396 167.3167725  34.5417824  86.3150024 166.4876556  35.7847366
  86.1288376 165.8850708  34.2618408  82.7582703 165.5086365  29.8300152
  81.5763245 165.7821045  29.7550659  83.2472763 164.2667999  30.0367489
  84.2303848 164.0845184  29.8939762  82.4489670 163.1239471  30.5105305
  81.4316101 163.4730988  30.6871433  82.3559189 162.0113068  29.4435902
  83.3606491 161.5901794  29.4794083  81.4791107 161.3694000  29.5287247
  82.2615891 162.5518188  28.5017509  82.9199905 162.5352936  31.8602886
  84.1158676 162.3546753  32.0629997  81.9698792 162.1178589  32.7423058
  80.9833145 162.2300110  32.5573273  82.2910690 161.6835785  34.0814056
  83.2708969 162.1034546  34.3088570  81.2702942 162.2500763  35.1265411
  80.2724457 161.8401489  34.9704742  81.6211395 162.0044861  36.1288910
  81.1960754 164.1201019  34.9733124  82.4299316 164.4035339  35.4001198
  82.4462814 160.1970367  34.1330910  83.5670776 159.8127594  34.4785957
  81.3488159 159.4348450  33.9200249  80.4843292 159.9291840  33.7515526
  81.3876572 158.0005951  34.0376511  82.2630997 157.7371674  34.6312103
  80.1502838 157.5619049  34.8437195  79.2083969 157.8223572  34.3609085
  80.1619949 156.4799805  34.9757347  80.1795654 158.0924225  36.3011398
  80.9194641 157.6176300  37.1552238  79.3767929 159.0728149  36.5922661
  79.2710342 159.3443146  37.5593262  78.7236710 159.3319092  35.8667259
  81.4763260 157.2052765  32.7292442  80.6445312 156.2900085  32.4817848
  82.5660782 157.4553833  31.9544716  83.1504517 158.2672424  32.0940475
  83.0018692 156.6058655  30.8423462  82.2323761 155.8789215  30.5824547
  83.2435913 157.3689880  29.5558281  84.0588684 158.0733337  29.7210674
  83.5282745 156.6480408  28.7894688  82.0092087 158.0157928  28.9882584
  81.4908218 158.5720673  29.7692375  82.2439270 158.9940186  27.9172173
  82.3906326 158.4714966  26.9719429  81.3162308 159.5030670  27.6557770
  83.1100616 159.6136322  28.1495743  80.9941254 157.0148010  28.4585209
  80.6634674 156.2865295  29.1990547  80.0693207 157.5486908  28.2398643
  81.3165054 156.5042725  27.5510330  84.3601761 155.9847717  31.1441536
  85.2164612 156.5671234  31.7992706  84.6207275 154.7444916  30.6239109
  83.8656998 154.5047607  29.9973545  85.9497757 154.1981659  30.4445496
  86.7626572 154.7801514  30.8788700  86.0496826 152.8095551  31.0535622
  85.2943726 152.1592712  30.6122704  87.0185471 152.4115143  30.7519512
  85.9225159 152.8222809  32.5875473  85.9210815 153.8618774  33.2083168
  85.7605743 151.6134033  33.1175423  85.6064987 151.5928345  34.1155090
  85.8585815 150.8414459  32.4736595  86.3150101 154.1723785  28.9409027
  85.4933548 154.4019012  28.0561924  87.5997009 153.9361725  28.7612457
  88.0949478 153.6087646  29.5783405  88.3276978 153.9476624  27.5016804
  87.7182388 154.3254089  26.6807232  89.4744568 154.9611206  27.5090942
  90.0373459 154.4731445  28.3047962  89.9372330 155.0248413  26.5242710
  89.2152710 156.3914948  27.9320278  88.7951202 156.3946075  28.9377937
  90.5177460 157.1383057  27.8696556  91.0065689 157.0524445  26.8992004
  90.4469910 158.2008362  28.1022739  91.2901230 156.6979065  28.5002098
  88.3230133 157.0228271  26.8770714  87.3617249 156.5090637  26.8683987
  88.1349258 158.0781555  27.0745049  88.8508453 157.0132599  25.9234428
  88.7945786 152.5168457  27.2045727  89.3250351 151.8799133  28.1366196
  88.6984711 152.0917969  25.9339066  88.1904297 152.6882172  25.2965031
  89.4761276 150.9922485  25.3295898  90.2469025 150.6966400  26.0413609
  88.5779495 149.7481995  25.1646633  89.1111603 148.8484802  24.8575859
  88.1605530 149.5852051  26.1583023  87.5648880 150.0729828  24.2093582
  86.7682266 150.0421906  24.7441216  90.1491394 151.3683319  23.9894886
  89.8287430 152.4004211  23.3337269  91.0702057 150.4961395  23.5613518
  91.3056488 149.6776886  24.1043339  91.8100357 150.6979218  22.3190899
  92.2305527 149.7290497  22.0497475  91.1425934 151.0469971  21.5311966
  93.0312729 151.6243439  22.4998646  93.6138763 151.7861786  23.5624599
  93.4120407 152.2119751  21.3704147  92.8530731 152.0721588  20.5408955
  94.3676682 153.3837738  21.2608051  94.4457092 153.8509521  22.2425156
  95.7875671 152.9821167  20.7189846  95.7358093 152.6298676  19.6887703
  96.5268555 153.7775421  20.6248455  96.5209351 151.9565887  21.5891418
  95.8415298 151.1049194  21.6232128  97.4559097 151.7108459  21.0856285
  96.7999268 152.3661804  23.0656567  97.3667221 153.2964783  23.1031094
  95.8761292 152.5148163  23.6247673  97.4536285 151.2263947  23.7510853
  98.4280853 151.0854492  23.5259933  96.8824615 150.1870117  24.3826084
  95.6843109 150.1946564  24.7919617  95.1244965 151.0132751  24.6007366
  95.1912766 149.4300079  25.2305164  97.5457306 149.1264954  24.7402096
  98.5021362 148.9855042  24.4477749  97.1587448 148.4700928  25.4031429
  93.8656616 154.4142914  20.2448540  92.8749619 154.1439056  19.5962944
  94.4123383 155.6784821  20.2453747  95.4388885 156.2096863  21.1896076
  96.4865265 156.0177612  20.9578400  95.2763214 155.7432709  22.1612663
  95.1893311 157.6838074  21.2763577  96.0939178 158.2901459  21.3231449
  94.5112610 157.9351044  22.0919342  94.4647369 158.0005188  19.8978748
  95.2397156 158.2407379  19.1699963  93.7302094 158.7921753  20.0457268
  93.8724060 156.7093658  19.4215298  92.7966995 156.7170868  19.5972691
  94.1127090 156.4154816  17.8711166  95.1993484 155.9045410  17.4675598
  93.2181396 156.7470093  16.9883022  92.2864685 157.0214386  17.2653885
  93.4924622 156.7645721  15.5070114  94.5206070 157.0960541  15.3616562
  93.3358841 155.3385010  14.9063206  93.8299484 154.5940399  15.5306559
  92.2730713 155.1161041  14.8111315  93.8687439 155.3395538  13.5605955
  93.7541656 154.4788971  13.1510534  92.6573563 157.7454834  14.7811661
  91.6460800 158.1760864  15.3673229  93.1667786 158.2787323  13.6236448
  94.1196213 158.0664215  13.3645859  92.5351334 159.3063049  12.7749672
  91.8352509 159.8843994  13.3783512  93.5789032 160.2786102  12.1386127
  93.0727081 160.9864197  11.4821968  94.2819748 161.1800385  13.1310091
  94.9029465 160.5278320  13.7451248  94.9830475 161.7903595  12.5617056
  93.6312866 161.8398590  13.7048788  94.5769730 159.5063171  11.5322981
  95.1241150 160.1089935  11.0233583  91.8418350 158.5970612  11.6159315
  91.1564941 159.3672638  10.8877249  91.9957199 157.2953796  11.3871326
  92.5549850 156.7290802  12.0089283  91.3593750 156.6967468  10.1678333
  91.8390350 157.1730194   9.3127403  91.4834442 155.1626434  10.1560116
  91.0381165 154.7412872  11.0572510  90.8996887 154.7798462   9.3188705
  92.9249420 154.5050201  10.1015673  93.4181824 154.5440674  11.0727978
  92.6733017 153.4619598   9.9097118  93.8583298 154.8769379   8.9805527
  93.4726868 154.9252777   7.7942595  95.0727539 155.0180054   9.2810755
  89.8641052 157.0693207  10.1047173  89.1614075 156.8108063  11.1460943
  89.4234467 157.6476593   9.0020170  90.0994415 157.6981964   8.2533054
  88.0344696 158.0970306   8.7806330  87.8882904 158.5673828   7.8082662
  87.3027267 156.6692810   8.6561689  88.0231171 155.9105530   8.3504353
  86.9012527 156.4248352   9.6396122  86.1839981 156.6735382   7.7151332
  84.9132004 156.4277039   8.1603022  84.1196594 156.3393402   7.0831628
  83.0463943 156.2278137   7.0377045  84.8835678 156.4869843   5.9814186
  84.5893173 156.4543304   5.0157843  86.1800003 156.6518555   6.3661466
  87.0908813 156.6540833   5.7858992  87.4211960 158.9920502   9.8815222
  86.1784821 159.0915833   9.9335499  88.1935043 159.6000061  10.7739286
  89.1598663 159.3080597  10.7420807  87.6352005 160.5700989  11.7706709
  87.0289459 160.0706024  12.5263662  88.8571625 161.2381287  12.4690895
  89.4504166 160.4825745  12.9841375  89.4510345 161.9182281  11.8584347
  88.2526932 162.0047455  13.5465975  88.8910217 162.5621643  13.9976349
  86.7458420 161.6558075  11.1904049  87.1149139 162.3869019  10.2852602
  85.5857773 161.9235077  11.8236237  85.4511719 161.5386963  12.7476931
  84.6063004 162.8971100  11.2891293  84.5964432 162.7386017  10.2107563
  83.2471161 162.4795685  11.9786072  83.3208694 162.6739655  13.0485916
  82.4751434 163.1334839  11.5729256  82.7579880 161.0780182  11.7274208
  82.6942902 160.4732666  10.5471954  83.1385956 160.9228821   9.6715012
  82.1963348 159.1515198  10.7009897  82.1987915 158.4749603   9.9510880
  81.7752304 158.9066925  12.0020943  81.2775192 157.8334503  12.6851749
  81.0110703 156.9067078  12.1987953  81.1246033 157.8885345  14.0723343
  80.9477615 157.0043640  14.6668043  81.4488831 159.0950928  14.7579432
  81.3227158 159.2454224  15.8199615  81.9798050 160.1433868  14.0329027
  82.2997360 160.9971161  14.6118574  82.1850815 160.0995026  12.6679192
  85.0226974 164.3495941  11.6192570  84.3415451 165.2709808  11.1782036
  86.1093216 164.5555267  12.4167976  86.6170654 163.7143860  12.6508141
  86.7164993 165.8458099  13.0313597  86.1863708 166.7088165  12.6285067
  86.3238297 165.8473511  14.5454845  86.8915329 165.0659943  15.0507498
  86.5994720 166.8111420  14.9735651  84.8743210 165.6512604  14.7910337
  84.0117493 166.7000732  14.4224815  84.3410416 167.6549835  14.0402460
  82.6363831 166.5828705  14.6472979  81.9807129 167.3627625  14.2891302
  82.1235504 165.4780426  15.3259182  81.0559235 165.4271088  15.4808207
  82.9506454 164.4279022  15.6904802  82.5589371 163.5346375  16.1541958
  84.3064575 164.5585327  15.4511738  84.9303665 163.7542572  15.8121338
  88.2098389 165.9830933  12.6461906  89.1010132 165.4585876  13.3146811
  88.5863724 166.6220703  11.4566994  87.6944275 167.0034485  10.4300394
  87.3425751 168.0266571  10.5617447  86.8475418 166.3709564  10.1639080
  88.5443497 167.0663452   9.1085949  88.1730652 167.7858582   8.3788385
  88.4944687 166.0710602   8.6669712  89.9114914 167.4733124   9.7128210
  90.1252060 168.5309753   9.8669853  90.6880493 167.1772614   9.0075502
  89.9751511 166.7367249  11.0361519  90.3009186 165.7161407  10.8351717
  90.9054108 167.3382416  12.0231476  90.7142868 168.4464264  12.5149984
  91.9693146 166.6616058  12.3713875  91.9558487 165.6742249  12.1592550
  92.9430313 167.0303955  13.3531332  93.9085999 166.5859833  13.1117296
  93.0954132 168.1023560  13.4788170  92.6180496 166.5277252  14.7680359
  93.3463593 166.8990936  15.6902399  91.6102142 165.6798096  14.9827366
  90.9336090 165.5691833  14.2410669  91.3338623 164.8717651  16.1177597
  92.0594940 165.1419067  16.8849506  89.9698334 165.4300232  16.6199837
  89.2844238 165.3124390  15.7806406  89.5301971 164.8242645  17.4123745
  89.9998398 166.8491211  17.1212921  90.4675293 167.0466156  18.4283295
  90.5294266 166.1629639  19.0461712  90.5722198 168.3125458  18.9198017
  90.8316422 168.4317932  19.9613800  90.2847900 169.4081879  18.1253071
  90.5369568 170.6713867  18.5133171  90.6819382 170.6639862  19.4622784
  89.7386398 169.2418823  16.7996235  89.4147110 170.1799469  16.3735847
  89.6316376 167.9328766  16.2861233  89.2754745 167.7908936  15.2764750
  91.4048920 163.4062500  15.8466110  90.7558517 162.9594574  14.8988008
  92.0290909 162.6179962  16.7751160  92.5270386 163.1021271  17.5084362
  92.1056137 161.1833191  16.8916016  91.9512939 160.8117371  15.8785763
  93.4315491 160.7379608  17.3738670  93.5015106 161.2218628  18.3480663
  93.4029312 159.6551666  17.4955673  94.2141190 161.1056366  16.7101669
  91.0192261 160.7014465  17.8412189  90.8471527 161.3157654  18.8727570
  90.2100906 159.6870880  17.3989372  90.3656845 159.2137604  16.5203819
  89.2218628 159.0721130  18.2049694  88.8999939 159.8382111  18.9103718
  88.0507507 158.6671753  17.2750225  87.2604599 158.2093964  17.8699951
  87.6428146 159.6370850  16.9904919  88.3398438 157.9519806  16.0058460
  88.4192657 158.4921265  14.7770882  88.0732117 159.4997406  14.5999537
  88.8028030 157.5894623  13.8133841  88.8617859 157.7465668  12.8174219
  89.1678848 156.3734283  14.4409990  89.6495514 155.1642914  13.9606533
  89.8558350 154.9524689  12.9219160  89.9302673 154.1360474  14.8909340
  90.3405228 153.2248230  14.4813366  89.5801849 154.2820435  16.2350216
  89.7436752 153.5190582  16.9817009  89.0522537 155.4988098  16.6922550
  88.8319321 155.6340027  17.7408638  88.8580170 156.5745850  15.8105354
  89.8010254 157.9070587  19.0369015  90.7599869 157.2235107  18.7298241
  89.1062546 157.5700989  20.1247158  88.5034180 158.2981720  20.4805069
  89.4469681 156.3683777  20.9501724  89.8292160 155.5432434  20.3492203
  90.5635147 156.6541290  21.9724960  91.4776382 156.8992920  21.4317608
  90.3317566 157.8704681  22.8373947  89.4904785 157.7047272  23.5103664
  91.1801682 158.0038300  23.5085964  90.1095428 158.7824402  22.2832699
  90.7056427 155.5963440  22.8055134  91.4052200 155.8355255  23.4178734
  88.1175385 155.8753967  21.5811596  87.3299026 156.6418610  22.1041660
  87.7781677 154.5189209  21.4107819  88.5162506 153.8997498  21.1075172
  86.4475250 154.0270233  21.7977219  85.7129364 154.5322876  21.1706676
  86.3163071 152.5060730  21.6712666  87.1480408 151.9738922  22.1328888
  85.0718307 151.9180298  22.3728638  84.1668777 152.4470215  22.0739975
  84.8903427 150.8482513  22.2691040  85.1541519 152.1121521  23.4422722
  86.2257996 152.0572815  20.1891308  85.5910339 152.6203308  19.5049152
  87.2010651 152.3612823  19.8089504  85.9860840 150.5508728  19.9182835
  84.9236679 150.4708405  20.1484261  86.2023315 150.3549194  18.8680725
  86.6153946 149.9374542  20.5630894  86.2219467 154.4175262  23.2890606
  87.0326767 154.1305237  24.1806469  85.0913620 155.0349731  23.5407028
  84.5484238 155.3086090  22.7342014  84.4214554 155.2360229  24.8858814
  85.1458435 155.0170288  25.6703587  84.0468826 156.6837311  25.0274525
  83.4334793 156.9904633  24.1802540  83.5405350 156.8993683  25.9683094
  84.8672485 157.3983307  24.9608135  83.2413177 154.2560730  25.1119270
  82.3326874 154.0082703  24.2835884  83.1179199 153.7977753  26.3568039
  83.7576370 154.1812286  27.0378609  81.9649963 153.0120544  26.8459797
  81.1556702 153.2502899  26.1558132  82.4381638 151.4977112  26.7918491
  83.3811111 151.4829712  27.3384094  81.8016052 150.8836060  27.4288521
  82.7435303 150.8674316  25.3883400  81.7623291 150.7413330  24.9306850
  83.2619019 151.6074982  24.7786655  83.6537933 149.6145477  25.5425625
  84.8396835 149.6228180  25.3042984  83.0908585 148.5165863  25.9807396
  83.7084503 147.7707214  26.2677612  82.1106033 148.4151154  26.2018661
  81.5756302 153.4426117  28.2195950  82.3953171 154.0082855  28.9479866
  80.3455811 153.1121674  28.6537514  79.7624435 152.6328430  27.9827061
  79.7869415 153.4217377  30.0151215  79.7657166 154.4966736  30.1944561
  78.3659286 152.8468628  30.0897980  77.7025757 153.3276520  29.3708458
  78.3575897 151.7867889  29.8362274  77.6157455 153.0550232  31.7493572
  76.3462524 152.7995148  31.4207439  80.7307663 152.8630524  31.1303558
  81.3392563 151.8227081  30.8714542  80.7721405 153.3391266  32.3686676
  80.4286346 154.2887115  32.3881607  81.6208420 152.8395081  33.4841042
  82.5228806 152.4305420  33.0289497  81.9895935 154.0871582  34.2835312
  82.4660645 154.8678436  33.6905632  81.0690155 154.5495300  34.6397018
  82.8725204 153.6727753  35.3975563  82.4006729 152.9297333  36.0404854
  83.7138977 153.1173859  34.9831276  83.3839722 154.9449768  36.0361176
  82.5950546 155.6100159  36.3874512  83.8890610 154.5930786  36.9356499
  84.3433304 155.6524353  35.2479477  84.8922424 155.1284637  34.5814247
  84.8096695 156.9050751  35.4545670  84.4039078 157.6856079  36.4380646
  83.6410446 157.4088898  37.0393677  84.7748032 158.6246490  36.4649734
  85.8072205 157.3833618  34.7545242  86.1994171 156.7394409  34.0824738
  86.3476410 158.2181244  34.9312363  81.0208740 151.6563110  34.1958389
  81.6503296 150.6508026  34.5547409  79.6703262 151.7842102  34.3308296
  79.2692413 152.6440735  33.9845963  78.8309250 150.8481293  35.1251602
  79.4575806 150.5574799  35.9683266  77.6503601 151.5736389  35.8442764
  77.0110931 152.0690002  35.1134796  76.7903290 150.5731659  36.6393394
  77.4423904 150.0296326  37.3230591  76.0095978 151.1084137  37.1797829
  76.2765884 149.8303070  36.0291443  78.1400604 152.7943878  36.7792015
  78.4396362 153.6487732  36.1722641  77.2148819 153.1047211  37.2648239
  79.2447586 152.4898224  37.7275391  80.1930847 152.3020782  37.2240181
  79.3161850 153.3799438  38.3525887  78.9947433 151.6853790  38.4192467
  78.5589752 149.5183716  34.3881149  78.4879379 148.4774323  35.0280685
  78.4083633 149.5292664  33.0665207  78.4429092 150.4131470  32.5789986
  78.0574646 148.3816376  32.2831612  78.0937805 147.5024414  32.9264259
  76.5975037 148.4908600  31.7755318  76.2009583 147.5235138  31.4671764
  75.9798508 148.8229370  32.6099892  76.3898926 149.6547699  30.4869232
  75.7383728 150.5864716  31.1886158  78.9800034 148.0408325  31.1291904
  78.8273621 146.9503326  30.5566826  79.8445511 148.9314270  30.5879841
  80.0372162 149.7741547  31.1102619  80.5485611 148.6009521  29.3586807
  81.4797592 149.1619568  29.2796783  80.7244644 147.5252838  29.3682251
  79.8586044 148.7948761  28.0159893  80.4276199 148.4529724  26.9782887
  78.6345520 149.3067017  27.9661388  78.1907043 149.6084137  28.8217468
  77.9704819 149.5850067  26.6237526  78.0453033 148.6739044  26.0301189
  76.5330811 149.9589539  26.9226933  76.1131210 149.1125488  27.4661293
  76.5163193 150.8989868  27.4741859  75.8309250 150.1905518  25.6210079
  75.8952942 149.3854218  24.7298775  75.1898422 151.3696136  25.4599800
  75.0214996 151.7239838  24.5292912  75.1920700 152.0572510  26.1997433
  78.7448654 150.6620941  25.8499641  79.3735275 151.5832214  26.3869095
  78.8017654 150.5281982  24.5372639  78.3625793 149.7089996  24.1421280
  79.3347321 151.5533295  23.5856609  80.3535767 151.7898865  23.8924370
  79.3907700 151.0606232  22.0971889  79.8340836 150.0649109  22.0854797
  78.3816147 150.9878387  21.6917057  80.1198654 152.0389557  21.2280254
  79.5666504 152.7064819  20.1174335  80.5155258 153.4939575  19.6563931
  80.3703842 154.0899048  18.7674770  81.6712723 153.3763580  20.3317528
  82.5167847 153.8874054  20.1218987  81.4476395 152.4562531  21.3068352
  82.2008133 152.2054596  22.0391140  78.4930420 152.8673859  23.6666050
  77.2870026 152.8665314  23.4617405  79.1639252 153.9845886  24.0184517
  80.1476898 153.9040527  24.2325211  78.7090454 155.3790131  24.1200104
  77.6486053 155.3358612  23.8715820  79.0425110 155.9189606  25.5305176
  80.1189346 155.9947662  25.6843872  78.6612549 156.9234772  25.7140579
  78.5447998 155.1343384  26.7494030  78.9967117 154.1437531  26.8005638
  78.7740173 155.7484741  27.6202621  76.7010422 154.9297180  26.7017708
  76.0200043 156.6182404  26.7233372  76.2154922 157.1192932  25.7752705
  74.9613876 156.4696655  26.9363213  76.5528564 157.2009888  27.4747066
  79.3156357 156.3285522  23.0662518  79.0752258 157.5071869  23.0778313
  80.1859894 155.7917328  22.1692371  80.2701645 154.7855530  22.1945267
  80.8770752 156.5437012  21.2012806  80.6942139 156.0990753  20.2230282
  80.5283127 157.5697937  21.0847073  82.3646698 156.6961975  21.3962822
  83.1068192 155.7111206  21.4913769  82.8620911 157.9503326  21.3685417
  82.1224518 158.6334686  21.2888031  84.3081207 158.3051605  21.3167400
  84.9743881 157.4798737  21.5678825  84.6226349 158.6698303  19.8699856
  84.1243591 159.5769958  19.5281315  85.6924438 158.8707733  19.8130932
  84.1747437 157.6250153  18.9137974  84.9500275 156.5322876  18.5304890
  85.9882126 156.4076233  18.8007183  84.1974487 155.5966034  17.9159470
  84.6006088 154.7750397  17.4886341  82.8995819 156.0415955  17.7243004
  81.7839737 155.4626160  17.1336308  81.8260422 154.4572601  16.7413483
  80.5476761 156.2289886  17.1063614  79.6377563 155.7679901  16.7515202
  80.4938812 157.4825897  17.6669426  79.4854584 157.8634949  17.7331963
  81.6373444 158.0674591  18.2672329  81.5708313 159.0158997  18.7795296
  82.8855743 157.3711700  18.2617416  84.6814957 159.4341736  22.2609310
  83.9535522 160.4104156  22.2566185  85.8885269 159.2847595  22.8566856
  86.4149704 158.4306183  22.9724751  86.7165756 160.4102325  23.2076130
  86.1426315 161.2906342  23.4967041  87.6699066 160.1120148  24.3662834
  87.1300049 159.6094971  25.1688194  88.4772644 159.4705505  24.0130234
  88.2667694 161.3422699  24.9683208  88.7303009 161.9859314  24.2207069
  87.4714127 161.9199371  25.4392719  89.3525696 161.0642700  26.0950489
  89.0632858 160.2190094  26.7195225  90.2836990 160.9120026  25.5492363
  89.4654160 162.3363342  27.0083332  89.8489304 163.1477814  26.3898163
  88.4693832 162.6248474  27.3441563  90.4424591 162.2599945  28.1283627
  91.3057709 161.7934418  27.8893375  90.8296661 163.1437073  28.4270611
  90.0473480 161.6896515  28.8623199  87.4617233 160.7944641  21.8930321
  87.9323044 159.9193573  21.1778202  87.6085434 162.1046448  21.6621113
  87.0184021 162.7879486  22.1147976  88.5297012 162.7614746  20.7594223
  89.0689087 161.9688416  20.2406769  87.7049942 163.7006378  19.8710194
  87.2179871 164.4055328  20.5448475  88.3389435 164.2904663  19.2089615
  86.8179169 162.9052887  18.9751396  87.3233414 162.5651703  17.6887531
  88.3243561 162.8200226  17.3734245  86.4969482 161.9439240  16.7433491
  86.9126740 161.8022766  15.7566805  85.1641693 161.6219635  17.0444336
  84.5228348 161.1281738  16.3294144  84.6585159 162.0051727  18.3208656
  83.6327667 161.8251495  18.6069603  85.4782181 162.5813293  19.2951126
  85.0422516 162.8210602  20.2536831  89.7175827 163.4669189  21.4832973
  89.5456924 164.0060730  22.5826283  90.9321899 163.4401703  20.9093266
  91.0559845 162.9516296  20.0340500  92.1850357 164.0924072  21.3744907
  91.8491974 164.9066162  22.0166416  93.1326218 163.1865997  22.1906738
  94.0796356 163.6855621  22.3963242  92.4988098 162.7943726  23.5120602
  91.6015472 162.1988831  23.3434677  93.1990891 162.2212830  24.1197529
  92.2292557 163.7405548  23.9812813  93.4265442 161.9534149  21.4334335
  94.0341873 162.1569519  20.7186337  92.8674164 164.6563568  20.1160622
  92.9287872 164.0312195  19.0625019  93.3850555 165.8341675  20.2566643
  93.3866653 166.3192291  21.1425591  94.0252533 166.5358124  19.1851482
  93.3493271 166.5600739  18.3303738  94.1587982 168.0220184  19.5452576
  95.0241699 168.1566010  20.1941967  94.2841415 168.5538788  18.6021194
  93.1990509 168.4183655  19.8767738  95.3537598 165.8612823  18.8170719
  96.1046295 165.3810272  19.6971569  95.7366638 165.8147430  17.5267773
  95.0132065 166.1139069  16.8886604  97.1276169 165.5400085  17.0504780
  97.5268631 164.7702026  17.7108517  97.1704788 164.8792725  15.6839056
  98.1321716 164.4004364  15.4995766  96.1609802 163.6982727  15.5490856
  95.1552887 164.0400543  15.3043756  96.4942551 163.0765076  14.7181664
  96.2364197 163.1952667  16.5131340  96.8391876 165.8390656  14.7201939
  97.3149567 165.6740112  13.9028816  98.0851440 166.7343445  17.0885754
  99.2762375 166.5564117  17.3656483  97.5899048 167.9905548  16.9562225
  96.5864182 168.0852356  16.8918839  98.3440628 169.2544556  16.8504963
  99.4009323 168.9991150  16.7734146  97.8921127 169.8600922  15.5054674
  96.8141556 169.7521362  15.3852482  98.1518936 170.9160309  15.5804033
  98.7716675 169.4113922  14.3238058  99.8259659 169.5466309  14.5651693
  98.6507111 168.3723145  14.0175638  98.4268646 170.2887726  13.1030941
  98.3234329 171.3059692  13.4808788  99.2270355 170.0979614  12.3879576
  97.0862885 169.7832336  12.4875917  97.0596771 168.6935577  12.4898643
  96.2415695 170.1103516  13.0938444  96.8701477 170.2029419  11.0740547
  97.4862213 169.8087463  10.3775139  95.9675827 169.8750610  10.7610407
  96.8657150 171.2114868  11.0201426  98.2524719 170.0729828  18.1267605
  97.1276550 170.2479553  18.6869469  99.3822479 170.5970612  18.5863724
 100.1622238 170.3646545  17.9882736  99.6234894 171.2228699  19.8778381
  99.3334045 170.4394226  20.5779457 101.0902863 171.3743134  20.1570110
 101.2689285 171.6534729  21.1954060 101.6251068 170.4727173  19.8583965
 101.7461929 172.5693665  19.4069614 101.6170731 172.4708099  18.3291340
 101.4080429 173.5285339  19.7990856 103.2276077 172.5540161  19.6845131
 103.4088135 172.6117401  20.7577953 103.7098312 171.6366577  19.3468628
 103.9867020 173.7352295  19.0645695 103.4123154 174.6548767  19.1760139
 104.9158325 173.8871765  19.6138649 104.2914886 173.5151367  17.6286678
 103.4456711 173.1191711  17.2440948 104.6007385 174.2452240  17.0030174
 104.9776306 172.7858734  17.4965115  98.8950119 172.5224762  20.1640644
  98.9419479 172.8882904  21.3420906  98.3209534 173.1610413  19.1587124
  98.4123001 172.7269897  18.2513237  97.7908630 174.5474091  19.2324047
  97.9449158 174.9295807  20.2415180  98.6259918 175.4488831  18.2588177
  98.1657944 176.4282837  18.1280479  99.5684586 175.6984863  18.7462082
  98.9102707 174.9518890  16.8198051  98.3669891 173.8676910  16.4734249
  99.5361786 175.7145081  16.0243797  96.3451080 174.6975250  18.9011745
  95.7051697 175.7514038  19.0505295  95.7220001 173.6246643  18.4104118
  96.2586288 172.8140564  18.1364746  94.2691269 173.5489655  18.1875477
  94.0178680 174.4013062  17.5562973  93.7947922 172.2133484  17.5195713
  94.0247040 171.3909454  18.1969986  92.7418900 172.2437439  17.2392616
  94.5504150 172.0559387  16.2190838  94.5971680 172.9383392  15.5808878
  95.5395584 171.8201294  16.6116428  93.9476700 170.6574860  15.1677923
  92.3140640 171.1924744  14.4891157  92.3687134 172.1656952  14.0012884
  91.9602127 170.5209351  13.7068624  91.6653595 171.1914825  15.3650608
  93.5194473 173.7093201  19.4987679  94.0087280 173.0525513  20.4298935
  92.3813248 174.3557281  19.5965710  92.0317001 174.9105988  18.8284664
  91.5833969 174.4845276  20.8385086  92.0693817 173.9136810  21.6297512
  91.6160965 176.0133057  21.2422791  92.6297455 176.1987610  21.5975533
  91.4586945 176.5552673  20.3097515  90.6164322 176.3984070  22.2218437
  91.0601730 176.8521881  22.9421043  90.1316299 174.0206451  20.5471001
  89.5509109 174.4784698  19.5566101  89.4698486 173.1998596  21.4143448
  88.0780029 172.7955322  21.2650013  87.8846817 172.3834534  20.2745857
  87.5081482 173.6497498  21.6305943  87.8356400 171.6838684  22.3097382
  88.1130295 170.6968842  21.9395676  86.8107681 171.6944275  22.6807346
  88.8175049 172.1043549  23.4126740  89.1113281 171.3179626  24.1079063
  88.3096313 172.9180450  23.9304543  90.0457611 172.6284943  22.6319828
  90.5322571 173.4432373  23.1682873  90.9979401 171.4465790  22.4387550
  90.9084015 170.8543701  21.3757935  91.8137283 171.1050262  23.4376125
  91.7360229 171.6774597  24.2660904  92.8053131 169.9169769  23.3640079
  93.3538437 170.1163177  22.4434204  93.7885971 169.9745331  24.6212482
  94.2373276 170.9600983  24.4970989  93.1371002 169.9545288  25.4948902
  94.8499680 168.9394379  24.6855049  95.3472137 169.0475464  25.6494331
  94.4365005 167.9312134  24.6602573  95.9299622 169.0371704  23.6111565
  95.8202515 169.6776276  22.5709591  97.0758133 168.3797302  23.8523922
  97.8091278 168.4612885  23.1626854  97.1663437 167.7615051  24.6459332
  92.1124649 168.5597992  23.2984581  92.7046890 167.5564270  22.9108067
  90.8773270 168.4884949  23.8368835  90.3824844 169.3484039  24.0260677
  90.0775986 167.2960815  24.2503967  90.2913437 166.4693298  23.5729713
  90.4676971 166.9327393  25.6991539  89.7955704 166.1358795  26.0175190
  91.5234299 166.6660767  25.6499405  90.3483124 168.0411530  26.7512054
  90.8089752 168.9715424  26.4191380  89.2860336 168.2785645  26.8086700
  90.6888657 167.5522614  28.1886349  90.2830734 168.2398834  28.9306583
  90.3175964 166.5379333  28.3348751  92.1769104 167.5164642  28.4079380
  92.5720291 166.8489838  27.6421375  92.6222916 168.5057678  28.3030643
  92.5488815 166.8106537  29.7039833  92.1976166 165.8692780  29.8065891
  93.5490570 166.8960114  29.8155651  92.2296677 167.3977661  30.4612827
  88.5895004 167.5804749  24.1590881  88.0652313 168.6577759  24.5247345
  87.8640518 166.5370026  23.7507687  88.3487549 165.7007904  23.4576778
  86.3984833 166.4656677  23.8392258  86.0666428 166.8115082  24.8181915
  85.7048645 167.4356079  22.8278637  84.6631393 167.6014404  23.1024685
  86.2022095 168.3967133  22.9582958  85.7466202 167.0866699  21.3812752
  86.8276367 167.6076660  20.6140022  87.5001984 168.3642426  20.9903908
  86.9810715 167.2787323  19.2909698  87.7395172 167.6649017  18.6261101
  86.0587769 166.3929138  18.6989059  86.3036804 166.0699768  17.6978359
  84.8986359 166.0294495  19.3908710  84.1210938 165.4505920  18.9146709
  84.7470856 166.4068909  20.7132072  83.8401413 166.1305695  21.2304077
  85.8572998 165.0705719  23.7511806  86.6085587 164.1400452  23.5029221
  84.5796051 164.8884277  23.8480225  84.1027374 165.7348175  24.1243038
  83.8895264 163.6477356  23.6631794  84.5927963 162.9504852  23.2078171
  83.4210587 163.0121307  24.9834633  82.4981003 163.4824677  25.3226547
  83.1436615 161.9723816  24.8100910  84.3779602 163.0202942  26.1040707
  84.7500992 164.1249237  26.8115044  84.3106766 165.0945435  26.6294098
  85.6712799 163.8280945  27.7522373  86.1362457 164.4549866  28.3932648
  85.8271790 162.4281158  27.8241005  86.5813446 161.6153564  28.6715679
  87.1280441 162.1203918  29.4541702  86.5980072 160.1741180  28.4440365
  87.1017532 159.5105743  29.1313095  85.9019165 159.6903992  27.3231792
  85.8672104 158.6486969  27.0402508  85.1997986 160.5649719  26.4621925
  84.6733704 160.1197357  25.6308975  85.1259460 161.9544373  26.7009773
  82.7464905 163.8102112  22.6545391  82.0256348 164.8213196  22.7105389
  82.6922913 162.9051208  21.7187290  83.2538223 162.0698547  21.8031025
  81.5908737 162.7753143  20.6971188  80.9402542 163.6318359  20.8736782
  81.8924789 162.7692566  19.6496906  80.7696228 161.5225372  20.9795628
  81.1437531 160.4109802  20.7274075  79.6432953 161.7091522  21.6678276
  79.3405228 162.6709900  21.7252159  78.8193741 160.7147675  22.2991295
  79.3609924 159.7824554  22.4589157  78.3827286 161.2420959  23.6658726
  77.7072830 162.0922699  23.5707016  77.8340530 160.4902496  24.2331448
  79.4735718 161.7428436  24.6218643  80.1128998 162.4868011  24.1465931
  78.8634644 162.3694305  25.8889427  78.2983322 161.6229248  26.4470387
  79.6662827 162.6875305  26.5540771  78.1996231 163.1763611  25.5786629
  80.3827362 160.5987396  25.1427441  80.8109818 160.0787811  24.2857971
  81.1869583 161.0200500  25.7459335  79.7635345 159.9593506  25.7719307
  77.4799118 160.3551941  21.5721073  76.9123306 161.3645782  21.1916523
  77.0925064 159.1088409  21.2843208  77.6007843 158.3541870  21.7227783
  75.9715729 158.7537079  20.4515457  76.0224838 159.3391876  19.5335445
  76.0238190 157.2466125  20.0066624  75.0268631 157.0740051  19.6012383
  76.9802322 157.0083160  18.9304485  77.9899673 157.3402405  19.1720371
  76.9632263 155.9815674  18.5649414  76.6938171 157.6341705  18.0852394
  76.3395081 156.4396667  21.1455021  75.7523193 155.6806030  21.1201782
  74.7061996 159.0074921  21.1939793  74.4776840 158.6298370  22.3275223
  73.8572617 159.8297729  20.5242290  74.1444321 160.0576324  19.5831070
  72.6255569 160.4084320  21.0449104  72.8617859 160.6153717  22.0886898
  72.3259430 161.7593994  20.2906113  71.6991425 162.3953400  20.9157600
  73.2964630 162.2342682  20.1467628  71.6301727 161.5781403  18.9482212
  72.2329788 162.1483307  18.2413979  71.5827637 160.5288544  18.6569023
  70.1620941 162.0911407  18.9297657  69.9666901 163.0579376  19.3936939
  69.8391342 162.3879852  17.9319248  69.1941986 161.1445618  19.4229927
  69.1032410 161.1480865  20.4288826  68.5222778 160.1659393  18.7801838
  68.6818085 159.8506165  17.5546722  69.3331451 160.3684998  16.9822598
  68.0193100 159.1808014  17.1905937  67.5998306 159.5013733  19.5059395
  67.2805557 159.7942047  20.4183064  66.9460831 158.8970947  19.0289135
  71.4374847 159.3979492  21.1019287  70.4850235 159.4864349  21.8094978
  71.6446533 158.2552185  20.3602180  72.4428177 158.2777557  19.7417297
  70.9084091 156.9717407  20.4271946  69.8253098 157.0940552  20.4208927
  71.2861710 156.0989227  19.2441025  70.8233185 155.1121063  19.2362938
  70.9028702 156.6235046  18.3688965  72.6854553 155.9056549  19.3266144
  73.0522766 155.3607330  18.6265354  71.1421356 156.2156372  21.7772388
  70.2206802 155.7553253  22.3587799  72.3957748 156.2394562  22.3328457
  73.0787430 156.6879883  21.7391567  72.7500992 155.6270447  23.6642628
  72.0780945 154.7964478  23.8801899  74.1976852 155.0681763  23.5530777
  74.8630905 155.9192657  23.4082451  74.5235214 154.6367645  24.4995518
  74.3172150 154.3824005  22.7143173  72.5237961 156.5898743  24.9006882
  72.4546585 156.0824280  25.9951763  72.3254318 157.8396149  24.7198963
  72.5423508 158.2561646  23.8257256  71.9551163 158.7438049  25.8373756
  72.5403748 158.4279175  26.7009621  72.4480362 160.2527466  25.5203438
  71.9136581 160.5251007  24.6101990  72.1271133 160.8599701  26.3667297
  74.0001831 160.4154358  25.3885021  74.4010620 159.6645050  24.7076969
  74.2810364 161.8425903  24.8443546  73.8083572 162.5304718  25.5454216
  75.3630905 161.9712372  24.8710804  73.8458328 161.9620819  23.8521748
  74.6438141 160.2765350  26.7236328  74.5638962 159.2832794  27.1653996
  75.6992798 160.5098419  26.5834312  74.2002869 160.9930725  27.4149895
  70.4500198 158.7637177  26.2326641  69.6025009 158.6302185  25.4041862
  70.2291641 159.0172424  27.5408955  71.0182419 158.9472504  28.1674423
  68.8749771 159.2353973  28.1829243  68.1607285 159.3215485  27.3640614
  68.4545441 157.9652252  28.9160500  68.5102081 157.1082764  28.2447472
  69.1790161 157.8511963  29.7224312  67.0571976 157.9375305  29.5139484
  67.0231323 158.8542938  30.1025848  65.9326935 157.8778992  28.4805222
  65.9894028 156.9847107  27.8583431  64.8958359 157.9623718  28.8059292
  66.1507645 158.6484680  27.7410793  66.7740250 156.8200226  30.4616947
  67.3753128 156.8853607  31.3684902  65.7288132 156.8968658  30.7612591
  66.8610382 155.8286438  30.0170765  68.8482513 160.4778137  29.1158371
  69.6364136 160.5383606  30.1022301  67.8559265 161.4091339  29.0460491
  67.0798264 161.7150574  27.8851185  66.0903473 161.2796936  28.0246983
  67.5103455 161.2219849  27.0135460  67.0443192 163.2434235  27.7364464
  66.0694733 163.4761200  27.3079224  67.8563156 163.6470184  27.1315556
  67.1468735 163.8116302  29.1159801  66.1367035 164.1541443  29.3403606
  67.8429337 164.6446228  29.2146149  67.6866455 162.6249237  29.9371204
  68.6480255 162.9626617  30.3241520  66.8389816 162.2920227  31.1613159
  65.9092712 163.0093079  31.4528522  67.2100372 161.2859039  31.9773254
  68.0888214 160.8257751  31.7872810  66.5351486 160.9199677  33.2544403
  65.4622269 160.8149719  33.0934219  67.0354691 159.5374908  33.8386497
  66.9888611 158.8129578  33.0256462  68.0985031 159.6984711  34.0179634
  66.2089157 159.2259521  35.1288452  66.3484344 160.0404510  35.8396568
  65.1481781 159.2526855  34.8793869  66.5884628 157.9980164  35.8470993
  67.6709671 157.8704987  35.8522110  66.1923676 158.0494385  36.8612823
  65.9177322 156.8054962  35.2471733  65.6168213 156.8031616  34.2830429
  65.6408081 155.7499695  35.9718437  65.8840485 155.6982117  37.2201462
  66.1793289 156.4939423  37.7676010  65.7489853 154.8544159  37.7585564
  65.1389008 154.6759338  35.4182777  64.8053360 154.7284241  34.4663925
  64.6610489 154.0174408  36.0167351  66.7877121 162.0155334  34.3097839
  65.7945023 162.5485992  34.8160667  67.9729080 162.3471985  34.6231384
