Cpptraj Generated Restart                                                       
   33  4.0000001E-01
  88.4538193 148.6835632  15.0747547  87.0404434 148.4752960  15.3771620
  87.7660294 149.0297546  13.8137693  85.7909470 148.6207733  15.0745678
  86.7089462 149.3368988  13.1762886  85.3186111 149.2097626  13.7809229
  84.3605499 148.3996429  12.9800272  84.3596725 150.4212646  13.7063227
  83.7188034 149.4734344  13.1241150  84.2673874 151.7087860  14.0528049
  83.0956879 152.6271820  13.8175821  85.3835373 152.3321228  14.7696609
  83.5675659 153.7510681  14.2608089  85.0067749 153.5890045  14.8403997
  84.2891006 154.8418732  14.8745251  84.8552780 156.1051788  14.5906334
  85.1608582 156.6674957  13.2445183  84.7990723 157.1013031  15.3940477
  85.1492157 155.9683380  12.2472057  85.3244858 158.1149597  13.1387558
  84.8951874 158.2932587  15.3172541  85.2177429 159.1826935  14.1464882
  85.5037155 160.3572998  14.0529728  85.6314468 158.3898773  12.2131348
  88.1856766 147.4701996  14.4997578  87.8902512 142.4674072  13.1803999
  88.5957260 144.0403595  13.4626446  87.9330139 145.0959167  13.9304619
  89.8933716 144.3346100  13.2704697  86.5529099 145.0413361  14.1223993
  88.7297287 146.2451172  14.1419115  90.7269897 145.1909943  13.2649899
  90.1862640 146.1641388  13.7515640
