Cpptraj Generated Restart                                                       
 6188  4.0000001E-01
  90.4784164 180.2948761  24.6296158  91.4548111 180.2610626  24.3734531
  90.3813705 179.3556213  24.9880829  90.2761688 180.9014740  25.4114285
  89.6212234 180.5806122  23.3998928  88.6218185 180.4467621  23.8138733
  89.7789459 182.0691071  22.8909054  90.7549820 182.1478119  22.4120922
  89.1281281 182.3323364  22.0570946  89.5871506 183.1901550  23.9380951
  88.6823196 182.9395599  24.4917850  90.4606247 183.0340881  24.5711861
  89.5476303 184.9621277  23.5210724  87.7142258 185.0430908  23.2694435
  87.3624268 184.9170380  24.2933826  87.3967438 186.0543823  23.0153236
  87.3055191 184.3228760  22.5606785  89.6901474 179.4448547  22.3580265
  90.7242584 178.7895050  22.1344414  88.5504913 178.9870148  21.7975636
  87.7527237 179.5399170  22.0767746  88.4351654 177.9570312  20.6893539
  89.0083923 177.0824890  20.9970531  86.9697952 177.5230103  20.5474815
  86.3306580 178.4044647  20.4960556  86.8616409 176.6739044  19.3136044
  87.3972702 175.7499542  19.5316219  85.8196716 176.3917542  19.1626091
  87.2784882 177.1894684  18.4484291  86.4400558 176.6808319  21.7539539
  85.4562607 176.3112640  21.4647064  86.9991226 175.7463837  21.8022270
  86.2965927 177.4077911  23.0929012  85.5962524 178.2420044  23.0514793
  86.0086975 176.5909424  23.7546997  87.2708740 177.7929382  23.3938084
  89.0836639 178.5450287  19.4295025  89.0585938 179.7238922  19.1521778
  89.7408981 177.7656555  18.6169853  90.0009995 176.8736115  19.0128517
  90.3723221 178.1904297  17.3387566  89.9621506 179.1387329  16.9914722
  91.8795013 178.4855804  17.5057411  92.2414169 178.7134247  16.5031452
  91.9210587 179.3415222  18.1793442  92.7352295 177.2709808  17.9893494
  92.6337967 176.1014252  17.5815125  93.5434799 177.4974976  18.9611969
  94.2501678 176.7969818  19.1343250  93.7900467 178.4061737  19.3267250
  90.1189194 177.2211304  16.2122402  90.4183884 177.6262360  15.1210556
  89.6292953 175.9753876  16.3821335  89.6806412 175.5821686  17.3110294
  89.1683884 175.0138245  15.3684616  90.0068130 174.6775208  14.7585020
  88.5049973 173.8452148  16.0668125  89.2734222 173.2890778  16.6037865
  87.6859818 174.1624298  16.7123260  87.9239426 172.8419342  15.0692406
  88.8233032 171.9103241  14.4924755  89.8923721 171.9695740  14.6337976
  88.3589935 170.9022217  13.6205597  88.9970474 170.1954498  13.1108904
  87.0126038 170.6786652  13.4288530  86.6833191 169.8925476  12.7655334
  86.0971985 171.5902100  14.0279312  85.0398178 171.4239044  13.8840981
  86.5661469 172.6832886  14.8201160  85.9114456 173.4263763  15.2509089
  88.1391983 175.7838135  14.4620609  87.2425308 176.4363098  14.9870052
  88.2753525 175.7249908  13.1384020  89.0897827 175.2589722  12.7647390
  87.2334671 176.1203461  12.1752462  86.8344269 177.1063080  12.4134989
  87.7880325 176.2924347  10.8059902  88.6233368 176.9926910  10.8047972
  88.1124344 175.3052826  10.4767284  86.8403778 176.8460693   9.7429237
  85.7239990 177.3353729  10.1569700  87.2408905 176.8831482   8.5630379
  86.0231094 175.1980591  12.0791588  85.9815140 174.0383148  11.5341597
  84.8735123 175.7592010  12.5467186  84.8473969 176.7336121  12.8112001
  83.5957642 175.0903473  12.7799692  83.7435989 174.2077942  13.4023352
  82.6301041 176.0243225  13.5444012  81.6224213 175.6107788  13.5849085
  83.1219864 176.2026672  14.9564638  84.1792145 176.4435730  14.8454733
  82.5965042 176.9954834  15.4888182  83.0136261 175.2430878  15.4620085
  82.6729507 177.3565216  13.0756121  82.0169678 177.9486694  13.4506578
  82.8598633 174.6737518  11.5481606  81.9268112 173.8924561  11.5410204
  83.3866119 175.0171051  10.3651114  84.1867905 175.6321869  10.3266191
  82.9033585 174.3945618   9.0559254  81.8234177 174.2765045   9.1447563
  83.1143799 175.3657227   7.8592186  82.4743652 175.0346069   7.0413866
  82.8040009 176.3746948   8.1307287  84.4415054 175.3289795   7.4113626
  84.9647598 175.6524811   8.1483564  83.4167557 172.9687500   8.7386398
  82.7565689 172.1906433   8.1191549  84.5628204 172.6198730   9.3257780
  85.0721817 173.3631287   9.7820988  85.1706390 171.3083191   8.8937187
  85.2570114 171.3601685   7.8083811  86.5626678 171.2236023   9.4587240
  86.5611954 171.5170593  10.5084763  86.9557190 170.2070770   9.4762707
  87.6069946 172.2153778   8.7928696  87.3217697 173.2570190   8.9401922
  88.9333649 172.1066437   9.4930639  89.2090302 171.0589752   9.6134815
  89.7026062 172.6247559   8.9204178  88.8700867 172.5649261  10.4800196
  87.7133179 171.9951324   7.2580810  86.7698975 172.1214142   6.7269387
  88.3937912 172.7278137   6.8242340  88.1046066 170.9922791   7.0870008
  84.3499756 169.9504852   9.0727720  84.6199493 168.9239807   8.3653154
  83.4553146 169.8773956  10.0862522  83.4161682 170.6967621  11.2494173
  82.7702179 171.5499573  11.0422821  84.4141617 171.1119385  11.3899183
  82.9574509 169.8683929  12.4271879  82.5071945 170.5125427  13.1824522
  83.7639694 169.2520294  12.8243217  81.9079742 169.0573273  11.6323175
  81.0182419 169.6853790  11.5871973  81.6667023 168.0961914  12.0862980
  82.5126724 168.7878876  10.2512503  83.0134888 167.8197784  10.2596426
  81.4150696 168.7100372   9.1874084  81.1247864 167.6381073   8.6907043
  80.8568497 169.9051971   8.7968397  81.2264786 170.7986298   9.0888424
  79.6114273 170.0801086   7.9940329  78.9714966 169.2369232   8.2541180
  78.7832565 171.3648071   8.2502441  77.8661194 171.2562103   7.6713066
  78.4197235 171.3511353   9.7238989  79.3670197 171.5184784  10.2364664
  77.6975250 172.1487885   9.8979015  78.0947952 170.3322296   9.9344826
  79.5139618 172.6085358   7.9516311  79.2997742 172.8602905   7.0503321
  79.9670868 169.9564667   6.4278655  79.0875168 169.6409302   5.6001196
  81.2708817 170.1387329   6.1139112  81.8866348 170.4870605   6.8347521
  81.7901230 169.8184052   4.7679415  81.0664368 170.2840424   4.0989294
  83.1753616 170.3860779   4.5851932  83.4203033 170.2227936   3.5356956
  83.0929794 171.4610291   4.7457700  84.0996017 169.7170868   5.4210019
  84.9720383 170.0947571   5.2875609  81.7919769 168.3062286   4.5372233
  81.6068802 167.8629761   3.4052622  81.8417053 167.4054718   5.5776963
  81.8124542 167.8651123   6.4765730  81.9481049 165.9499512   5.6254530
  82.1101990 165.6513214   6.6611400  80.5921783 165.2676392   5.3423696
  80.3714447 165.5220795   4.3057227  80.8546753 164.2101746   5.3736892
  79.4456482 165.5823975   6.2773519  79.1886673 164.8719940   7.4802914
  78.0467606 165.4238434   7.9582000  77.5088577 164.9412537   8.7607956
  77.6120529 166.4666901   7.2180300  76.7322998 166.9337921   7.3852439
  78.5121155 166.5720062   6.1545100  78.4714508 167.2978821   5.3558402
  83.1710205 165.3188324   4.8717251  83.0518494 164.2604980   4.2396259
  84.3286057 165.9417725   4.9207940  84.3308868 166.7708435   5.4976368
  85.5378571 165.5536041   4.1254683  85.4159775 165.8603973   3.0866580
  86.7364807 166.3696747   4.6532135  86.7346115 166.3704071   5.7432122
  87.6818466 165.9499054   4.3094511  86.7397766 167.8402863   4.1796269
  86.6205597 167.8647156   3.0964410  85.8465347 168.2196198   4.6759472
  88.1196518 168.8014221   4.8793192  89.5910721 168.3418427   3.8700342
  89.4241791 168.4621277   2.7996230  90.4678040 168.9225616   4.1567712
  89.7610474 167.2867889   4.0846348  85.9697876 164.0955963   4.2942595
  86.5623322 163.5127258   3.3493423  85.7386627 163.4413452   5.4166880
  85.3076477 163.9605255   6.1682119  86.0543137 162.0433960   5.6970758
  87.1387024 162.0165863   5.5899282  85.6170578 161.6882172   7.1727967
  85.9701920 160.6987152   7.4631128  86.0289154 162.4052429   7.8829732
  84.0866241 161.6730194   7.3324990  83.4680939 162.9019165   7.7301579
  84.0598984 163.7973022   7.8503752  82.0899887 162.9922638   7.9867749
  81.6979065 163.9183197   8.3805809  81.2580490 161.9083405   7.7108479
  79.9688873 161.8958588   7.9228911  79.6591873 162.7987518   8.0252562
  81.8555069 160.6692505   7.2320652  81.2399139 159.7936401   7.0879984
  83.2881241 160.5344849   7.0773110  83.7362976 159.5977173   6.7806449
  85.4123993 161.0765381   4.7339282  86.0379333 160.0297699   4.3208508
  84.1959763 161.4483643   4.2607665  83.7565002 162.2844849   4.6183352
  83.3686600 160.6455688   3.3379734  83.3701096 159.5870972   3.5982206
  81.9829559 161.1330414   3.4290314  81.6645126 161.0666809   4.4693632
  82.0443573 162.2062378   3.2484729  81.0038834 160.3860321   2.4751370
  81.5265884 159.8862000   1.6596347  80.2119598 159.3731842   3.2697828
  79.6082306 159.8550720   4.0387988  79.4263840 158.9601440   2.6370363
  80.9180069 158.6380768   3.6560724  79.9799347 161.3448792   1.8964289
  80.4838867 162.1541595   1.3680532  79.3688507 160.8856506   1.1193912
  79.4165192 161.8119049   2.7042322  83.9687119 160.7907715   1.9490719
  84.3835449 159.7521515   1.3486528  84.2746201 161.9580994   1.5580856
  84.1003952 162.7743530   2.1268399  85.2271042 162.1574097   0.4734688
  86.2346344 161.9989929   0.8580161  85.0351410 161.4045258  -0.2910056
  85.2299500 163.5718842  -0.1033114  84.1932144 164.2818298  -0.1469027
  86.3980255 164.0675659  -0.4795871  87.1827927 163.4435120  -0.3579594
  86.4282837 165.2848053  -1.3244628  85.6840210 165.9559326  -0.8958046
  87.8637085 165.8258972  -1.1796924  87.7875519 166.8544617  -1.5323746
  88.2526932 165.8437347  -0.1616197  88.8432007 165.1994781  -1.9554007
  89.7162476 165.3204498  -1.5749371  86.0585327 164.9704132  -2.8144467
  85.9637527 163.7872009  -3.2196875  85.9690247 165.9980011  -3.6361351
  85.9625473 166.9123535  -3.2071462  85.7330475 165.8509369  -5.0983844
  85.4153519 166.7892914  -5.5530071  87.1178589 165.3570557  -5.7586246
  87.8350601 166.1592712  -5.5849557  87.4225082 164.5099182  -5.1440802
  87.1192017 164.9746399  -7.2687707  86.7237701 165.8022919  -8.0961657
  87.5654907 163.8585815  -7.6229005  84.5240479 164.9182739  -5.4401031
  84.6765976 163.8552246  -6.0667791  83.3179932 165.3710175  -5.0786619
  83.2845078 166.2407532  -4.5662637  82.0551224 164.7766724  -5.4488387
  82.2642136 163.7952271  -5.8744445  81.1825714 164.6557007  -4.1989279
  80.9394836 165.6494904  -3.8229153  80.2804565 164.1648254  -4.5640655
  81.9148941 163.8507690  -3.0975235  82.2708893 162.9338684  -3.5672860
  82.7693405 164.4387054  -2.7623508  81.0801849 163.5178528  -1.5786328
  79.7570267 162.3818512  -2.0233181  80.0443420 161.7835999  -2.8879788
  79.4306183 161.7713318  -1.1814047  78.9254150 163.0415192  -2.2710526
  81.3524246 165.5581207  -6.6005516  81.4725494 166.7952881  -6.6609530
  80.5236359 164.8480682  -7.4498601  80.2510452 163.8969421  -7.2470217
  79.6162186 165.4557190  -8.3768244  80.0674820 166.2584381  -8.9600134
  79.0862122 164.3483887  -9.3321218  79.8027725 163.5450439  -9.5032635
  78.2147980 163.8663940  -8.8889198  78.7520142 164.8673706 -10.7448320
  78.0994263 165.7379150 -10.6787624  79.6785812 165.2253571 -11.1936321
  78.0963593 163.7455902 -11.6126013  78.7280731 162.6900330 -11.7952766
  77.0635681 163.9894409 -12.2730455  78.4618530 166.1297607  -7.5335007
  77.8020859 165.4873505  -6.6746678  78.1805725 167.4419250  -7.7672782
  78.5814133 167.8641510  -8.5925961  77.2221375 168.2991486  -7.1397219
  76.8732758 167.8530579  -6.2083721  77.9207993 169.6094971  -6.7370515
  78.6220932 169.9567413  -7.4958024  77.1792068 170.3441010  -6.4232006
  78.8174820 169.3536835  -5.4337268  78.1702271 169.1585541  -4.5786929
  79.4389114 168.4795380  -5.6281548  79.6950531 170.5942841  -5.0819106
  79.5107803 171.7605133  -5.5910978  80.6756439 170.3767242  -4.3815727
  76.0098267 168.6862335  -8.0208149  76.0998688 168.9541321  -9.2105436
  74.8241806 168.7743225  -7.4108319  74.8787003 168.4936218  -6.4421563
  73.4874496 169.1416016  -7.8827825  73.5696640 169.3137512  -8.9559622
  72.4514771 168.0352478  -7.6826029  72.4534683 167.7908173  -6.6203661
  71.4490738 168.2974854  -8.0210133  72.8268433 166.7707214  -8.4216042
  72.5020905 166.6255646  -9.8068867  72.0068130 167.4196472 -10.3459053
  72.6315613 165.4237823 -10.4537535  72.3076630 165.3973083 -11.4836998
  73.3117828 164.3544769  -9.7376041  73.4081421 163.3536682 -10.1319342
  73.6938477 164.5655365  -8.3789635  74.0205307 163.7407074  -7.7630606
  73.4411621 165.7447815  -7.7301836  73.5842514 165.7817993  -6.6603456
  73.0581512 170.4562073  -7.2832365  73.2812119 170.7570038  -6.1097713
  72.3983154 171.2168121  -8.1238031  72.3208771 170.9218750  -9.0866699
  71.8255692 172.5771484  -7.8478560  72.0741425 172.9232025  -6.8445735
  72.4598694 173.4704590  -8.9063053  72.2670288 174.4796600  -8.5423975
  73.5454712 173.3969574  -8.8418207  72.0420914 173.2684174 -10.3718977
  72.3797379 172.1762695 -11.1370668  71.8921432 172.4818573 -12.3715334
  72.0298157 171.8375549 -13.2272968  71.3260269 173.6619110 -12.4273844
  70.9603500 174.0397186 -13.2897320  71.3923340 174.1965485 -11.1660118
  70.9966965 175.1806030 -10.9622841  70.2640076 172.6645050  -8.0034485
  69.6620102 173.3673096  -7.2258625  69.6197433 171.9072723  -8.9666986
  70.2066193 171.3048859  -9.5259914  68.1843643 172.0025330  -9.2363911
  67.8008881 173.0068970  -9.4161139  67.9111938 171.5385895 -10.1841459
  67.3190460 171.3861694  -8.1265316  67.3694229 170.1695709  -7.9780474
  66.5098190 172.1476898  -7.3314276  66.2563248 173.0966339  -7.5666847
  65.7109985 171.5175323  -6.1799264  66.3498688 170.7949219  -5.6722207
  65.3927307 172.6786194  -5.1787567  64.6471024 173.3432617  -5.6150951
  64.9280777 172.2304993  -4.3004727  66.6503754 173.4505768  -4.6989002
  67.3860779 173.6430817  -5.4797802  66.3468933 174.4136200  -4.2883425
  67.2881012 172.7201385  -3.5127742  66.6269836 172.8062286  -2.6504447
  67.3726730 171.6630707  -3.7648835  68.6846771 173.2264099  -3.2620409
  69.3745804 172.6451569  -3.7162282  69.0060272 174.3520660  -2.6789794
  68.1612167 175.1554413  -2.1658311  67.1938477 174.8657379  -2.1468365
  68.3453064 176.0627136  -1.7620080  70.2165070 174.7762909  -2.7006030
  70.8528900 174.0674133  -3.0361812  70.4519882 175.6961975  -2.3564861
  64.4962387 170.7173920  -6.4956336  63.7147293 171.0343628  -7.3904905
  64.2351990 169.7359467  -5.6219573  64.7597961 169.6476898  -4.7634072
  63.0426979 168.8505707  -5.6998343  62.5657692 168.9511261  -6.6747842
  63.5367813 167.3499756  -5.5849609  63.7910309 167.0978241  -4.5554557
  62.4685593 166.2990417  -6.0587401  62.2579994 166.3516388  -7.1269188
  62.8718796 165.3194580  -5.8021240  61.6002197 166.4142151  -5.4100318
  64.6896591 167.0569458  -6.3569279  64.9367676 166.1802673  -6.0536256
  61.9294510 169.2055511  -4.6352377  62.0807953 168.8679199  -3.4677737
  60.7899246 169.7480621  -5.0265627  60.6979942 170.1009521  -5.9684305
  59.6796761 170.0953674  -4.1374488  59.7897987 169.4297638  -3.2813289
  59.7656746 171.6141357  -3.7133429  59.6435585 172.1104584  -4.6760778
  58.9315643 171.9747314  -3.1113930  61.0479698 172.0386353  -3.0049446
  61.9496498 171.6665192  -3.4913669  61.1100998 173.5563812  -2.8733685
  60.2403755 174.0246124  -2.4124656  62.0403938 173.8771820  -2.4046016
  61.0796661 174.0195770  -3.8595855  61.0765381 171.4770813  -1.6074941
  61.0450821 170.3942719  -1.7285144  61.9815598 171.8336029  -1.1156328
  60.2227135 171.8787842  -1.0618649  58.3130836 169.8381195  -4.8443346
  58.0808296 170.2836151  -5.9951835  57.4739151 169.0584412  -4.1528621
  57.7820358 168.7488098  -3.2422059  56.0970879 168.6344757  -4.4749947
  56.0004234 168.5097046  -5.5535116  55.9321709 167.2515869  -3.8471091
  55.8638840 167.2387390  -2.7593262  54.9644890 166.8615417  -4.1626434
  56.8431816 166.1869202  -4.2468991  57.9066467 165.6908112  -3.4543073
  58.5762863 164.8305817  -4.2134724  59.4134407 164.2196198  -3.9096823
  58.0208473 164.7107391  -5.4331288  58.2651558 164.0380707  -6.1458306
  56.9509659 165.6122131  -5.4688168  56.2577629 165.8325043  -6.2671518
  55.0914764 169.6831360  -3.9757075  55.3883514 170.6351166  -3.1985252
  53.8372879 169.5415192  -4.3709493  53.6206169 168.8676605  -5.0914168
  52.7644806 170.3125305  -3.8400726  52.9926796 171.3774109  -3.7947164
  51.5778542 170.0569916  -4.7569566  51.2000084 169.0412292  -4.6405368
  50.7402992 170.6883698  -4.4603534  51.8711433 170.5177002  -6.2046986
  52.0261574 171.7294617  -6.3828669  51.8490601 169.7355194  -7.1505895
  52.4182091 169.8798218  -2.3848703  52.7168350 168.7428284  -1.9603454
  51.8076019 170.8105469  -1.6334437  51.4844398 171.6249542  -2.1358705
  51.3167534 170.4645081  -0.3245226  52.1779938 170.1230469   0.2497316
  50.8464127 171.7579498   0.3893034  50.2573662 172.4374084  -0.2266958
  50.2304459 171.5157776   1.2553483  52.0233765 172.6121368   0.8691491
  53.1046410 172.0723724   1.1028993  51.8231239 173.8399658   0.9312420
  50.2351074 169.4073029  -0.3615369  49.2865143 169.3995972  -1.1495450
  50.2822075 168.4932251   0.5904586  51.0476227 168.5591278   1.2461241
  49.3424797 167.3298798   0.7946326  49.8978462 166.6788940   1.4698321
  47.9973259 167.8398285   1.3547229  47.6449509 168.5832367   0.6396744
  47.3200722 166.9884949   1.4228833  48.0702820 168.5004883   2.6837296
  48.7155304 167.8805695   3.5848873  47.4889526 169.5986023   2.8962836
  49.1188927 166.4100647  -0.4710296  48.1492844 165.6399231  -0.5818411
  49.9977646 166.4704437  -1.4745400  50.8279953 167.0357819  -1.3686888
  50.0593681 165.4991913  -2.5873539  49.0382004 165.3536530  -2.9396889
  50.8380966 166.0899200  -3.7240593  50.7639198 165.4017334  -4.5660768
  50.3742180 167.0560150  -3.9229834  52.2275276 166.1532745  -3.3635199
  52.4264336 166.9785004  -2.9151368  50.5762177 164.1098785  -2.0652752
  51.3132439 164.0646667  -1.0829663  50.0025673 163.0798492  -2.6375570
  49.1991539 163.2291718  -3.2311320  50.3423347 161.7016907  -2.3594537
  50.7358589 161.6823425  -1.3431522  49.1041756 160.7664948  -2.3603046
  48.4067917 161.1767120  -1.6299101  48.6376266 160.7174988  -3.3441894
  49.3875542 159.1236572  -1.7336984  48.2313232 158.6639862  -2.2202497
  51.4613113 161.2548523  -3.2830956  51.3743248 161.3933716  -4.5088744
  52.5786057 160.7821045  -2.6740587  52.5109978 160.7880859  -1.6663417
  53.7542839 160.3577271  -3.4320273  53.4743004 160.3014374  -4.4839492
  54.9223022 161.3258057  -3.1822841  55.1793251 161.2767181  -2.1241584
  55.7498894 160.8461761  -3.7049332  54.6750336 162.8322449  -3.5010743
  53.9110260 163.1982880  -2.8152115  55.5438232 163.4496460  -3.2727611
  54.2189751 163.0435944  -4.9353065  54.5496635 162.2399139  -5.8132277
  53.5104446 164.0811768  -5.3304458  52.9593430 163.9802856  -6.1708112
  53.2517929 164.7718201  -4.6403790  54.2144737 158.9570618  -3.0707681
  53.9988976 158.5378113  -1.9397573  54.8118553 158.2593994  -4.0590625
  54.8247719 158.6943207  -4.9705319  55.5740776 157.0177155  -3.7962120
  55.3556442 156.8363800  -2.7438290  55.1379738 155.8343964  -4.6487718
  54.0592880 155.7601013  -4.5108600  55.3139229 155.9788666  -6.1461544
  56.3718796 156.1153107  -6.3702445  54.8779678 155.0916138  -6.6053066
  54.8484612 156.9107819  -6.4670758  55.9298286 154.5779572  -4.2999964
  55.5514259 154.1584625  -3.3678267  55.6508789 153.7439575  -4.9440036
  57.0095520 154.6627045  -4.4229226  57.0643845 157.2672272  -3.8629668
  57.5212784 157.8962402  -4.8586698  57.7854233 156.8604584  -2.8395617
  57.3147011 156.5837555  -1.9898843  59.2317047 157.1492920  -2.6718700
  59.6725616 157.4200745  -3.6312556  59.3205948 158.4209900  -1.7320484
  59.0329781 158.0969696  -0.7318591  60.7932014 158.9009094  -1.5880195
  61.1573219 159.4119720  -2.4792702  60.8962517 159.6631775  -0.8157373
  61.4535065 158.0464630  -1.4396151  58.4012451 159.5828094  -2.2594728
  58.6704941 159.7288055  -3.3055561  57.3937378 159.2130585  -2.0689013
  58.4896278 160.9414215  -1.5470090  59.2958069 161.5826263  -1.9034262
  57.5963593 161.5570831  -1.6524730  58.5181160 160.8623505  -0.4602535
  59.9672585 155.9487457  -2.1555896  59.5713348 155.3647919  -1.1240932
  61.0741463 155.4902191  -2.8059251  61.7981071 156.0781250  -3.9720402
  62.1353455 157.0809784  -3.7100456  61.1845207 155.9899902  -4.8686161
  63.0464745 155.2500763  -4.2521462  64.0047531 155.7145233  -4.0195484
  63.0054436 154.9337006  -5.2944121  62.8068619 153.9453735  -3.4484560
  63.7197189 153.4384766  -3.1356316  62.2562599 153.2253723  -4.0538812
  61.9083519 154.3923492  -2.2632029  61.1710854 153.6071777  -2.0957134
  62.7022324 154.7276306  -1.0189769  63.2968102 155.8015137  -0.8558967
  62.6282616 153.7299194  -0.1118406  62.2355995 152.8625336  -0.4488124
  63.2842827 153.7291260   1.1697705  63.6177559 154.7070770   1.5169134
  62.4057999 153.0992737   2.3029633  62.2311554 152.0756531   1.9716123
  63.0913696 152.9308624   3.6164567  63.2406769 153.8954926   4.1015196
  62.4561691 152.3177795   4.2557907  64.1080246 152.5381622   3.5990939
  61.1180763 153.9368591   2.4635291  60.7024841 154.2302399   1.4995217
  60.3419495 153.4152679   3.0235903  61.4439087 154.8373108   2.9842205
  64.5864258 152.9643707   1.0096085  64.5090790 151.8187408   0.5719094
  65.6542816 153.4918518   1.5585262  65.7744522 154.4665680   1.7942849
  66.8494034 152.6591949   1.9051780  66.9506912 151.9836426   1.0557864
  68.0793076 153.4934387   2.0446939  67.9013062 154.1823273   2.8704329
  68.8426590 152.8259888   2.4445739  68.7191925 154.2423096   0.8755237
  67.9788208 154.7744446   0.2782005  69.6859055 155.3299408   1.3195601
  70.2718887 155.0066833   2.1799190  70.3281403 155.6018372   0.4818839
  69.2061691 156.2529297   1.6452265  69.4352341 153.2815247  -0.0185257
  68.6967850 152.6208954  -0.4728212  69.9338074 153.8408966  -0.8101212
  70.1419525 152.6711121   0.5436583  66.6615753 151.8133698   3.2166152
  66.4329071 152.3787537   4.2804017  66.8823700 150.5142822   3.1605496
  67.2258301 149.8035431   1.9206069  68.1477661 150.2597351   1.5600258
  66.4272003 149.8473511   1.1800824  67.4522324 148.3066101   2.3366098
  68.5069046 148.1201782   2.5390975  67.1508255 147.5390625   1.6237873
  66.6518097 148.1679382   3.6351855  67.1970215 147.4256897   4.2181873
  65.6377029 147.9055023   3.3338466  66.6863327 149.6234741   4.2762289
  65.7181244 149.8021393   4.7439408  67.7515335 149.7920074   5.4044104
  67.4879837 149.5327148   6.5618701  68.9997711 150.1451874   5.0853243
  69.3135529 150.2213593   4.1283302  70.0201111 150.5097046   6.1428766
  69.9067078 149.9101105   7.0460577  71.3428268 150.1246948   5.5981970
  71.5592728 150.5923920   4.6377330  72.1373596 150.4842834   6.2520447
  71.3725586 148.5710297   5.4621038  70.8071442 147.7881775   4.4827909
  70.6715775 146.5248871   5.0107117  70.1694260 145.7246704   4.4873676
  71.1483688 146.4958038   6.2506914  71.1933823 145.6578064   6.8126702
  71.5153732 147.7643738   6.5831490  71.8950500 148.1018982   7.5362058
  70.0098267 151.8846588   6.7864666  70.7798996 152.0922089   7.7787743
  69.1148071 152.7937012   6.3527117  68.5143814 152.5372620   5.5821118
  68.8779526 154.0701447   7.0723181  69.8374710 154.5158997   7.3344641
  68.3238754 155.1625671   6.1611876  67.4118576 154.7225800   5.7577853
  67.9376373 156.3830566   7.0254140  68.8133469 156.9133911   7.3995419
  67.4642029 157.1129303   6.3687186  67.1968307 156.0770264   7.7640939
  69.2402039 155.5433960   4.9707270  69.6265182 154.6661987   4.4516926
  68.6520691 156.0670013   4.2170463  70.0577774 156.1577148   5.3479495
  67.9993134 153.6954651   8.3311424  66.8927155 153.3268738   8.0663757
  68.5235291 154.0561676   9.5456104  69.4729080 154.3944092   9.6116886
  67.7801285 153.7303772  10.7677898  66.7481232 153.5821686  10.4498262
  68.3359146 152.4286957  11.4169130  69.4255295 152.4170990  11.3906107
  68.0109558 152.2878113  12.4477634  67.9165192 151.2140656  10.5640764
  66.8471146 151.2857056  10.3657207  68.4296036 151.3153229   9.6077337
  68.4561768 149.6369934  11.2160997  67.7936630 148.4326477  10.0475159
  68.0496979 148.7218781   9.0282526  68.2280655 147.4830170  10.3599157
  66.7127304 148.3392029  10.1521311  67.5207138 154.9176636  11.7122145
  67.1075821 154.6669769  12.8651371  67.7490768 156.1617432  11.2866907
  67.9582214 156.2899780  10.3069382  67.6707764 157.3626404  12.1260815
  67.4214325 157.0647430  13.1445045  68.9970322 158.1082306  12.1686077
  68.9145737 158.9355469  12.8734980  70.1645966 157.2687225  12.6877451
  70.6209793 156.5927429  11.9646540  71.0151443 157.7275543  13.1918745
  69.7051315 156.6743317  13.4774923  69.4572449 158.6048889  10.7782927
  68.6875305 159.2468719  10.3499193  70.3374863 159.2311249  10.9235878
  69.6894455 157.7518463  10.1407232  66.5251617 158.2346802  11.6156340
  66.1425781 158.2304077  10.4418049  66.0186310 158.9988861  12.5111094
  66.1764832 158.7951508  13.4876728  64.9995270 159.9714050  12.2369490
  64.3145447 159.5238647  11.5168047  64.2338486 160.2508392  13.4696732
  63.8398895 159.3284149  13.8963432  64.8018951 160.7753296  14.2379980
  63.0691414 161.1417389  13.1215801  63.3240051 162.1146698  12.7014036
  62.4635086 160.6352997  12.3700228  62.0254250 161.5916748  14.5277147
  61.9031830 160.1348267  15.5487652  62.6968422 160.0494080  16.2910023
  60.9963760 160.3725128  16.1049213  61.8663750 159.2202454  14.9569311
  65.5772934 161.3465576  11.6942530  66.0989609 162.1575470  12.4060144
  65.6303177 161.4367828  10.3368568  65.4212799 160.7022247   9.6759148
  66.1363831 162.6842194   9.8095980  67.0573959 162.8989410  10.3515768
  66.4215088 162.4322662   8.2621946  67.1863632 161.6558533   8.2455282
  65.5039139 162.1351013   7.7544370  66.8828354 163.6152496   7.4689498
  66.2764282 164.4966888   7.6773448  68.3266373 163.8522186   7.7566481
  68.8271637 162.9220428   7.4876580  68.7177582 164.6561279   7.1330819
  68.4441071 164.1390686   8.8016434  66.8135147 163.2583771   5.9403944
  65.7749252 163.1381073   5.6322341  67.2472382 164.0876923   5.3816276
  67.3322220 162.3033600   5.8567290  65.1219482 163.8223114   9.9501009
  63.9964333 163.6811676   9.4648495  65.4675369 164.9421539  10.6056442
  66.3530426 164.9629211  11.0909824  64.5960007 166.1558228  10.5838118
  63.5378647 165.8990021  10.5338421  64.8036118 166.9787140  11.8665895
  65.7659149 167.4617615  11.6970663  63.7940788 168.1468506  11.9541979
  62.7637367 167.7967987  11.8912821  63.9620323 168.5577698  12.9497061
  63.9425354 168.8894043  11.1701889  64.7927704 166.2964325  13.2310276
  65.6813660 165.6651764  13.2307892  64.8812256 166.9877319  14.0691042
  63.6461678 165.4015045  13.5820169  63.5567665 164.5949860  12.8542528
  63.7682838 164.9727478  14.5766821  62.7097397 165.9590302  13.5629244
  64.9701233 167.0427246   9.3554640  66.1739197 167.0658875   9.0450191
  64.0269394 167.7005310   8.6726665  62.5973854 167.4625854   8.7694530
  62.2417145 167.9348297   9.6851912  62.3749809 166.3970795   8.7117500
  62.0268402 168.1234131   7.5122962  61.0271721 168.5146790   7.7011743
  61.9944954 167.4025726   6.6953173  62.9901390 169.2678680   7.2563100
  62.6780281 170.1536102   7.8096066  63.0146370 169.5798492   6.2121983
  64.3600922 168.7027283   7.6586990  64.6949310 168.1582489   6.7757778
  65.3346252 169.7540894   8.0793734  65.5862045 169.9550323   9.2904139
  66.0070648 170.4099121   7.0817156  65.6852493 170.2838440   6.1326962
  67.2672653 171.2457123   7.2339530  67.3780518 171.8516388   6.3346786
  67.0201263 171.8866730   8.0802345  68.5294571 170.4880371   7.5474310
  69.5801544 170.9794006   7.2124600  68.4886017 169.3186188   8.2422295
  67.5430832 169.0438690   8.4672222  69.6230621 168.4538422   8.6676645
  70.2851334 169.0834045   9.2621517  68.9973450 167.4628601   9.7152081
  68.3113098 168.0290222  10.3452110  68.4119415 166.7021027   9.1988182
  70.0562744 166.7530975  10.6271238  70.7872696 166.3141937   9.9480667
  70.5801315 167.4584503  11.2722330  69.3938141 165.6554108  11.5248842
  68.2431717 165.6544800  11.8671446  70.1275864 164.6073761  11.8239918
  69.9451981 164.0148468  12.6213274  71.0643311 164.4476471  11.4817991
  70.3356705 167.7916565   7.5296373  69.6528854 167.2592163   6.6868882
  71.6894073 167.7744751   7.4923429  72.1881027 168.3898163   8.1190500
  72.5052795 166.9475250   6.5279331  72.1010666 166.9206085   5.5160060
  73.9298172 167.4951782   6.4426899  74.5577087 167.1961060   7.2819858
  74.6764908 167.0616150   5.2176089  74.0709229 167.3087311   4.3456340
  75.6289597 167.5861206   5.1413836  74.8370438 165.9865723   5.2988486
  74.0290604 168.9100647   6.5006127  74.9360046 169.1671906   6.6821437
  72.5476456 165.4254608   6.8783727  72.6832962 165.0903168   8.0176802
  72.5623093 164.5431366   5.8359675  72.3642731 164.9430542   4.9299045
  72.6965485 163.0909576   5.8716311  72.8586884 162.9352570   6.9382000
  71.3818283 162.4916534   5.4950647  70.5819855 162.9580994   6.0702004
  71.2447739 162.7242432   4.4390264  71.2841873 160.9492798   5.5369878
  71.7544403 160.4376984   4.6972027  71.8375015 160.3152466   6.7865982
  71.4578629 160.8878326   7.6328297  71.6532745 159.2489624   6.9178128
  72.9209366 160.4335175   6.7698698  69.7980728 160.6206665   5.5530529
  69.3020172 161.0957184   4.7066712  69.6960144 159.5791931   5.2480421
  69.4485397 160.7809753   6.5729704  73.8678894 162.6192322   4.8972387
  73.7044754 162.4910126   3.6737025  75.0489578 162.3223267   5.4536309
  75.3967896 162.4383087   6.8584185  74.6951981 161.8214569   7.4200096
  75.1893158 163.4664764   7.1549363  76.8188477 162.0307465   7.1200624
  76.8219986 160.9775085   7.4007516  77.3076935 162.7507019   7.7764091
  77.3920822 162.1464996   5.6938682  78.2764130 161.5243530   5.5560503
  77.5765610 163.1992035   5.4796686  76.1642761 161.7141113   4.8346567
  76.3631287 162.0722046   3.8245397  75.9324036 160.2197113   4.8804936
  75.4305420 159.6551056   5.8492937  76.2010956 159.5451050   3.7659161
  76.4853210 160.0314636   2.9276001  75.9645081 158.0778656   3.5339625
  75.9125519 157.6545410   4.5370593  74.5726700 157.8486328   2.8690958
  74.4724884 158.5427246   2.0346410  74.6031494 156.8804321   2.3693333
  73.2945633 157.8928986   3.7765863  73.2521667 158.8314667   4.3292203
  72.0930557 157.8710938   2.8142190  72.1897583 156.9894409   2.1806321
  71.1708298 157.9289093   3.3923669  72.0530396 158.7236786   2.1362636
  73.2280579 156.7387238   4.7412052  73.9843140 156.9358521   5.5010314
  72.2296066 156.6579285   5.1709232  73.5346527 155.8094635   4.2610378
  77.0086517 157.3614655   2.6744647  77.4441910 157.8197174   1.6032569
  77.5081787 156.2132416   3.1241596  77.1986389 155.8933563   4.0307813
  78.3376083 155.3164825   2.2510664  78.4096909 155.7405396   1.2495221
  79.7968445 155.3361359   2.7606113  80.2081757 156.3435974   2.6976724
  79.7204056 155.1892700   3.8379619  80.6957321 154.2777710   2.0831294
  80.1982956 153.3238220   2.2581697  80.7700806 154.5100555   1.0207615
  82.1151657 154.1033936   2.6988285  82.4678574 154.7734833   3.6624124
  82.8939667 153.1547546   2.2391891  83.7876053 152.9248199   2.6498418
  82.5955124 152.5521545   1.4856067  77.5638351 154.0283203   2.1043413
  77.2961807 153.2998657   3.0772474  77.2458572 153.6780548   0.8243106
  77.5933456 154.2145691   0.0423201  76.5278549 152.4716187   0.4680270
  76.2324295 151.9744873   1.3919749  75.2784500 152.9596100  -0.3528636
  75.5631790 153.2160797  -1.3732827  74.6351242 152.0843201  -0.4428892
  74.4734573 154.1403656   0.1997867  75.0865707 155.0227509   0.3829971
  73.4289474 154.6403046  -0.7585927  72.9379044 153.7342224  -1.1135641
  72.7333755 155.2736359  -0.2079883  73.8922424 155.1389923  -1.6099308
  73.7887955 153.8791199   1.5246010  74.4597626 153.4574432   2.2729981
  73.2668915 154.7467804   1.9281584  73.0747986 153.0705566   1.3679379
  77.4199600 151.4948883  -0.3368064  77.7930450 151.8853455  -1.5035784
  77.6576462 150.2532349   0.1788145  77.3855209 150.0685425   1.1337683
  78.4611282 149.1593170  -0.3891538  78.8467102 149.3393402  -1.3926595
  79.6565018 148.8802185   0.5734616  80.3523178 148.0984039   0.2690206
  80.2365341 149.8023529   0.6101451  79.1761398 148.3967896   1.9374083
  78.8210602 149.3730164   2.9144673  78.9036484 150.3965912   2.5799506
  78.3631516 148.9784698   4.1725912  78.0050659 149.7040253   4.8879604
  78.3773880 147.5910339   4.5075965  78.0331345 147.2758789   5.4815421
  78.7793045 146.6381073   3.5541828  78.5821457 145.5956573   3.7562294
  79.0641556 147.0290985   2.2315300  79.3372574 146.3672638   1.4229630
  77.6928635 147.8014526  -0.6309459  78.2549286 146.9391022  -1.3183928
  76.4644547 147.6111450  -0.1051233  76.0834885 148.4428406   0.3229490
  75.6299973 146.4743347  -0.4804615  76.1705627 145.5287781  -0.5229825
  74.4925308 146.2920837   0.4864752  74.0615540 147.2715302   0.6939526
  73.6971512 145.6701508   0.0757806  75.0281448 145.7446747   1.7584804
  75.6881104 144.4991455   1.9276654  75.9750443 144.4315491   3.2503273
  76.7099228 143.7747803   3.6919286  75.5258560 145.5296326   3.8381310
  75.6225204 145.7816315   4.8114004  74.9077530 146.3388367   2.9588702
  74.3929443 147.2702179   3.1429713  74.9684906 146.6794739  -1.8445860
  74.5206680 147.8207245  -2.1424534  74.8691711 145.6237640  -2.6956663
  75.1924667 144.2313538  -2.4346919  74.7060852 143.7950897  -1.5622187
  76.2522583 144.0835114  -2.2271252  74.7269745 143.5081329  -3.7068090
  73.6547775 143.3119659  -3.7063506  75.2920609 142.6046753  -3.9360352
  74.8463058 144.5227509  -4.8232012  74.0522003 144.4190674  -5.5626278
  75.8483505 144.5458832  -5.2515388  74.6405640 145.8637390  -4.0965581
  75.3737030 146.5253448  -4.5579405  73.3137741 146.5158997  -4.4133315
  73.2962418 147.5409698  -5.1457968  72.2381439 145.9612732  -3.8523462
  72.2346268 145.1734161  -3.2203839  70.9054413 146.5248260  -3.9534597
  70.6958542 146.5488434  -5.0228539  69.8318558 145.6172485  -3.3169169
  68.8735123 145.9072418  -3.7477152  70.0633698 144.6161804  -3.6807668
  69.7665100 145.4283600  -1.8284088  69.8181534 146.4265137  -1.3935317
  68.7696152 145.0195007  -1.6636747  70.6924896 144.4192810  -1.2028984
  71.6598282 143.9555664  -1.7933170  70.4460373 144.1383209   0.0431922
  71.2478104 143.7636414   0.5298912  69.6048050 144.4968262   0.4720438
  70.8096542 147.9385986  -3.5404506  70.0442429 148.7226257  -4.1735163
  71.5397491 148.4161530  -2.4851451  72.0910263 147.7348938  -1.9830699
  71.6364899 149.8357086  -2.0353584  70.6241302 150.2168274  -1.9012941
  72.2066345 149.9924622  -0.6103280  73.2269211 149.6322784  -0.4784680
  72.1544037 151.0643921  -0.4197582  71.3962708 149.2346649   0.4696782
  70.3614120 149.2370148   0.1274009  71.8126450 148.2289124   0.5262434
  71.5900345 149.9576416   1.8310024  72.7612991 149.9467621   2.2901449
  70.5891647 150.5937042   2.3189342  72.4152756 150.7875519  -3.0014040
  72.0740204 151.9647369  -3.1970050  73.4669113 150.2688446  -3.6374874
  73.8177261 149.3739471  -3.3273594  74.1227570 151.0306244  -4.7051387
  74.3642731 152.0333252  -4.3524785  75.3721237 150.2412567  -5.1168666
  75.1669922 149.1778107  -5.2397742  76.1569290 150.7559204  -6.3148155
  76.6112366 151.6981964  -6.0085373  76.9128799 150.0001373  -6.5279741
  75.4905777 150.8423462  -7.1730757  76.4351349 150.0915222  -3.9551797
  75.9473114 149.8758087  -3.0046029  77.1452103 149.2860107  -4.1423602
  76.9995499 151.0161285  -3.8341339  73.2301559 151.1771851  -5.9614310
  73.1269608 152.2414093  -6.5798869  72.5378113 150.0697632  -6.3328867
  72.6795502 149.1936646  -5.8507547  71.5800705 150.0694733  -7.5221882
  72.1102524 150.2504120  -8.4572096  70.8928452 148.7101288  -7.7059393
  71.6810913 147.9608307  -7.6331406  70.1763458 148.4606628  -6.9233251
  70.3227005 148.7242432  -8.9931173  70.2871323 147.8309631  -9.3429356
  70.4125061 151.1050110  -7.4395928  70.1433334 151.7742462  -8.4365625
  69.7855453 151.2612000  -6.2195206  70.1263275 150.7180176  -5.4391866
  68.7246933 152.2207031  -5.9246416  67.9504166 152.0373840  -6.6696191
  68.1301270 151.9829865  -4.5197258  68.0289459 150.9057465  -4.3877392
  68.8749008 152.2723999  -3.7783477  66.7367935 152.5628662  -4.2218885
  66.1197739 152.1172638  -5.0021577  66.3159180 152.2660675  -3.2612240
  66.5095749 154.3102264  -4.3248720  67.2378235 154.8575897  -2.7332256
  68.3135986 154.6821594  -2.7277884  67.1171417 155.9191437  -2.5172424
  66.6801834 154.3731079  -1.9317118  69.1373291 153.6644135  -6.1103139
  68.5608215 154.3467560  -6.9903455  70.1644516 154.1717834  -5.4217477
  70.7444077 153.5779724  -4.8462949  70.5366669 155.5625458  -5.6694417
  69.6179810 156.1366577  -5.5489736  71.4976578 156.0601501  -4.6139712
  71.8221512 157.0720825  -4.8564792  70.9008255 155.9524994  -3.2340074
  70.6761169 154.9011383  -3.0544608  71.5420761 156.3721771  -2.4589133
  69.9503098 156.4859924  -3.2341769  72.8123169 155.1978912  -4.6628451
  73.2697830 155.0515900  -5.6413188  73.4669571 155.7083435  -3.9564552
  72.6482391 154.1765747  -4.3192139  71.0943222 155.8477631  -7.0632167
  70.9037247 156.9825745  -7.5099993  71.6622772 154.8748474  -7.8012228
  71.7533569 153.9609985  -7.3808918  72.1155701 154.9565125  -9.2110023
  72.7328796 155.8515015  -9.2886858  72.9092178 153.7380066  -9.6940165
  73.7517242 153.7500610  -9.0025425  72.2252960 152.8930969  -9.6135788
  73.3147202 153.9444885 -11.1306524  72.4991150 154.1856079 -11.8123760
  74.0841446 154.7050323 -11.2634840  73.9375000 152.5906830 -11.5718412
  73.2439804 151.8053284 -11.2712393  73.9172058 152.5377350 -12.6603661
  75.3124847 152.4574738 -11.0230484  75.7784882 153.3160858 -10.7667065
  75.9986038 151.3923798 -10.7713537  75.5204391 150.2010040 -10.9160070
  74.6591187 150.0970459 -11.4331379  76.0119705 149.4095459 -10.5260086
  77.1631622 151.4968262 -10.1692743  77.3897247 152.4445801  -9.9037075
  77.7562714 150.6923981 -10.0236387  70.9306259 155.2490387 -10.1506348
  70.9250793 156.2504272 -10.8536949  69.8747253 154.4514923 -10.0963621
  69.7849197 153.7711487  -9.3552999  68.7602615 154.5910034 -10.9898052
  69.0515442 154.6290436 -12.0394745  67.9319305 153.2907410 -10.8066902
  67.7400970 153.0400696  -9.7633934  66.9626617 153.4404907 -11.2822857
  68.5493317 152.0521393 -11.4135227  69.2927170 152.0191498 -12.3688679
  68.1544113 150.8908691 -10.8826008  68.6219177 150.0762024 -11.2539063
  67.5782089 150.8710938 -10.0533190  67.8416595 155.7793732 -10.5750694
  67.1684875 156.2919312 -11.4870253  67.8514557 156.1939850  -9.3032608
  68.4000931 155.6443329  -8.6575117  67.2702789 157.4335480  -8.8132925
  66.2537308 157.4776001  -9.2041817  67.2504425 157.3146820  -7.2097659
  66.8738556 156.3466644  -6.8792691  68.2487335 157.3506775  -6.7736297
  66.4814758 158.4813232  -6.5528889  66.6408005 159.4299622  -7.0655122
  64.9893188 158.1788177  -6.6090426  64.7886963 157.3810577  -5.8938828
  64.4358215 159.0701141  -6.3135262  64.6812515 157.9315796  -7.6249514
  66.9102097 158.5625000  -5.1004300  67.9875107 158.7221375  -5.1454396
  66.3226776 159.3128815  -4.5714393  66.7857513 157.6198273  -4.5675240
  68.0744019 158.6781921  -9.2649450  67.4291916 159.7290344  -9.5401201
  69.4119186 158.6763153  -9.4842024  69.9372025 157.8799438  -9.1525602
  70.2237473 159.7990875  -9.9759264  69.8414612 160.6580963  -9.4245148
  71.7483063 159.4995270  -9.6170425  71.8554382 158.4385376  -9.3913746
  72.7545624 159.7151337 -10.8123512  72.7142563 160.7491760 -11.1547480
  73.7923660 159.5151520 -10.5457611  72.4945526 159.0397949 -11.6274691
  72.3001633 160.3850403  -8.4795542  73.3466797 160.1359863  -8.3038464
  72.2793274 161.4072571  -8.8573751  71.6360931 160.1940002  -7.0873928
  71.9992905 159.3204346  -6.5460181  71.9281464 161.0587769  -6.4916039
  70.5491943 160.2560883  -7.1413288  69.8582077 160.1726227 -11.4257870
  69.8184052 161.3550110 -11.7743454  69.4793396 159.1414642 -12.1921129
  69.5226593 158.1754761 -11.9003839  68.8802032 159.4149628 -13.5190420
  69.5210495 160.1379852 -14.0236959  68.9714661 158.1300812 -14.4378290
  68.7538834 157.2733154 -13.8001022  68.2328186 158.1040649 -15.2389631
  70.3866577 158.1889038 -15.1002436  70.3851471 157.3721924 -15.8221092
  70.4624252 159.1397247 -15.6277819  71.5733795 158.0380096 -14.2158146
  72.5082550 158.8126984 -14.1852474  71.7111816 156.9304352 -13.4853840
  72.3835297 156.9033356 -12.7321854  71.0469131 156.1712646 -13.4351225
  67.4899597 160.1337738 -13.5348883  67.0087051 160.4794159 -14.6448622
  66.8038177 160.1847992 -12.3799429  67.2382507 159.9722900 -11.4932566
  65.5689087 160.9434052 -12.2405491  65.5826187 161.6820221 -13.0420113
  64.2535400 160.1272888 -12.4987192  63.3310738 160.7044067 -12.4348192
  64.1745911 159.8050537 -13.5370035  64.1485062 158.7864532 -11.7009392
  65.0129242 158.1874390 -11.9874010  64.1186829 159.1000824 -10.6574554
  62.8299026 158.0370178 -11.9671745  62.7577477 157.2822571 -11.1840839
  62.0207825 158.7532501 -11.8241892  62.6739235 157.3035431 -13.3302374
  62.6860352 157.9982910 -14.1700497  63.4632759 156.5833130 -13.5454054
  61.3592796 156.5928192 -13.3260546  60.5767365 157.2176056 -13.1942892
  61.1595535 156.0059509 -14.1234245  61.2319565 155.9197845 -12.5838175
  65.4821472 161.8416901 -10.9741344  66.0651779 162.9307861 -10.9696217
  64.5800552 161.5434113 -10.0613775  64.1388931 160.6395416 -10.1535473
  64.0323334 162.4662933  -9.0165033  63.7860603 163.3983612  -9.5251226
  62.7131920 161.8562012  -8.3817225  62.4313545 160.9692230  -8.9491148
  62.9446220 161.4739532  -7.3875251  61.4482040 162.7145538  -8.4482594
  61.3701782 163.6858521  -9.2461691  60.4269333 162.4402313  -7.7797670
  64.9910507 162.8483429  -7.8667903  64.6453781 163.8215332  -7.2026849
  66.0954590 162.1170654  -7.6020026  66.3487244 161.4377136  -8.3051682
  67.0689926 162.2675171  -6.5009117  67.6527023 161.3543854  -6.6173611
  68.0398941 163.4802704  -6.6131997  67.4592133 164.3849030  -6.7935839
  68.6064835 163.6451111  -5.6967378  68.9527435 163.2575073  -7.7576342
  69.4547577 162.3135071  -7.5456614  68.4515610 163.0882568  -8.7106638
  69.8961258 164.4132843  -8.0627747  70.4597549 164.6977692  -7.1742449
  70.6586075 164.0381927  -8.7454338  69.2615280 165.6295319  -8.5812597
  69.2854614 165.6612854  -9.5904779  69.0744553 166.6905823  -7.9078350
  69.2029037 166.7730255  -6.5998940  69.4772110 165.9301758  -6.1156745
  69.0175247 167.6296539  -6.0979710  68.6852036 167.7531281  -8.5242767
  68.5922318 167.7870636  -9.5294180  68.3264160 168.5323181  -7.9911404
  66.5582352 162.1577148  -5.0540195  67.3976364 162.1268616  -4.1294074
  65.2375641 162.1746674  -4.8048005  64.6020889 162.2693481  -5.5840983
  64.5629883 162.0580292  -3.4567857  65.3638000 162.3320312  -2.7699587
  63.3840218 162.9670563  -3.2817852  63.0247002 162.6979828  -2.2885149
  63.8078003 164.4685974  -3.3467541  64.3752594 164.6387329  -4.2617130
  62.8683434 165.0160217  -3.4232144  64.2921677 164.7573090  -2.4139433
  62.4163208 162.7767334  -4.3153062  61.6297340 163.0264587  -3.8248799
  64.2607193 160.6049194  -2.9812119  63.6082420 159.8019867  -3.6375771
  64.8578415 160.2580872  -1.8187205  65.3668594 160.9716492  -1.3168888
  64.6080093 158.9941864  -1.1603081  63.9318619 158.3851624  -1.7603354
  65.9586029 158.2187195  -1.0313773  65.7876053 157.1688385  -0.7934438
  66.4356079 158.1654053  -2.0100131  66.9501343 158.7516479  -0.0155854
  68.0599060 159.4175873  -0.4822302  68.1319504 159.7254944  -1.5148989
  69.0914459 159.7101593   0.4384390  69.9863052 160.1939850   0.0757739
  68.9465485 159.4541931   1.8175234  69.6033783 159.8093414   2.5978088
  67.8066406 158.7783966   2.2680638  67.8122482 158.3958130   3.2780120
  66.8413544 158.4271088   1.3326159  66.0337219 157.8168335   1.7090557
  63.8981552 159.2183990   0.1719498  63.9057388 160.3200836   0.7316590
  63.1773720 158.2265778   0.7499185  63.1653328 157.3072357   0.3318711
  62.3633575 158.4624176   1.9219253  62.2862663 159.5316162   2.1193030
  60.9111404 157.9773407   1.7515217  61.0298958 157.0257874   1.2333161
  60.3510628 157.8816528   2.6817150  60.4290199 158.6844330   1.0764821
  63.1535263 157.9265900   3.1734135  63.4401970 156.7018127   3.3043339
  63.3508873 158.7187042   4.1761093  63.1720428 159.7065582   4.0653477
  63.6260185 158.3452148   5.6031690  64.1275558 157.3813477   5.6898441
  64.5450821 159.3874512   6.2352014  64.1737366 160.4047546   6.1114602
  64.8541489 159.1347504   7.7083092  65.3487854 158.1642151   7.7470107
  65.5634537 159.8721161   8.0841761  63.9526634 159.2053833   8.3169403
  65.7851715 159.3438416   5.3637090  65.7336121 160.1746979   4.6600614
  66.6175537 159.6939087   5.9741921  65.9290771 158.3384705   4.9679427
  62.3083115 158.2117920   6.3532839  61.4577103 159.0974731   6.3385096
  62.0785027 157.0983734   6.9996839  62.8243370 156.4177551   7.0243478
  60.9620438 156.9471893   8.0019026  60.1100540 157.5213776   7.6378584
  60.6753693 155.4548340   7.9209208  61.6580124 154.9832306   7.9110885
  60.1205635 155.1935120   8.8220301  59.9972038 154.9215698   6.6085429
  60.5719910 155.0255280   5.6882658  59.8376007 153.4937134   6.8430691
  59.2671852 153.1978760   7.7235289  59.2534637 153.1199951   6.0021033
  60.7711639 152.9630737   6.6560073  58.6188736 155.5715485   6.4746394
  58.7377243 156.6526337   6.4024777  58.1264648 155.1341858   5.6061029
  58.0092125 155.2965088   7.3353214  61.3852844 157.3808441   9.4459400
  62.5662422 157.3569946   9.7698879  60.4325905 157.6943054  10.3493252
  59.4823036 157.7577667  10.0131369  60.6260834 157.8738708  11.7540092
  61.7073135 157.9159393  11.8854513  59.9938698 159.2915802  12.0288324
  58.9115334 159.1646271  12.0519199  60.3242378 159.6101532  13.0175047
  60.3888741 159.9619293  11.2654772  60.0836487 156.6817322  12.5823984
  58.9378853 156.6921844  13.1075029  60.8911362 155.6033478  12.4655819
  61.7013283 155.6296844  11.8630896  60.4468117 154.3459473  12.9737587
  59.6525917 154.0323792  12.2962704  61.6622620 153.4057465  12.8698845
  62.5406990 153.8472900  13.3404989  61.4120903 152.4633484  13.3571348
  62.0631638 153.1206055  11.4183846  61.3397980 152.1495514  10.6457310
  60.4625359 151.7232971  11.1095362  61.6774635 151.7759552   9.3457689
  61.0488319 151.0633240   8.8325596  62.7672348 152.3816986   8.7656670
  63.1109009 152.0043488   7.5066915  62.3816605 151.6610870   6.9851751
  63.5437431 153.2776642   9.5156565  64.4367752 153.7076569   9.0866966
  63.2041740 153.7006073  10.8241005  63.8829384 154.4022980  11.2859564
  59.9025002 154.3716888  14.4334631  60.6485977 154.6756134  15.3719263
  58.5766335 154.1552429  14.5839796  58.0786743 153.8817444  13.7489128
  57.8002205 154.0447235  15.8085785  58.1031036 154.8966827  16.4172802
  56.3693199 154.2846985  15.4143381  55.7610054 154.2201843  16.3164959
  56.2389565 155.2821960  14.9946690  55.9037704 153.2865906  14.4474096
  54.9809608 153.5102692  14.3060141  58.1065750 152.7374725  16.5484734
  57.7983131 152.6100769  17.7422562  58.7075882 151.7855682  15.8144560
  58.6975250 151.8416290  14.8060637  59.5813065 150.6784821  16.2797451
  60.0498123 150.9061432  17.2372284  58.6667900 149.5614014  16.6646042
  57.9924316 149.9504242  17.4274979  58.0433693 149.3125763  15.8057995
  59.4092827 148.3703156  17.2672806  60.4476624 147.9009857  16.7941723
  58.9413452 147.8001556  18.3493805  59.4323959 147.0008240  18.7236023
  58.1303024 148.1932678  18.8052044  60.5957642 150.3119049  15.2208843
  60.1257629 150.0196686  14.1254673  61.8835754 150.2749481  15.5119572
  62.1612358 150.5678864  16.4378014  62.9564362 149.9624329  14.4773188
  62.6529732 150.2747803  13.4780941  64.2373123 150.7217865  14.8784065
  63.9846687 151.7722321  15.0227985  64.8398666 150.1990204  16.2037582
  65.1994858 149.1870270  16.0176010  65.6416321 150.8794556  16.4906197
  64.1008453 150.1748047  17.0046062  65.3061981 150.6083221  13.7426510
  64.8724365 151.1507416  12.9025688  66.1715851 151.1920013  14.0565271
  65.5023804 149.5807648  13.4364500  63.1707726 148.4613800  14.2615414
  63.5332298 148.1288605  13.1600084  62.9327393 147.6300964  15.3110180
  62.6327019 148.0777740  16.1652241  62.9834900 146.1731873  15.3259859
  63.9638252 145.8356934  14.9896374  62.8317528 145.6593933  16.7382774
  63.4336090 146.2397156  17.4376392  61.8273659 145.9190521  17.0727711
  63.2422256 144.1467743  16.8869476  62.5347481 143.6581573  16.2170010
  64.2942734 144.0219421  16.6306000  63.0188599 143.7133789  18.3701229
  63.4836502 144.4420929  19.0342464  61.9326706 143.6868134  18.4571896
  63.6017494 142.3314972  18.5774593  64.4502182 142.2123566  19.1122589
  62.9621086 141.2292023  18.3102303  61.7824860 141.1599731  17.7262154
  61.3234711 141.9215088  17.2471828  61.3001328 140.2801971  17.8420944
  63.4824409 140.0829010  18.6969700  64.4201508 140.0403595  19.0697842
  63.0675087 139.2671967  18.2696915  61.9425087 145.5376434  14.3892269
  62.2164803 144.7687988  13.4607525  60.7011642 145.8834229  14.6672039
  60.5231056 146.5308380  15.4216862  59.5101509 145.5155182  13.9236336
  59.7178268 144.4757690  13.6708364  58.2405853 145.5778809  14.7995844
  58.1072311 146.6578369  14.8631592  57.4204407 145.1720123  14.2073555
  58.2393913 144.9255371  16.1804504  58.9164505 145.4977875  16.8146553
  57.3087692 145.0696869  16.7293301  58.6178589 143.3949890  16.1968193
  58.0352554 142.6056671  15.3738136  59.5106621 142.9332733  16.9278870
  59.4103889 146.2768707  12.5804272  58.6046753 145.8718567  11.7484341
  60.1731300 147.3569031  12.3055534  60.9064140 147.5829468  12.9622879
  60.1306152 148.3016510  11.1774416  60.8641624 149.0594482  11.4526854
  60.7550850 147.7191772   9.8638401  60.0813866 147.0495453   9.3292017
  60.9613953 148.5450592   9.1830645  61.9824562 146.9598236  10.1284943
  62.5864067 147.3538208  10.9458761  61.7943039 145.8893127  10.2103529
  62.8672867 147.0473328   8.8666754  63.5892525 146.2324677   8.8131895
  62.2068825 146.8964233   8.0127449  63.5674820 148.3586731   8.8153095
  63.0680695 149.0715027   9.3277245  64.7180557 148.5619965   8.1502934
  65.5182114 147.6126709   7.7555609  65.1613922 146.7117004   8.0402689
  66.3570709 147.8311462   7.2372136  65.1960297 149.7800598   8.0408115
  64.7038803 150.6150513   8.3248844  65.9722672 149.9536591   7.4183769
  58.8034325 149.0663910  11.0081263  58.4811134 149.4398499   9.8496885
  58.0301285 149.1946564  12.0727806  58.4795990 148.9436188  12.9417229
  56.8134575 149.9611969  12.0163059  56.2363815 149.7678986  11.1120253
  55.9027939 149.7105865  13.2528210  56.3646469 149.9484711  14.2110500
  55.0026741 150.3175659  13.1554966  55.4635010 148.2663727  13.3586216
  54.9676437 147.8894501  12.4641066  56.3111763 147.6651154  13.6873550
  54.5169945 148.1283569  14.4926119  54.9928856 147.8963623  15.6414251
  53.2771568 148.0908356  14.2823753  57.1143265 151.4776459  11.9624634
  58.1219139 151.9738770  12.5174618  56.3025513 152.2355652  11.2226191
  55.5340843 151.7827759  10.7487640  56.3531837 153.7422028  11.1901903
  56.5859146 154.0425873  12.2118092  57.5174980 154.2624207  10.2896233
  57.1590385 154.1468353   9.2667599  57.7363396 155.3016968  10.5347891
  58.4307518 153.6833954  10.4266977  55.0827637 154.4722137  10.7321539
  54.3698463 153.8903198   9.9400511  54.7448883 155.5991364  11.3537827
  55.2548981 155.9709930  12.1422682  53.5795517 156.3715668  10.9104109
  53.0299835 155.7113495  10.2394571  52.6474991 156.6033630  12.1159916
  53.0996208 157.4968719  12.5464964  51.5946770 156.7863312  11.9010677
  52.5701561 155.5333862  13.2049799  52.2163849 154.1869965  12.9763603
  52.2679443 153.5225067  14.1360264  52.0904160 152.4580841  14.1794138
  52.5861969 154.4221649  15.1141081  52.7411804 154.1037140  16.0599785
  52.8512878 155.6563263  14.5440845  53.0942459 156.5838165  15.0412111
  53.9078102 157.6746216  10.1465082  53.0049133 158.2736664   9.5536051
  55.1846390 158.0568542  10.0005531  55.8270302 157.4357605  10.4713755
  55.6960373 159.3777161   9.5790300  55.0195847 159.8216400   8.8486557
  55.7902946 160.3561401  10.7952986  56.3017960 159.9167786  11.6517010
  56.3093910 161.2487030  10.4460430  54.3761826 160.7851868  11.2485447
  53.6529083 161.7149811  10.4911413  54.1325798 162.2364197   9.6760206
  52.3621101 162.0645294  10.8745251  51.9162178 162.9061890  10.3654089
  51.7814102 161.5204163  12.0361128  50.7158966 161.5992126  12.1938009
  52.5259094 160.5470276  12.7451668  52.0561218 160.0682220  13.5916071
  53.8153419 160.1895142  12.4311314  54.3127022 159.4710846  13.0658636
  57.1174507 159.2950592   8.9007082  57.8097153 158.2907715   9.1060743
  57.5870361 160.4006653   8.3217030  56.8984756 161.0666046   8.0015297
  58.9895515 160.5319214   7.9782243  59.5255165 160.6318817   8.9220715
  59.3669815 159.6336517   7.4896026  59.3282776 161.8141327   7.1874251
  58.6422119 162.8719788   7.2164226  60.4584427 161.7470398   6.4628854
  60.8267746 160.8070068   6.4355602  61.0848503 162.8876648   5.7982998
  60.3580475 163.6471710   5.5101900  61.9726982 163.6110992   6.7833209
  62.6443863 162.8788605   7.2314000  62.9251709 164.5856018   6.0535460
  62.3379173 165.3078156   5.4864078  63.4873505 165.1417084   6.8037419
  63.5916443 164.1865082   5.2889266  61.2278252 164.2777405   7.8186464
  60.6041183 163.6678772   8.2194757  61.8033333 162.5785217   4.4808497
  62.5625076 161.6149445   4.3414068  61.4836502 163.3326416   3.3919849
  60.7987061 164.0663452   3.5043404  62.0305824 163.1399536   2.0572469
  62.0769119 162.0621338   1.9014665  61.1757965 163.7037659   0.9031011
  61.6509438 163.5002747  -0.0565476  59.7927704 163.1356049   0.7884253
  59.1904640 163.6526184   1.5354326  59.4257431 163.2969360  -0.2251648
  59.7651215 162.0630035   0.9804406  61.0350723 165.0771790   1.0955164
  61.7585335 165.5071716   0.6336520  63.4819679 163.7425690   1.9631412
  63.6684189 164.9429932   1.8992698  64.5783005 162.9204407   1.9041848
  64.3327637 161.9407654   1.9101011  65.9318848 163.4308929   1.6667997
  66.1155548 164.4153900   2.0970926  66.9889221 162.5177917   2.3248129
  67.0924530 161.5641632   1.8071624  67.9454727 163.0355072   2.2534809
  66.6676712 162.3421326   3.3514798  66.1976242 163.5812073   0.1419913
  66.0662766 162.6429138  -0.6504795  66.7118607 164.7542114  -0.3018428
  66.8122864 165.5167236   0.3528315  67.3565216 164.9693756  -1.6277159
  66.9384689 164.2428894  -2.3245273  66.9520493 166.3596954  -2.2227843
  65.8683395 166.4724121  -2.2540398  67.2559280 167.1291199  -1.5130407
  67.4541931 166.6914062  -3.6144023  68.5161972 166.4616394  -3.7007184
  66.9778442 166.0678253  -4.3709345  67.3614426 168.1446991  -4.0721054
  66.4504089 168.8810120  -3.5740747  68.1843414 168.5717621  -4.9054751
  68.8576660 164.7277679  -1.5343529  69.5656891 165.3754578  -0.7611626
  69.4226151 163.9174652  -2.4523294  68.8339386 163.3546600  -3.0496545
  70.8399734 163.7439270  -2.7088416  71.4278107 163.7319794  -1.7910151
  71.1888275 162.4124603  -3.3987138  70.7066727 162.4421082  -4.3758249
  72.6299591 162.3184509  -3.7328539  73.2133484 162.4782104  -2.8260846
  72.9896317 161.4427948  -4.2731953  72.8689651 163.1560974  -4.3880720
  70.7007217 161.2354126  -2.5210147  71.3013763 161.1944122  -1.6123698
  69.6608582 161.4144745  -2.2476628  70.7552261 159.8312683  -3.1295509
  71.7545166 159.4828644  -3.3905942  70.3659134 159.0865784  -2.4353051
  70.1213226 159.7942047  -4.0154915  71.3391800 164.9881439  -3.4341493
  71.0721588 165.1127319  -4.6506162  72.0907822 165.8628845  -2.7391067
  72.1863403 165.7899170  -1.7362888  72.7154541 167.0314636  -3.3928530
  72.1446533 167.2128143  -4.3035665  72.5503311 168.3041840  -2.6219511
  72.8261566 169.1124573  -3.2992480  71.5020065 168.5393372  -2.4380205
  73.3904495 168.3412476  -1.3393980  74.6370544 169.0254974  -1.3184681
  74.9605026 169.5587311  -2.2002015  75.4114990 169.0726013  -0.1558972
  76.3818283 169.5408783  -0.2306569  74.9394608 168.4555817   1.0017890
  75.7198334 168.4193420   2.1301832  76.5186234 168.9351654   1.9980364
  73.6851044 167.9129486   1.0485259  73.2249985 167.6213074   1.9810789
  72.8752518 167.8609467  -0.1106793  71.8614044 167.4887695  -0.1086135
  74.1392288 166.8111420  -3.9315054  74.6188354 167.6617432  -4.7082067
  74.8008347 165.7382507  -3.4351466  74.3046036 165.1688385  -2.7646117
  76.1770477 165.3260040  -3.8373592  76.3157043 165.7830505  -4.8171439
  77.1937485 165.9658813  -2.9301872  76.8190918 165.8904877  -1.9093809
  78.1843872 165.5278168  -3.0519664  77.3062286 167.0331421  -3.1210034
  76.3814011 163.8158875  -3.9139829  75.8224106 163.0481720  -3.0954254
  77.2084427 163.3734283  -4.9002752  77.6495972 164.0699158  -5.4837017
  77.2960510 161.9373474  -5.3298082  77.0251160 161.2498779  -4.5285149
  76.1814957 161.7811127  -6.4067998  75.2139893 162.0951080  -6.0150905
  76.3480530 162.4912872  -7.2167449  76.0461731 160.4484863  -7.0508990
  75.2645187 159.4134521  -6.4359283  74.7095871 159.6256104  -5.5340204
  75.2353058 158.1873474  -7.0754719  74.4988556 157.4456635  -6.8035483
  75.8408127 157.9940491  -8.3607569  75.6180420 156.9068451  -9.1791525
  75.2672501 156.1525726  -8.6999607  76.5836487 159.0318604  -8.8886490
  77.0921249 158.8881683  -9.8305626  76.7682419 160.2575836  -8.2400599
  77.2762222 161.0870209  -8.7095222  78.6958466 161.6030426  -5.8228331
  79.3679657 162.4449615  -6.4042649  79.1600494 160.3749847  -5.6678543
  78.5472031 159.7084198  -5.2203979  80.3868713 159.7485962  -6.1839819
  80.4868774 160.1190338  -7.2042150  81.6472549 160.1437988  -5.3046622
  81.3879089 161.0680389  -4.7883058  81.8349304 159.4572449  -4.4791169
  83.0155106 160.3170929  -5.9524636  83.3137970 159.3849335  -6.4322572
  83.0037689 161.1920929  -6.6023412  84.1226120 160.4649506  -4.9434686
  83.7398834 160.9759521  -4.0600071  84.3555908 159.4742584  -4.5531650
  85.1950150 161.1013031  -5.5450068  84.9807358 161.9928894  -5.9683847
  86.4475098 160.7879028  -5.4094639  86.9197235 159.8077240  -4.7417765
  86.2935562 159.1028748  -4.3795671  87.9035950 159.5911255  -4.8137927
  87.3942184 161.5037994  -5.8865929  87.1898651 162.3984070  -6.3084950
  88.2990723 161.4362488  -5.4429893  80.3726349 158.1657562  -6.3163414
  80.0135727 157.5111084  -5.3260388  80.6178513 157.5454407  -7.4776220
  80.9545441 158.1899109  -8.1786146  80.6763687 156.0932007  -7.6444917
  80.1029663 155.4919434  -6.9389400  80.0849075 155.6640625  -8.9547739
  80.5772705 156.1824341  -9.7775602  80.2510300 154.5975037  -9.1062250
  78.5079422 155.8468628  -9.0915699  77.9483337 155.4114075  -8.2637377
  78.3073807 156.9162903  -9.1565886  78.0858002 155.1425781 -10.4095850
  77.3286514 154.1663971 -10.2454453  78.4623489 155.4751282 -11.5569534
  82.1452789 155.6326599  -7.5813975  82.9950027 156.2332306  -8.2457285
  82.3897247 154.5437469  -6.8570590  81.6176147 154.0102844  -6.4837413
  83.7252350 153.9462280  -6.7250729  84.4263992 154.1383362  -7.5372162
  84.4837112 154.4378662  -5.4777446  83.8059769 154.3198700  -4.6322584
  85.3157043 153.7605133  -5.2851276  84.9478607 155.9064789  -5.6757393
  85.5259705 156.0381470  -6.5903702  84.1101685 156.5991058  -5.7571478
  85.8693466 156.3403778  -4.5277753  87.1087799 156.1013794  -4.5434132
  85.3639984 157.1598206  -3.6978571  83.5829773 152.3656921  -6.8135500
  82.4950180 151.8015594  -6.5718279  84.6278152 151.6594849  -7.1618700
  85.4941406 152.1216278  -7.3985276  84.6815948 150.1776733  -7.3342500
  83.8294907 149.6924896  -6.8582106  84.4779892 149.9700317  -8.8768492
  83.5447922 150.4014893  -9.2389202  85.2356949 150.4833069  -9.4689016
  84.4945068 148.4750061  -9.2594662  85.3337936 147.8887939  -8.8852386
  83.5919113 148.0186615  -8.8530607  84.6036148 148.2744598 -10.7914457
  85.3729858 147.3396454 -11.1891088  83.9630203 149.1063690 -11.6026230
  84.1382675 149.0525818 -12.5958490  83.4575729 149.9002533 -11.2360668
  86.0353928 149.6806183  -6.7290020  87.1286469 149.8409882  -7.3751130
  85.9559250 148.9967346  -5.5855885  85.0519791 148.7938232  -5.1833353
  87.1584854 148.3586273  -4.9600015  87.9454575 148.1442413  -5.6830626
  87.8660583 149.2512207  -3.8523655  87.0656052 149.5478516  -3.1745858
  88.6123123 148.7042084  -3.2761750  88.4778137 150.5156555  -4.4439254
  89.1707382 150.3055115  -5.2586656  87.6825104 151.1473846  -4.8395224
  89.3136215 151.3132477  -3.4576654  88.6920776 152.1124420  -2.7403979
  90.5601273 151.1555634  -3.4423208  86.9840622 146.9259033  -4.3665514
  85.8505402 146.5520935  -4.1593523  88.0486374 146.1011658  -4.1800714
  88.9627228 146.4190216  -4.4690461  87.9698486 144.6867218  -3.6629984
  88.9415359 144.2175903  -3.8173659  87.8237381 144.7338104  -2.1340859
  86.7750854 144.9563293  -1.9368378  87.9262772 143.7261963  -1.7312207
  88.6452484 145.6504974  -1.3020071  89.9763565 145.2852936  -1.0791488
  90.3753815 144.3979645  -1.5479805  90.8665771 146.1638336  -0.4258527
  91.8889542 145.8329926  -0.3177491  90.3621750 147.4005432   0.0841970
  91.2752762 148.2217407   0.7137544  92.1946869 147.9651794   0.6115065
  89.0251541 147.8024597  -0.1591796  88.6537781 148.7081146   0.2971800
  88.1509781 146.8943634  -0.8131253  87.1265106 147.1865845  -0.9905581
  86.9487000 143.7598267  -4.3753605  86.3555374 142.8672485  -3.7952156
  86.6378708 144.0785828  -5.6575842  87.1594925 144.8622131  -6.0235238
  85.6874161 143.3092041  -6.5535970  85.9943237 143.3078156  -7.5994954
  85.6333618 142.2808380  -6.1963253  84.2445145 143.7779388  -6.4465666
  83.3969116 143.0349274  -7.0085382  83.9223480 144.8699646  -5.7551975
  84.6875534 145.3396454  -5.2926369  82.5222397 145.2487793  -5.4662042
  81.8745422 144.5332642  -5.9727759  82.2097702 145.0989227  -3.9105532
  81.1653748 144.8017578  -3.8155789  82.8823013 143.8218536  -3.3909502
  83.9710999 143.7870331  -3.3533671  82.5302048 143.6705627  -2.3705356
  82.4626160 143.0595703  -4.0473766  82.5307236 146.4451294  -3.1411397
  83.5145721 146.8033600  -3.4441423  81.8692856 147.2471771  -3.4687505
  82.3725891 146.3525848  -1.5723641  83.1066055 145.6750946  -1.1360867
  82.4013367 147.3326111  -1.0961164  81.3560333 146.0291138  -1.3485712
  82.1958008 146.6468201  -6.0283809  83.0396652 147.5453644  -6.0823960
  80.9448624 146.9097137  -6.4483805  80.1804428 146.2498779  -6.4288549
  80.4594727 148.3138123  -6.5369639  81.2687149 148.9192505  -6.9452167
  79.2863846 148.4187622  -7.5570536  78.4598541 147.8541260  -7.1256337
  79.0286560 149.4678345  -7.7023482  79.6172256 147.8136902  -8.9082518
  80.5661469 148.1816101  -9.2984667  79.7579956 146.7331848  -8.8798084
  78.5237122 148.1487885 -10.0079412  77.3449249 148.5108643  -9.8137207
  78.9291611 148.2331238 -11.1797705  80.1465454 148.9752197  -5.2063708
  79.6651535 148.3592682  -4.2798872  80.4223099 150.2602234  -5.1466498
  80.8286057 150.7842865  -5.9084773  80.1707306 151.1006470  -3.9306638
  79.2045822 150.7503357  -3.5674284  81.2842789 150.7662354  -2.9548855
  81.1956329 149.7126617  -2.6898429  82.7099152 150.9228821  -3.5110343
  82.7351913 151.8266296  -4.1198883  83.4468765 151.0176086  -2.7135277
  82.9157181 149.9853363  -4.0274978  81.2696457 151.6041412  -1.8705723
  81.7911072 151.2170563  -1.1635749  79.9279404 152.6030426  -4.2798061
  80.2946701 153.0650635  -5.3665104  79.2811432 153.3633728  -3.4069884
  78.9811707 153.0118866  -2.5088944  78.8249207 154.7065277  -3.7707279
  79.6125641 155.1449280  -4.3835278  77.4778824 154.6774292  -4.5857539
  77.5184402 153.9053650  -5.3541136  76.3168564 154.3773651  -3.6878111
  76.1556320 155.1877594  -2.9769065  75.4405212 154.3054352  -4.3319917
  76.5370865 153.3863373  -3.2910035  77.2025528 155.9165192  -5.3355289
  78.0308304 156.0269470  -6.0354261  76.2422485 155.8495789  -5.8468428
  77.0360260 156.7596436  -4.6650801  78.6835403 155.5757294  -2.5613708
  78.1916275 155.0841217  -1.5260159  79.1710815 156.8304901  -2.6238835
  79.5231323 157.0472412  -3.5453959  79.2606201 157.7868347  -1.4867755
  78.8295898 157.2938995  -0.6153811  80.7238083 158.1210632  -1.3246541
  81.0745621 158.9645386  -1.9193007  80.7733536 158.5013733  -0.3043569
  81.7254868 156.9253693  -1.3715259  81.4752884 156.1905518  -0.6063170
  81.6840973 156.3599854  -2.3025069  83.1579514 157.4188080  -1.0475128
  83.4487762 158.1900024  -1.7607977  83.1563416 157.9785614  -0.1122170
  84.2260513 156.2705231  -0.9462664  84.0668793 155.7702179   0.0089624
  84.1370697 155.6572113  -1.8429502  85.5962906 156.8449554  -0.9689597
  85.7737274 157.4393616  -0.1719075  86.2628937 156.0890350  -0.9032925
  85.8353577 157.2863007  -1.8454123  78.3522186 159.0203400  -1.7852725
  78.4289474 159.5758820  -2.9082618  77.4394455 159.3480530  -0.8845701
  77.2796783 158.7729034  -0.0698538  76.4180527 160.3667755  -1.1492727
  76.7482071 161.0102234  -1.9647930  75.1233063 159.7032623  -1.6684409
  74.4783478 160.5092773  -2.0183971  75.4018936 158.7483673  -2.8768182
  75.9471893 157.8841553  -2.4974909  74.4869385 158.4730377  -3.4013662
  76.0468979 159.2939911  -3.5655527  74.3320389 158.9287567  -0.5781389
  73.8729019 159.6150360   0.1334301  73.4328461 158.4923401  -1.0129988
  75.0815277 158.2923431  -0.1076740  76.1079254 161.2619781   0.0601439
  76.2152863 160.8379517   1.1805564  75.7064438 162.4971771  -0.1841601
  75.6312866 162.8161469  -1.1395159  75.2925415 163.4134064   0.7969649
  75.2289658 162.9738464   1.7923791  76.4200516 164.5122528   0.9076141
  76.7344437 164.7445831  -0.1098719  75.9978561 165.4139099   1.3512858
  77.6363373 164.1028442   1.7582707  77.3032990 164.1532898   2.7949193
  77.8181000 163.0453491   1.5665002  78.8021011 165.0878448   1.5382397
  79.5667648 164.8591309   2.2805846  79.1324844 164.8344116   0.5309069
  78.4876709 166.5753326   1.6137706  77.7479095 166.7984772   0.8449693
  77.9866714 166.6786041   2.5762856  79.7264633 167.4639130   1.4983602
  80.1371384 167.3397369   0.5840155  79.4300690 168.4180450   1.6463583
  80.3697281 167.2404938   2.2442734  73.9316559 163.9953003   0.3801975
  73.7715759 164.3813782  -0.8032481  72.9531097 164.0104065   1.2901044
  73.2566376 163.6529999   2.1846616  71.5744858 164.2550201   1.1616930
  71.3659897 164.6688232   0.1750839  70.9506836 162.8487244   1.2198429
  70.8666534 162.3851318   2.2027552  69.9354172 162.9748383   0.8437793
  71.4975815 162.2114105   0.5249736  71.0106812 165.2019043   2.2253101
  71.6982193 165.5021515   3.1887703  69.7836456 165.6899872   2.0573304
  69.2805405 165.5448608   1.1936615  69.2474823 166.6656647   2.9639568
  69.5161285 166.4807892   4.0040288  69.9362106 167.9942322   2.6234493
  70.9785995 167.6772156   2.6554849  69.4892197 168.5238342   1.2714473
  68.4751892 168.9234314   1.2840493  70.1598816 169.2672272   0.8405482
  69.5776825 167.6932068   0.5712107  69.7292252 169.0630188   3.7100084
  68.6791229 169.3457336   3.6361699  69.9863281 168.6720886   4.6944785
  70.4780960 170.4281616   3.5066991  70.0795670 170.8864899   2.6016011
  70.1239319 171.0607147   4.3206787  71.5506287 170.2554016   3.4176552
  67.7272720 166.7364807   2.9842315  67.1194153 166.5402222   1.9622506
  67.1799393 166.9294128   4.1747832  67.7355728 167.1318359   4.9935598
  65.6892548 166.7677155   4.2166338  65.4089432 165.9187775   3.5930753
  65.4152069 166.5082245   5.2392111  64.8840408 167.9622345   3.6686659
  64.8046265 169.0518341   4.2669888  64.1530991 167.6787262   2.6104174
  64.2095337 166.7678528   2.1777227  63.2766342 168.7074127   1.9348104
  63.7581100 169.6790466   2.0453179  63.1970978 168.3146210   0.4985833
  63.0338058 167.2373047   0.5274871  62.4014587 168.7391510  -0.1136506
  64.5218506 168.5466614  -0.3484320  65.3807144 168.1416321   0.1867508
  64.4721069 167.9463806  -1.2568928  64.7409744 170.0446014  -0.7546243
  65.3021011 169.9098816  -1.6793373  63.8048820 170.5671692  -0.9514887
  65.4635391 170.7748260   0.3062330  64.8229446 171.1198730   1.0067222
  66.7291870 171.2873840   0.3376801  67.6144409 170.9549561  -0.5880104
  67.4466324 170.2010803  -1.2388583  68.5401917 171.3536835  -0.6519999
  67.0799713 172.0559845   1.3198664  66.5155411 172.3043060   2.1197748
  68.0189514 172.4279175   1.3111427  61.9601936 168.9340363   2.6643643
  61.5402412 170.0531921   2.9946945  61.1902504 167.8337250   2.8830504
  61.5422325 166.9258881   2.6146612  59.7224464 167.8312225   3.2201965
  59.5584984 168.8298340   3.6251390  58.8930817 167.5214233   1.9331963
  59.0574417 166.4602356   1.7461565  57.8615112 167.7825623   2.1693556
  59.2855644 168.4010468   0.7442678  58.8423920 169.3780823   0.9368439
  60.3533897 168.6180420   0.7166072  58.8388901 167.8510284  -0.5621076
  58.2030907 168.4832001  -1.3614799  59.2200050 166.6293182  -0.8985758
  58.9103127 166.2508545  -1.7822917  59.9138870 166.1448212  -0.3473134
  59.4793625 166.7755585   4.2788429  60.0392380 165.6545105   4.1286912
  58.5739861 166.9180908   5.3221893  58.1040077 167.8090973   5.3951635
  58.0160446 165.8896942   6.1854987  58.8380165 165.2005005   6.3791318
  57.5437889 166.4639893   7.5079489  56.7495537 167.1804352   7.2982025
  57.0575485 165.6832581   8.0928688  58.6014175 167.0817413   8.3491888
  59.3619652 166.3439636   8.6048450  59.0569458 167.9392700   7.8539920
  58.0091171 167.5451965   9.6177645  57.3041725 166.8436127  10.0637789
  58.8169746 167.7795868  10.3109722  57.1917953 168.8093872   9.4447498
  57.5963173 169.5081787   8.8379860  55.9676628 169.1512909   9.9409380
  55.2880402 168.2287292  10.5534992  55.6569519 167.3197479  10.7938509
  54.3886948 168.4872894  10.9335260  55.4079094 170.3245850   9.7977839
  55.9485092 171.0763397   9.3943844  54.6356201 170.5844879  10.3945379
  56.8921356 165.1001434   5.4967628  56.3517914 165.6211243   4.4635086
  56.4554977 163.9843140   6.0419221  56.9501457 163.6141663   6.8409257
  55.2857285 163.2578735   5.5073352  54.4615364 163.9219971   5.2470469
  55.6622200 162.5027008   4.1926317  54.7881241 162.0677643   3.7079766
  55.9827080 163.2327118   3.4493530  56.8097382 161.4089813   4.3417068
  56.5879173 160.2763519   5.1623583  55.6464844 160.1521759   5.6768298
  57.5601540 159.3254700   5.2990699  57.3282089 158.5115509   5.9699974
  58.7687263 159.4473267   4.6128120  59.4961472 158.6516724   4.6775618
  59.0015831 160.5955048   3.7763824  59.8193932 160.5637665   3.0716996
  58.0009422 161.5762329   3.6734464  58.1786308 162.5102081   3.1610959
  54.6168480 162.3107605   6.5254807  55.3704414 161.8063660   7.3886123
  53.2840347 162.0681610   6.4378080  52.7922783 162.6032562   5.7364173
  52.5452385 160.8958740   6.9582171  52.8985710 160.6533203   7.9604325
  51.0912971 161.3334351   6.9613256  50.9816818 162.1105499   7.7177467
  50.7801895 161.7958679   6.0245981  50.0652084 160.2120819   7.2369213
  50.3034897 159.3721771   6.5843115  50.2761993 159.9823608   8.2813406
  48.5274429 160.3884125   7.0780911  48.4152107 160.6395721   6.0233746
  48.1334877 159.4137878   7.3662009  47.8429413 161.4200287   8.0185957
  48.1294403 161.2397614   9.0547075  48.2742424 162.3805542   7.7367063
  46.3594360 161.4461212   7.7956896  45.8103333 160.6562958   8.1035299
  45.9747162 162.2846832   8.2066774  46.2266808 161.5965424   6.8058162
  52.7330856 159.7351990   6.0098929  52.7925873 159.9440002   4.7778625
  52.8836555 158.5023651   6.5326710  52.7509651 158.4228821   7.5307574
  52.8922234 157.1712189   5.8395400  53.3134499 157.2548218   4.8376980
  53.8476334 156.1136169   6.5424995  53.4955177 155.9994812   7.5677247
  53.9043808 154.7239532   5.7621155  54.0267792 154.9059296   4.6944017
  54.7845879 154.1714172   6.0908179  52.9828720 154.1714935   5.9457145
  55.2783356 156.7082977   6.6062956  55.3000412 157.7298584   6.9858479
  55.8296204 156.1479797   7.3614283  55.7947807 156.8338928   5.6546602
  51.4860306 156.6495209   5.7372289  50.6912956 156.7960358   6.6768236
  51.2170601 155.9706726   4.6319990  51.9134445 155.9178467   3.9023724
  49.9947166 155.3083344   4.2792091  49.2871056 155.4023132   5.1029553
  49.3722000 155.9477844   3.0512257  50.0477409 155.7430115   2.2206764
  48.4594345 155.3742523   2.8899217  49.0072250 157.4624634   3.0931304
  49.8792534 158.0607452   3.3571694  48.5424881 157.8913269   1.6996042
  47.6352806 157.4078369   1.3372349  48.3951302 158.9706268   1.7381839
  49.3461456 157.6979828   0.9890660  47.8857002 157.7306824   4.0620818
  48.1131020 157.4572296   5.0924335  47.6096420 158.7842865   4.0196762
  47.0354538 157.1120911   3.7748044  50.1129570 153.8097839   4.0746670
  49.1449165 153.1025543   4.3786111  51.2522354 153.3788757   3.5787432
  52.0287132 154.0118103   3.4499927  51.5741730 152.0031586   3.2113738
  51.5061493 151.2415619   3.9881933  50.6187325 151.5358429   2.1017087
  49.5986328 151.5087738   2.4848032  50.7263107 152.2411804   1.2776787
  50.8400497 150.1385345   1.5506625  51.8536072 149.9924622   1.1772232
  50.5148506 149.4151306   2.2983546  49.8865471 149.9015961   0.3650341
  48.6579170 149.9281769   0.5109847  50.4028702 149.7523956  -0.7594411
  53.0439987 151.9011688   2.7741621  53.6532173 152.9027557   2.4305964
  53.5608025 150.6375732   2.8246686  53.0371742 149.8138580   3.0843344
  54.9468117 150.2981415   2.5034318  55.2549362 151.0876312   1.8179724
  55.8522453 150.3613739   3.7063591  55.6054611 149.5197754   4.3535976
  57.2789879 150.2085419   3.1636286  57.6058617 150.9264984   2.4114337
  57.9424362 150.3223724   4.0209341  57.4034462 149.2312927   2.6971223
  55.8586998 151.6390991   4.5886188  56.6691513 152.3252869   4.3428059
  54.9114990 152.1744080   4.5226264  56.0923996 151.2891388   6.0661039
  57.0527496 150.7881622   6.1879668  56.1142426 152.1621399   6.7183990
  55.3275032 150.6296387   6.4761109  54.9261208 148.9515381   1.7600355
  54.6386681 147.8727264   2.3722060  55.4279366 148.8871002   0.5171168
  55.6036224 149.7803650   0.0797148  55.7252083 147.6676178  -0.2931840
  55.1452942 146.8191681   0.0700503  55.1753349 147.8574219  -1.6958438
  54.1610909 148.2513885  -1.6309966  55.7314224 148.7093048  -2.0872068
  55.2116585 146.6705017  -2.6714885  56.2784309 146.4870758  -2.7997653
  54.8845253 145.7839355  -2.1282456  54.4622841 146.9693909  -3.9704800
  53.4061432 147.0655670  -3.7186406  54.8454056 147.9311676  -4.3115163
  54.6174507 145.7934875  -4.8858280  54.7005539 144.8752899  -4.4733725
  54.6233940 145.7379761  -6.1991434  54.6277046 146.8424530  -6.8781710
  54.4025993 147.7121277  -6.4165597  54.6394196 146.7837830  -7.8863974
  54.6634598 144.5533905  -6.7539072  54.8012161 143.6762390  -6.2725153
  54.8853111 144.5562439  -7.7392364  57.1852226 147.2622681  -0.1220242
  58.0243721 148.1212311   0.0869884  57.4934120 146.0034332  -0.2883933
  56.7868652 145.3062134  -0.4749155  58.8687515 145.6015930  -0.5336406
  59.6093407 146.3997345  -0.4826729  59.3312683 144.5039978   0.4615318
  58.6942520 143.6244354   0.3683755  60.8070259 144.1545410   0.2082969
  61.4010086 144.9781952  -0.1877915  61.2411728 143.9086304   1.1773915
  60.8702927 143.3573456  -0.5323686  59.2814522 145.0386047   1.7929674
  59.2527771 144.3717194   2.4829352  58.9715996 145.0471954  -1.9124857
  58.1379700 144.1851807  -2.3335779  59.9019241 145.5597839  -2.7282670
  60.5217133 146.2716827  -2.3688903  60.2797813 144.9161224  -3.9899132
  59.4226608 144.4311829  -4.4571233  60.7703743 145.9251709  -5.0341177
  61.4180336 146.6571045  -4.5514960  61.2763405 145.3487549  -5.8086176
  59.6919289 146.6425476  -5.9318085  58.9668808 145.9024658  -6.2704740
  59.1846085 147.2584839  -5.1892848  60.1736679 147.5453033  -7.0493412
  60.2973785 148.7608337  -6.9127278  60.3666191 146.9571991  -8.2377348
  60.7149239 147.6265717  -8.9090996  60.4263840 145.9539490  -8.3378754
  61.2219429 143.7541809  -3.7013988  61.9857254 143.8277893  -2.7272763
  61.2087402 142.7618103  -4.6076598  60.7664337 142.9421997  -5.4975619
  61.7807045 141.4123077  -4.3500061  61.3251228 140.9668274  -3.4656491
  61.4840050 140.4250183  -5.4543624  61.9382935 140.7062988  -6.4044161
  61.9072342 139.4802399  -5.1132073  60.1228867 140.0975037  -5.6755724
  59.8925209 140.6858978  -6.3982878  63.3141365 141.5167847  -4.2312074
  63.9344635 140.6159668  -3.6322629  64.0206223 142.5171967  -4.7584467
  63.4727554 143.2900696  -5.1086230  65.4435501 142.8076019  -4.4791145
  66.0777512 141.9231873  -4.5400739  66.0020142 143.6838379  -5.5749545
  67.0795517 143.8481903  -5.5774422  65.8689880 143.1847229  -6.5347934
  65.3791275 145.0348511  -5.6441460  64.4081573 145.3276062  -4.9035687
  65.8400497 145.8150940  -6.5265980  65.7676697 143.3724060  -3.0635903
  66.9617691 143.5680084  -2.7600322  64.7618561 143.4866180  -2.2190821
  63.8691788 143.3724670  -2.6775625  64.6623230 143.7027740  -0.8070112
  63.7698135 143.1742859  -0.4720183  65.5371552 143.2682343  -0.3233277
  64.4767838 145.1595612  -0.3492724  64.2721176 145.3952942   0.8199415
  64.4922943 146.1355438  -1.2758429  64.7474670 145.8849792  -2.2204082
  64.1928864 147.5370789  -1.0002960  64.7315216 147.8046112  -0.0912356
  64.8331757 148.5275574  -2.0124576  64.6785202 149.5717926  -1.7408384
  66.3885422 148.3813629  -2.0629871  66.6379776 147.3301086  -2.2070470
  66.8717575 148.8315735  -2.9301229  66.9686356 148.6918793  -1.1939824
  64.1721420 148.2934875  -3.4755909  64.9704590 148.3894348  -4.2115145
  63.6771011 147.3226013  -3.4549074  63.1491661 149.4314575  -3.7380307
  63.6064644 150.4179688  -3.8141506  62.6897392 149.1544952  -4.6868834
  62.3386192 149.4430695  -3.0093508  62.7336121 147.8721619  -0.7301115
  61.9140854 147.2751160  -1.3489656  62.4379997 148.8237762   0.1502162
  63.1840210 149.3282471   0.6074411  61.0754471 149.1324158   0.4374587
  60.3830605 148.3960266   0.0294975  60.8218040 149.2535095   1.8917333
  61.3000832 150.1540070   2.2770617  59.7519836 149.1626129   2.0796640
  61.3825951 148.0186310   2.6605160  61.2332878 147.1557922   2.0114346
  62.4414749 148.2339935   2.8037124  60.7252808 147.8728790   4.0865159
  61.0665741 148.5775146   5.0346055  59.7515869 146.9794159   4.1874609
  59.3477821 146.7899933   5.0936413  59.5650558 146.3209076   3.4447162
  60.6859550 150.3519440  -0.3284006  61.4803429 151.2262115  -0.7272653
  59.3550987 150.4505920  -0.5819278  58.7609673 149.6618347  -0.3698795
  58.7509842 151.5757294  -1.2642316  59.4116592 152.4264374  -1.4312867
  58.3059311 151.0452118  -2.6244500  57.8328667 150.0632477  -2.6157568
  57.5568047 151.7539825  -2.9773664  59.4602394 151.0806580  -3.6830080
  60.4520187 151.0676575  -3.2310052  59.4593430 150.1294250  -4.2152395
  59.4259491 152.1844025  -4.7326851  59.2304649 153.3726044  -4.5046692
  59.6600533 151.8734589  -5.9915843  59.6059570 152.6256866  -6.6633930
  59.8521729 150.9190979  -6.2606263  57.4994049 152.0641479  -0.5741339
  56.4422493 151.4126740  -0.5536963  57.5916748 153.2785492  -0.0055644
  58.4899864 153.7255554  -0.1210390  56.5123940 153.9008636   0.8171203
  55.8800735 153.1389618   1.2729330  57.2451630 154.6527557   1.9251662
  57.7999382 155.4917145   1.5050812  56.5285759 154.9539490   2.6892943
  58.0260849 154.0851440   2.4312086  55.6291618 154.9104462   0.0094897
  56.0657196 155.8298492  -0.6620733  54.2870941 154.7962646   0.1931630
  53.9930077 154.1934509   0.9482959  53.2635803 155.7718658  -0.2535451
  53.6364136 156.3953094  -1.0662072  51.9938812 155.0985870  -0.6629645
  51.7946892 154.2999573   0.0515961  51.1966667 155.8397369  -0.6059220
  52.0571976 154.5154572  -2.1097207  52.5709915 155.1470795  -2.8344095
  52.5406189 153.5398712  -2.0583503  50.6447334 154.4913330  -2.7261899
  49.9739189 153.9664459  -2.0460413  50.3244438 155.5299988  -2.8078976
  50.5613289 153.9443817  -4.1776729  49.6053810 154.2054291  -4.6316781
  51.2833824 154.5081635  -4.7683420  50.7728539 152.4632263  -4.2458630
  49.8845482 152.0324554  -4.0326881  51.0542374 152.1552887  -5.1657000
  51.4253159 152.1186371  -3.5561867  53.1105804 156.6811981   0.9777749
  52.9185600 156.2467194   2.1303704  53.2111740 158.0005951   0.6860008
  53.3927307 158.2837524  -0.2663434  53.2098846 159.0320282   1.7397392
  52.8204956 158.5270844   2.6237636  54.7336311 159.4060364   2.0349455
  54.6321487 160.0311890   2.9220669  55.7033920 158.2896118   2.4066308
  55.6888695 157.5512848   1.6049145  56.7122650 158.7015076   2.3815463
  55.4114113 157.8486481   3.3597350  55.3929214 160.2372742   0.9380484
  54.8021736 161.1114044   0.6641434  56.2962227 160.6507874   1.3865443
  55.5821495 159.6230927   0.0576604  52.3631859 160.2265778   1.3165989
  52.0510445 160.3956757   0.1683814  51.9538918 161.0877838   2.2745700
  52.2025986 160.8787689   3.2308927  51.4235306 162.4304352   1.9747699
  51.3266144 162.5728607   0.8984689  50.0097160 162.4957886   2.6292238
  49.4050560 161.6286316   2.3636136  50.1095581 162.5106201   3.7145400
  49.3684387 163.8405457   2.3404238  49.9871025 164.6549530   2.7173851
  49.1741714 163.9438171   1.2728546  48.0073204 164.0751648   3.0666387
  47.1316490 163.2182007   3.1073866  47.7601357 165.2345123   3.6569667
  46.8722725 165.4079895   4.1060896  48.4569206 165.9653931   3.6770093
  52.4490662 163.4736786   2.5796213  52.7227516 163.4087830   3.7900314
  52.9276962 164.4223328   1.8130884  52.5294456 164.4624786   0.8857890
  53.8246040 165.4707336   2.2179134  54.6672821 165.0480499   2.7650409
  54.5033531 166.1041260   0.9910990  53.7320175 166.1289978   0.2213442
  54.8485413 167.6498260   1.1680154  55.5297928 167.8057098   2.0044956
  55.3961830 168.0166016   0.2998748  53.9564323 168.2752533   1.2010472
  55.7280731 165.3913879   0.4719920  56.0316505 165.9286346  -0.4265029
  56.5152969 165.6304169   1.1870066  55.6546898 163.8911591   0.1644571
  54.6726418 163.5964508  -0.2054382  56.3277283 163.5303955  -0.6133420
  55.8528938 163.3462677   1.0874497  53.1128540 166.4935760   3.1279869
  52.1156044 167.1318970   2.7919183  53.6490593 166.6309967   4.3348494
  54.5774040 166.2719727   4.5062208  53.1173592 167.4737854   5.3960981
  52.0452080 167.4762726   5.1996770  53.3878784 166.8316803   6.7658396
  54.4337807 166.5380096   6.6767664  53.3303299 167.5483551   7.5850863
  52.5087090 165.6704407   7.1338792  52.3773308 164.9862061   6.2956290
  53.0235367 164.9803314   8.4018698  52.9370918 165.6186066   9.2812042
  52.4124680 164.1063690   8.6274529  54.0270576 164.5925140   8.2268219
  51.0958061 166.1159973   7.4739933  50.5106888 166.5443420   6.6602011
  50.5309448 165.2738953   7.8738751  51.0703125 166.8744202   8.2564430
  53.6686668 168.8636780   5.3936481  54.8788681 169.0886841   5.3815851
  52.7183342 169.8384094   5.3997302  51.3228378 169.6876068   5.1573133
  50.8839149 169.0693207   5.9403658  51.1797638 169.3095551   4.1450353
  50.7070580 171.0498505   5.1717272  50.5089760 171.3977051   6.1855621
  49.8036308 171.0532532   4.5618734  51.8147163 171.8695679   4.4696136
  51.6236153 172.9371796   4.5780473  51.8363724 171.6396637   3.4043539
  53.0698357 171.2181549   5.1299739  53.9255905 171.3469086   4.4672365
  53.4413452 171.9450836   6.4144359  52.9628716 171.6529388   7.5076447
  54.2325439 172.9786987   6.2402310  54.5617867 173.2753754   5.3326631
  54.4922371 173.9340973   7.3067489  54.7630081 173.4585876   8.2494402
  55.7518158 174.7919312   6.8955617  55.6979294 175.1348114   5.8623037
  55.8424377 175.6657410   7.5408068  57.0508804 173.9313965   7.0059123
  56.9726791 173.0692749   6.3435507  57.9286652 174.4844971   6.6717305
  57.2535591 173.4456329   8.4701786  57.8595924 174.2327118   9.2486267
  57.0486679 172.2699890   8.8604374  53.2765999 174.8738556   7.4769053
  52.7305489 175.4936066   6.5681930  52.7141571 174.8999176   8.7256708
  53.0874176 174.4146576   9.5289803  51.6309052 175.8357391   8.9995356
  51.0353508 175.9085541   8.0895252  50.7033958 175.3238220  10.1462488
  51.2913132 175.0594940  11.0252161  50.0397263 176.1670227  10.3377552
  49.9115448 174.0393219   9.6820040  49.5805588 174.1593170   8.6504278
  50.6438293 173.2327881   9.7191715  48.7765541 173.6021271  10.6076422
  48.4210739 172.6849976  10.1379585  49.1110420 173.4411469  11.6324863
  47.7206802 174.6067810  10.5590858  47.8803291 175.4103241   9.9683962
  46.4576035 174.5652771  10.9951038  46.1105003 173.7001953  11.8520813
  46.8232574 173.0804596  12.2098541  45.1739845 173.5236664  12.1865673
  45.5984612 175.4963684  10.6785164  45.8305931 176.1825256   9.9746609
  44.6204643 175.4093323  10.9152613  52.2512894 177.1863861   9.2378674
  52.6473846 177.3995667  10.3619051  52.1690331 178.1298218   8.3160410
  51.9152374 177.8687439   7.3739543  52.6117897 179.5635834   8.4834423
  53.4955444 179.6595154   9.1142092  52.9503174 180.1949463   7.1071615
  52.1741333 180.0934296   6.3486538  53.0723343 181.7319031   7.2226033
  53.5191078 182.0583038   8.1617327  53.6479607 182.0792542   6.3646374
  52.0415916 182.0860138   7.2057400  54.3107948 179.6331177   6.6319432
  54.1743622 178.6208649   6.2513876  54.6655502 180.2375946   5.7971678
  55.0768547 179.7666779   7.3957591  51.3987160 180.2918243   9.1030474
  50.3487053 180.4211426   8.4534874  51.4913254 180.6234131  10.3826914
  52.3683510 180.4057007  10.8338451  50.5076370 181.4497528  11.1145372
  49.5443459 181.3353119  10.6174698  50.2266579 180.9366455  12.5341749
  51.1274910 181.0867310  13.1292162  49.4529114 181.5265198  13.0255594
  49.8013992 179.4717712  12.6167259  50.4888077 178.8613892  12.0310564
  49.7246819 178.9331055  14.0752726  49.1254578 179.5987091  14.6965809
  49.4072876 177.8923035  14.0113335  50.7293282 178.8565826  14.4911203
  48.4389992 179.2274170  11.9794979  48.3787880 179.5074158  10.9277973
  48.3132858 178.1492920  11.8797836  47.6490746 179.7952118  12.4711647
  50.8510971 182.9095459  11.0523396  52.0313606 183.3076782  11.3750772
  49.8589668 183.7375183  10.6481104  48.5373001 183.4492950  10.0749216
  47.9796562 182.7614441  10.7105322  48.5694695 182.9713898   9.0958033
  47.7750397 184.7556610   9.8703909  47.1442413 185.0151825  10.7205896
  47.0891342 184.6609497   9.0285683  48.9345284 185.7162933   9.7408905
  48.5745583 186.6549988  10.1620264  49.2670288 185.7197723   8.7028475
  50.0916901 185.1759796  10.5721407  51.0147552 185.3856354  10.0316772
  50.2111130 185.7433014  11.9926949  49.9047127 184.9957428  12.9508820
  50.5683517 187.0357666  12.1437120  50.7898178 187.5545044  11.3058786
  50.7885170 187.7568665  13.4196358  51.6420670 187.2486267  13.8682261
  51.1229630 189.2402954  13.0799761  52.0133171 189.3122101  12.4553204
  50.3677711 189.7354126  12.4695282  51.3111877 190.0559845  14.2221613
  50.7818909 190.8473969  14.0992241  49.5680008 187.6435242  14.3019552
  48.4661293 187.8384399  13.7838058  49.6769829 187.3934174  15.6140423
  50.5803757 187.2275696  16.0341282  48.5001526 187.0665436  16.4537086
  48.0093346 186.2616882  15.9065371  48.9059067 186.5197601  17.8243847
  48.1789398 186.5836639  18.6340370  49.4035988 185.0521393  17.8563862
  50.1985435 184.9505157  17.1175747  49.7381897 184.8742828  18.8784046
  48.4868546 184.5431671  17.5586624  49.9628792 187.3998413  18.2112312
  50.1624260 187.3480835  19.1488361  47.6127892 188.2586212  16.6808662
  46.4039841 188.0553131  16.9231243  48.1018486 189.4552612  16.4588146
  49.0934792 189.5340271  16.2839851  47.2739944 190.6980133  16.5872440
  46.4569778 190.5543213  17.2943077  48.1160049 191.8081207  17.1606560
  48.9073601 192.0252838  16.4432297  47.4664268 192.6765900  17.2699013
  48.7297859 191.5386658  18.4659920  49.0945396 190.5116577  18.4484959
  49.5707321 192.2183380  18.6037521  47.6129341 191.6181183  19.9081440
  47.7145729 189.9278870  20.4784660  48.7083511 189.7095947  20.8694324
  46.9505310 189.7342224  21.2313519  47.4742126 189.2163849  19.6884823
  46.6275330 191.0568848  15.2890644  45.8770447 192.0309601  15.2810764
  46.9414330 190.3948364  14.1166220  47.4623947 189.5297699  14.0973692
  46.5139389 191.0261383  12.7778893  46.8793106 192.0529785  12.7912426
  47.2758675 190.4020538  11.6024017  47.2136574 191.1017761  10.7689600
  48.3324585 190.3642883  11.8675222  46.8264427 189.1417999  11.1107235
  47.2451172 188.9363251  10.2716208  45.0155258 191.0677338  12.4242487
  44.5415382 192.0651550  11.8153114  44.2624855 190.0829773  12.9533720
  44.7026062 189.3070831  13.4270496  42.7879829 189.9889526  12.8674660
  42.4991608 190.2455902  11.8482389  42.3108788 188.5625458  13.1606379
  42.4446373 188.5637360  14.2424011  41.2520561 188.4518585  12.9266758
  42.9062195 187.7588196  12.7273922  42.0803528 191.0887756  13.7113457
  40.9047203 191.2647705  13.7380610  42.8834877 191.8353119  14.5249624
  43.8837967 191.7151184  14.4540281  42.4186096 192.7534027  15.6151447
  41.3359070 192.6396637  15.5610857  42.8248367 192.1743317  17.0069199
  43.2479782 191.1939545  16.7880077  43.8450241 192.9693298  17.7835541
  43.5035019 193.9817657  17.9990749  44.0418053 192.4695435  18.7320213
  44.7934151 193.0084534  17.2477150  41.6380119 191.8500824  17.8493996
  41.1095543 191.0006714  17.4165745  41.9842033 191.6233826  18.8577938
  40.9453087 192.6909027  17.8853130  42.7682648 194.2682953  15.4986343
  41.9232635 195.1058655  15.8397388  43.9449234 194.6146698  14.9994221
  44.5692482 193.8382874  14.8334284  44.5211868 195.9673157  14.8370361
  44.2328339 196.5854950  15.6872196  46.1144905 195.8687897  14.9748335
  46.5302925 196.8597717  15.1569214  46.3367691 195.2691193  15.8574905
  46.8031693 195.1062927  13.7529573  46.4657478 194.0703735  13.7864561
  46.4483147 195.4230652  12.7722273  48.3436165 195.2079926  13.7617750
  48.9058075 195.7630157  14.6336079  49.0370674 194.6848755  12.7501335
  50.0359039 194.8321838  12.7771454  48.5973930 194.1667938  12.0028877
  44.1075478 196.7907562  13.6659126  44.8752441 197.4937439  13.0686216
  42.8014717 196.6692963  13.2783909  42.2447739 196.0146790  13.8091135
  42.0842934 197.3541718  12.1549330  42.7965813 197.4259796  11.3329897
  40.8343201 196.5476379  11.7776508  40.3006973 196.1659241  12.6480761
  40.1657982 197.2287903  11.2511368  41.2469025 195.3741455  10.8767004
  41.9765587 195.7689667  10.1697302  41.9008369 194.2112732  11.5861750
  41.5155258 194.1181488  12.6015387  41.7125702 193.2310944  11.1481209
  42.9718208 194.3912354  11.6794538  40.0155716 194.8371277  10.1121187
  39.5393219 195.6295471   9.5347357  40.2159653 194.0020142   9.4409132
  39.2917137 194.4965057  10.8524685  41.7640495 198.8084564  12.4873018
  40.6047440 199.2637177  12.6111708  42.8165207 199.5490570  12.7421741
  43.7159081 199.1144409  12.5928097  42.8149185 200.9227905  13.2277241
  41.9628105 201.4827881  12.8424692  42.6665573 200.9224243  14.7830896
  42.8857613 201.9349060  15.1221266  41.6218300 200.7774506  15.0580873
  43.4990730 199.8852539  15.6123857  43.1010437 198.8747101  15.5204048
  44.5375900 199.9014435  15.2817593  43.6131744 199.9903564  17.1216621
  44.3425140 199.3189850  17.7503452  42.8813095 200.9231110  17.6962643
  42.7371674 200.8642883  18.6941929  42.3120346 201.5759735  17.1768341
  44.1323204 201.6345215  12.8192139  45.1356163 200.9471893  12.6352339
  44.1767273 202.9446259  12.7344780  43.3178596 203.4609833  12.8603086
  45.3173485 203.6918793  12.2703552  45.4501228 203.4889221  11.2076797
  44.9678307 205.2138519  12.2290096  45.8251038 205.8104248  11.9170771
  44.1606369 205.4050140  11.5219059  44.5550232 205.5836639  13.6036806
  44.1115494 206.4320068  13.5311317  46.6504707 203.4940186  13.0676231
  47.7439156 203.8574829  12.5673113  46.5998955 202.8492432  14.2358932
  45.6988754 202.5950928  14.6149302  47.8108978 202.3986969  14.9960299
  48.5223312 203.2240295  15.0242004  47.3671761 202.0578156  16.4619751
  46.4340706 201.4949799  16.4367371  48.0494537 201.3385468  16.9150276
  47.2729111 203.2269897  17.4263458  48.2603264 203.6676636  17.5638905
  46.1781311 204.2912140  17.1666107  45.2128220 203.8001709  17.0435028
  46.1384506 205.0361176  17.9613724  46.4318008 204.7919312  16.2322483
  46.8110390 202.5182190  18.7436295  47.4439468 201.6427612  18.8889122
  46.8893814 203.1515961  19.6272545  45.7794685 202.2096558  18.5740852
  48.6010742 201.2222290  14.3335772  49.7581863 200.9420471  14.7514849
  48.1300125 200.5498962  13.2546072  47.2204018 200.8364258  12.9220276
  48.7089043 199.2338562  12.8193359  48.6845970 198.5520020  13.6693850
  47.7774467 198.6226501  11.7066212  48.1567154 197.6418915  11.4196033
  46.7833633 198.4496918  12.1189137  47.5920982 199.5078125  10.6157789
  46.6893082 199.8279877  10.5520964  50.1686440 199.2829590  12.2708378
  51.0246391 198.4310455  12.4525423  50.4700661 200.4737396  11.6952162
  49.6701088 201.0635223  11.5154285  51.7062378 200.9526215  11.0132113
  52.1082039 200.1129303  10.4462357  51.3332596 202.0174255   9.9974756
  52.1712189 202.1201019   9.3079939  50.5605469 201.5253143   9.4068508
  50.9570541 203.3570557  10.5789385  50.1251183 203.1816559  11.2610092
  51.8010635 203.7078400  11.1728201  50.6158066 204.4862671   9.6106644
  51.4475708 205.0206451   9.1516428  50.0081177 203.9898224   8.8541183
  49.7573814 205.5209656  10.1900511  48.7828026 205.4850616   9.9273539
  50.0983810 206.5907745  10.9065542  51.3258629 206.8270569  11.1827288
  52.0930672 206.3592377  10.7216005  51.4530602 207.4712982  11.9501057
  49.2435303 207.4556427  11.3944063  48.2513962 207.2807922  11.3223505
  49.6133957 208.2633057  11.8750277  52.8610535 201.4055786  11.9365520
  53.7891388 202.0867157  11.4680738  52.8324127 201.0170593  13.2185869
  52.2060242 200.2652588  13.4686947  53.9880905 201.2782745  14.1274805
  54.4364853 202.2348328  13.8590794  53.4580421 201.4452362  15.5890217
  53.0291557 200.4901886  15.8923960  54.3407974 201.6143951  16.2056561
  52.4485550 202.6383820  15.8286972  52.9556618 203.5806580  15.6212091
  51.6323395 202.6188660  15.1065311  51.9578171 202.7631683  17.2846508
  51.1830444 203.5296631  17.2671280  51.5783577 201.7922821  17.6032600
  52.9647064 203.2061920  18.3145351  53.4198112 204.0685272  18.0511665
  52.8911209 202.9312744  19.5979118  51.9943314 202.1319122  20.1481895
  51.4283257 201.5791016  19.5203896  51.8616180 202.0253143  21.1437416
  53.6341705 203.6073608  20.4648094  54.4245453 204.1404266  20.1312866
  53.4699478 203.4799805  21.4531956  55.1293907 200.2283020  13.9492254
  55.2499428 199.2761536  14.7108641  55.8646049 200.4060974  12.8287868
  55.6370239 201.1959839  12.2419405  56.7491150 199.4167938  12.1850014
  56.2655029 198.4420929  12.2496357  56.7540283 199.6860504  10.6666517
  55.8896370 200.2264099  10.2807207  57.6679573 200.2336121  10.4364100
  56.8043404 198.4283142   9.8011570  57.7524261 198.0215149   8.8810253
  57.4112587 196.8258209   8.4694529  57.8377380 196.2816467   7.6397543
  56.2726212 196.4567413   9.0445662  55.8116493 195.5659485   8.9258394
  55.8683624 197.4477234   9.8895006  54.9369278 197.4048309  10.4344711
  58.0560722 199.1925964  12.8346710  58.6163940 200.0497284  13.5215216
  58.6717072 198.0223999  12.5751886  58.2619858 197.3809204  11.9113159
  59.8375092 197.4946747  13.2789545  59.6112709 197.6931763  14.3265772
  59.8552017 195.9443207  13.1985674  60.8097038 195.6487579  13.6340780
  58.6765175 195.2882233  13.9675379  57.7737770 195.3002472  13.3567839
  58.9767418 194.2493439  14.1043158  58.5745163 195.6745148  14.9816761
  59.8274536 195.4867401  11.7373657  58.8229256 195.5992279  11.3294783
  60.4832611 196.1500702  11.1734438  60.4765091 194.0944214  11.5880899
  59.8429222 193.3704224  12.1004419  60.5572777 193.8994904  10.5187063
  61.4914818 194.0726166  11.9848948  61.1766510 198.1749420  13.0089445
  61.3516579 198.8552399  11.9869699  62.2984734 198.0619812  13.7130318
  62.9737701 198.7367249  13.3831768  62.8492889 196.9422455  14.5413952
  63.8517609 197.2597656  14.8283167  62.1095314 196.8019104  15.8496447
  61.1391373 196.3187714  15.7355223  62.7345581 196.1006775  16.4025688
  61.9657669 198.1033325  16.6857758  63.0147476 198.9751282  16.9142570
  64.0048981 198.6943054  16.5869408  62.8831749 200.1583405  17.6527843
  63.6767006 200.8388214  17.9241657  61.6014481 200.4366913  18.2184944
  61.4872742 201.3141022  18.8377800  60.5078888 199.5765686  18.0062923
  59.5284882 199.8138885  18.3947029  60.6727028 198.3739624  17.2472115
  59.7737236 197.7992401  17.0800953  63.3013649 195.6945953  13.6833630
  63.7042084 195.8914337  12.5344715  63.4251022 194.4621735  14.2686176
  62.5644569 193.8412781  15.2465839  61.5570869 194.2565918  15.2180481
  62.9632149 193.9282837  16.2572937  62.5074005 192.3367920  14.9000778
  61.6738892 192.1728973  14.2170753  62.4333801 191.7980347  15.8447332
  63.7909775 192.0473328  14.1431341  63.5875092 191.6901245  13.1336279
  64.4107742 191.2543945  14.5617132  64.5171967 193.4414368  14.0489359
  65.1619186 193.4648743  14.9275055  65.3602676 193.6427765  12.7665730
  64.8241959 193.3527069  11.6521292  66.6731415 193.8967743  12.7381706
  66.9540863 194.0125885  11.7749662  67.7193069 194.2286682  13.7732143
  68.6259460 194.5457306  13.2578754  68.1114655 192.9795074  14.5841379
  68.7038727 193.3172302  15.4344893  67.2076187 192.5048981  14.9661312
  68.7992172 192.0055695  13.8338032  69.7488098 192.1277313  13.9041824
  67.3895111 195.3401184  14.7747278  66.2476044 195.7203674  14.9859838
  68.4815216 195.8267059  15.4226255  69.3768387 195.3870392  15.2638903
  68.4682693 196.7751465  16.5305691  67.6394196 197.4665070  16.3784637
  68.1191711 195.9785919  17.8393383  67.4480286 195.2186127  17.4392223
  69.0250015 195.5510712  18.2692165  67.3608246 196.7548370  18.7790680
  66.5099335 197.0603027  18.4561558  69.7793579 197.6087036  16.8109055
  69.9191360 198.1295471  17.9222527  70.8248367 197.7884521  16.0110645
  71.4652100 198.3791962  16.5220032  71.4579391 197.1321259  14.8577442
  72.4864578 197.4922028  14.8333654  70.7311325 197.5481415  13.5259504
  69.6829147 197.2654572  13.6231050  70.7877045 198.6277313  13.3868027
  71.2549438 196.9071655  12.1794529  71.1178741 195.8277130  12.2432890
  70.5699997 197.2381897  11.3988314  72.7951508 197.2355347  11.8408632
  73.4004211 196.9672546  12.7067595  73.1380310 196.6397858  10.9949274
  72.9813309 198.7297668  11.4531422  72.4787521 199.2720795  12.2540283
  74.0334320 199.0097656  11.4002733  72.3623657 199.0279999  10.1130447
  71.4171600 198.6798096  10.0392418  72.2973633 200.0221252   9.9468966
  72.9055557 198.6370392   9.3566074  71.6765442 195.6475067  15.1024809
  70.9031143 194.8738403  14.5725336  72.6020737 195.2455902  15.9524393
  72.4777145 194.0233459  16.7037163  72.3686752 193.2103424  15.9859161
  71.6165009 194.1715546  17.3552208  73.7612686 193.8303528  17.4840298
  73.9182205 192.7575073  17.5957146  73.6714706 194.4012909  18.4081879
  74.8093567 194.5043945  16.5921364  75.6778030 194.8583374  17.1476746
  75.0955734 193.8323822  15.7830715  74.0007324 195.6322937  15.9214668
  74.3317490 195.6461487  14.8830385  74.3510971 197.0157471  16.4992104
  73.7365417 197.4328461  17.4928246  75.4748306 197.5522308  16.0599403
  75.9342270 197.0074463  15.3442144  76.2657318 198.6896362  16.5643711
  77.1344757 198.7684784  15.9107857  75.5107269 199.9956512  16.3051434
  75.1663513 200.0067444  15.2710333  74.6050339 200.0783997  16.9059601
  76.2997055 201.3245392  16.4956379  76.4480515 201.4466400  17.5685711
  77.2901459 201.2859344  16.0421505  75.5442276 202.5457306  16.0704174
  74.6757278 202.5457001  16.7290649  76.1796722 203.4161377  16.2337933
  75.1743317 202.6180725  14.5945539  76.0120010 202.2177734  14.0234413
  74.3291092 201.9332275  14.5261402  74.8940048 204.0424194  14.1257238
  75.7318039 204.5765533  14.3070993  74.6266022 204.1406555  13.1567326
  74.1244659 204.4308167  14.6520824  76.8490601 198.4862518  17.9458599
  77.9183884 199.0436554  18.2063103  76.2248917 197.7000885  18.8101273
  75.3184814 197.3460693  18.5395870  76.6951065 197.3500061  20.2018547
  77.3686371 198.1371307  20.5408211  75.4552078 197.3500977  21.2099209
  75.8109131 197.0116577  22.1830750  74.9938202 198.7734833  21.4054489
  74.5315628 199.2852783  20.5613632  74.1200104 198.7508392  22.0566387
  75.7205658 199.4030151  21.9189148  74.2057800 196.4840393  20.7518177
  74.4952545 195.7019501  20.0499268  73.6702499 195.9541473  21.5395412
  73.5271530 197.0890198  20.1505108  77.4243546 195.9434204  20.4416275
  78.0126953 195.7028198  21.5635796  77.4838638 195.0725403  19.3849487
  77.1704330 195.3949738  18.4805698  77.7431412 193.6677399  19.5250645
  77.6755066 193.2511139  18.5200939  79.2579575 193.2940369  19.8572674
  79.5004044 193.6134186  20.8708305  79.4916382 192.2293854  19.8625927
  80.2932281 193.8753662  18.9624825  81.1823425 194.7894592  19.3624458
  81.2568054 195.1734924  20.3691120  81.9650879 195.1461792  18.2760334
  82.7594376 195.7697144  18.2938385  81.6064682 194.4356689  17.1512527
  82.1584244 194.4713593  15.8309145  83.0022354 195.0856323  15.5533390
  81.6184921 193.6790161  14.8410921  82.0206375 193.7304535  13.8400755
  80.6447067 192.7778168  15.2725258  80.3873749 192.0444946  14.5225801
  80.1141434 192.6812134  16.5698509  79.3241119 191.9946289  16.8360519
  80.5462418 193.5832062  17.5896358  76.7253494 192.8957520  20.4484558
  75.5006561 193.0588989  20.3621368  77.2366714 192.0579681  21.3737640
  78.2001572 192.2635803  21.5962811  76.4585724 191.3071289  22.3688774
  77.2756500 190.8788147  22.9494228  75.5585480 190.1757812  21.8838825
  74.9421158 189.9965057  22.7647820  74.9092941 190.6138458  21.1258202
  76.3004913 188.9442596  21.3425980  75.5827255 188.2887115  20.8494568
  77.0008163 189.2915192  20.5829563  76.9720840 188.1267395  22.4328728
  77.3355560 188.5994110  23.4969883  77.3338165 186.8849182  22.1527176
  77.9584045 186.3813782  22.7662525  76.9226303 186.3492432  21.4016609
  75.8677063 192.2209320  23.4759407  75.4366455 193.3063049  23.2422161
  76.0311432 191.6518402  24.6568718  76.4294815 190.7238159  24.6422405
  76.2210999 192.2041016  26.0208015  75.9226913 191.3620758  26.6453342
  77.7355270 192.4525604  26.3796825  77.9324799 192.8314819  27.3825474
  78.1153946 191.4528809  26.1688614  78.4307251 193.4816895  25.4815884
  78.5604248 194.6257782  25.9416733  78.8338165 193.2097015  24.3013229
  75.3781738 193.5134125  26.2760792  75.4415665 194.5948792  25.6601868
  74.5191956 193.3870392  27.3020973  74.4559860 192.4782715  27.7382698
  73.7999954 194.5171356  27.9335861  73.0195389 194.0268555  28.5155048
  74.7738495 195.1825409  29.0301304  74.1990280 195.9120178  29.6006813
  75.0733109 194.3729248  29.6956730  76.0991135 195.8580780  28.6580544
  76.8173523 195.4528351  29.3708000  76.4499969 195.6140747  27.6553345
  76.0272598 197.4246368  28.6798496  75.2132187 197.8183899  29.2884426
  76.9718323 197.6650848  29.1677685  76.0755310 198.0802002  27.3333035
  75.3367844 198.7391205  27.1328354  77.1490326 198.3652039  26.6530533
  78.2479630 197.6408844  26.6071358  78.2316284 196.7648773  27.1095848
  79.0571899 197.8630676  26.0450935  77.0718842 199.3545837  25.8401928
  77.8031845 199.5570374  25.1736221  76.2672348 199.9622803  25.7822247
  72.9741821 195.5225983  27.0414772  72.5011673 195.0916443  26.0091782
  72.5455551 196.7039032  27.6169491  72.6467056 196.7928619  28.6179256
  71.6362610 197.7002411  27.0598946  71.5043259 198.4403381  27.8491650
  72.3800354 198.3366852  25.9207077  72.7334442 197.7354889  25.0829926
  71.7917938 199.0972290  25.4072571  73.2763977 198.8600769  26.2534199
  70.1348114 197.4518127  26.7735920  69.2575912 198.1888428  27.0478458
  69.8487091 196.3763733  26.0668640  70.5912628 195.7434082  25.8059883
  68.5561523 196.2142944  25.3239536  68.1448898 197.1951447  25.0853882
  68.8345871 195.6020813  23.9457245  67.8585129 195.4432526  23.4872990
  69.3450699 196.2995453  23.2816067  69.5463715 194.2705994  23.7926674
  69.3177032 193.1304321  24.6140137  68.6231003 193.2071838  25.4374485
  69.9943619 191.9165955  24.3038292  69.8839722 191.0507050  24.9397907
  70.8065186 191.8161163  23.1431217  71.3647385 190.9207306  22.9127388
  71.0812683 193.0018311  22.3667049  71.7506027 192.9626312  21.5200348
  70.3981705 194.2140656  22.6734295  70.6152420 195.0380249  22.0098209
  67.3555908 195.5571594  26.0232162  66.2664261 195.4111328  25.4913292
  67.5352325 195.1890106  27.3355293  68.4902573 195.3373871  27.6288013
  66.5600586 194.4431610  28.1938210  66.1642532 193.6332550  27.5810452
  67.0518951 193.9949188  29.5916653  66.6880798 194.6425171  30.3893757
  66.6565628 192.9836273  29.6870499  68.5881195 193.9746094  29.7444019
  68.8242798 193.1180725  30.3757992  69.0222549 193.7514343  28.7698135
  69.1815720 195.2167511  30.3998814  70.2546997 195.0558319  30.5027790
  68.9510498 196.0728607  29.7658062  68.7271347 195.4638672  31.7642002
  68.1282883 194.7915192  32.2218437  68.9194946 196.5980530  32.4410896
  69.4511185 197.6717377  31.9596519  69.7438126 197.7157593  30.9939938
  69.3524551 198.5651398  32.4203110  68.4054718 196.7913361  33.6098366
  67.9993896 196.0664520  34.1840706  68.1274109 197.6988373  33.9551201
  65.3026428 195.3847961  28.3208160  64.1699295 194.8770142  28.3023281
  65.5045624 196.7466278  28.3301334  66.4301758 197.1378479  28.4315491
  64.3793793 197.6120148  28.2932053  63.6075783 197.3431702  29.0144157
  64.8396072 199.0239410  28.6403503  65.6276093 199.3944702  27.9847164
  63.9743423 199.6868134  28.6368561  65.3618011 199.1575012  30.0764618
  64.7432404 198.5372314  30.7251053  66.3269424 198.6771088  30.2372093
  65.3309402 200.5860901  30.5761242  65.5655441 201.5643921  29.8635864
  65.1194839 200.7880707  31.8540058  65.1043701 201.7275848  32.2244110
  65.1127853 200.0767212  32.5709686  63.7368240 197.5867462  26.8933220
  62.5573044 197.3910065  26.8165359  64.4451523 197.6627960  25.7220917
  65.3362350 198.1362457  25.6784229  63.8116608 197.5576935  24.4289417
  63.0966339 198.3757172  24.3412476  64.8371658 197.7047272  23.3018551
  65.3281250 198.6745758  23.3822689  65.6002350 196.9301605  23.3785000
  64.1615448 197.6250763  21.9617882  63.5906105 198.6200867  21.2730923
  63.5230408 199.6522675  21.5835876  63.0574379 198.0905762  20.1311378
  62.6487770 198.6621094  19.4055614  63.0993347 196.7126465  20.1355305
  62.5642357 195.7442627  19.2454147  61.9144402 196.0233612  18.4291573
  62.9396782 194.3792725  19.3057442  62.5089912 193.6454468  18.6406059
  63.8875809 193.9985352  20.3261967  64.1557999 192.9597321  20.4500904
  64.4120560 195.0316925  21.2083607  65.2605057 194.7435150  21.8112564
  63.9399757 196.3713379  21.2057381  62.9460564 196.2758484  24.2393475
  61.8746643 196.4085083  23.7132931  63.3492012 195.1099091  24.8006897
  64.2650986 195.0597382  25.2234383  62.5513496 193.8570404  24.6697178
  62.2917061 193.8658447  23.6111298  63.3585777 192.6454163  25.0243664
  64.1005249 192.9410553  25.7661266  62.7368050 191.8191071  25.3689175
  64.1208878 192.0838165  23.9007263  65.4183350 192.3061676  23.6502876
  66.1207047 192.9473267  24.1621418  65.7299728 191.5775604  22.5289669
  66.6717529 191.5753784  22.1640587  64.6685333 190.9078217  21.9588432
  64.3911362 190.1064453  20.8021603  65.0562668 189.9140930  19.9733047
  63.1244354 189.5355072  20.6274624  62.9217796 188.9022217  19.7764091
  62.1003990 189.7711334  21.5270367  61.1294861 189.3170166  21.3947067
  62.2989883 190.6592102  22.6259727  61.4866943 190.8901520  23.2992077
  63.5780640 191.2897339  22.8109531  61.2132530 193.9710236  25.4439373
  60.2688942 193.4104767  24.8715553  61.0726547 194.8054199  26.4987946
  61.9305992 195.2706909  26.7587070  59.7596703 195.2756653  27.0118580
  59.1487885 194.3779297  27.1067791  59.8584404 195.8289490  28.4545364
  60.4864388 196.7194366  28.4268570  58.8740120 196.1268005  28.8155079
  60.4694595 194.8395386  29.3889980  59.7846680 193.9931793  29.4421444
  61.4254189 194.4672852  29.0206814  60.6391792 195.4953156  30.7635117
  61.2372055 196.5589294  30.9131413  60.1996078 194.8536377  31.8631096
  60.5321999 195.2948151  32.7086029  59.7821579 193.9347534  31.8245125
  59.0400696 196.2956696  26.1543026  57.8216972 196.2208557  25.9911995
  59.7584457 197.2870941  25.5720005  60.7209053 197.3552399  25.8705425
  59.2625427 198.3315582  24.6948147  58.4890404 198.8610077  25.2511234
  60.3666840 199.2506104  24.4116192  60.9961243 199.4415894  25.2807713
  61.0089951 198.8562317  23.6242142  59.8300629 200.6190033  24.0518703
  59.0759468 200.5415039  23.2686691  59.3320732 201.0603333  24.9152050
  60.9108315 201.5805359  23.4425354  61.8113670 201.7773743  24.0242519
  61.2949524 201.0423889  22.5759583  60.3950386 203.0139008  23.0363007
  61.2477913 203.5129089  22.5759602  59.5261192 202.9593353  22.3804798
  60.0864105 203.8713074  24.2196445  60.9431343 203.9640045  24.7464619
  59.9078331 204.8487244  24.0383053  59.3059540 203.5218811  24.7571220
  58.6041946 197.7576904  23.4744568  57.5206947 198.1556091  23.0611973
  59.3146057 196.8296967  22.8005829  60.2060699 196.5367126  23.1741409
  58.7379494 196.1508484  21.6351871  58.5599518 196.8582153  20.8252182
  59.8395538 195.2743378  21.1167965  60.7120628 195.8729401  20.8550606
  60.2210350 194.5935516  21.8777790  59.5289574 194.2891998  19.9871731
  59.1841965 194.7367706  18.6581898  59.0923195 195.7881012  18.4286728
  58.8725166 193.8291168  17.6188393  58.5893784 194.1677704  16.6331673
  59.0979958 192.4187469  17.8828163  58.8026352 191.4275970  16.9590149
  58.0358696 191.5227203  16.3892593  59.3954277 191.9805298  19.1592407
  59.3691864 190.9117584  19.3124275  59.5182190 192.8589478  20.1979027
  59.7822037 192.5224152  21.1895943  57.4889870 195.2689362  21.9286346
  56.4287453 195.4229584  21.3013935  57.6102333 194.5479279  23.0379620
  58.4795036 194.5870514  23.5507355  56.4788437 193.8163910  23.5984287
  56.0884743 193.0519104  22.9266548  57.0411873 193.1122742  24.9060593
  57.8274193 192.4211121  24.6023540  57.5023766 193.7859802  25.6282234
  55.9958878 192.3953857  25.7774925  55.3669319 193.1512604  26.2477798
  55.3125114 191.6822357  25.3164940  56.6454353 191.6467133  26.9179230
  57.6173973 190.9168091  26.7773361  55.9831581 191.5914154  28.0981178
  56.4477463 191.2380829  28.9223843  55.2249146 192.2580261  28.1263485
  55.2948112 194.8141174  23.9356861  54.1765671 194.5695953  23.3670597
  55.5650673 195.9787903  24.5773277  56.4934921 196.2089081  24.9016247
  54.5067177 196.9956665  24.7893791  53.7503395 196.3848877  25.2822895
  54.9901428 198.0044861  25.7968273  55.6371193 197.5425873  26.5425892
  55.6422348 198.6671906  25.2278786  53.8468933 198.7719421  26.5434093
  53.2693024 199.3707428  25.8391914  53.2262268 198.0501404  27.0743370
  54.4630432 199.6148987  27.6398220  54.8703575 199.0200958  28.4573879
  55.1940041 200.3104858  27.2275867  53.3350792 200.4295502  28.2407780
  52.9253426 201.1583710  27.5414619  52.4757614 199.8551025  28.5867157
  53.8255424 201.2516174  29.4080963  54.6464081 201.7989502  29.1919460
  53.0956841 201.8970642  29.6741924  54.0527458 200.6983185  30.2219391
  53.9048843 197.7014313  23.5360222  52.6646042 197.7938538  23.4054947
  54.6737289 198.0183716  22.5028133  55.6663361 197.9449005  22.6743793
  54.2826729 198.5452728  21.1493092  53.5480461 199.3346710  21.3082371
  55.5668221 199.1841278  20.5079880  55.7830315 199.9545746  21.2481136
  56.3253822 198.4320068  20.2912140  55.2779427 199.8743286  19.1386795
  54.8091660 199.1702423  18.4512024  54.6715164 200.7542114  19.3534679
  56.5855103 200.3742371  18.4977398  57.3771324 199.6270447  18.5536919
  56.3959045 200.5770264  17.4436874  57.0452538 201.6068878  19.1603947
  56.8176041 201.6305847  20.1441231  57.6252441 202.6573944  18.6080742
  57.8045502 202.7729187  17.3187237  57.5323257 202.0288849  16.6922989
  58.2603302 203.5771790  16.9118786  57.9431076 203.7370148  19.3193188
  57.7670593 203.8008728  20.3118057  58.4146538 204.5207520  18.8909626
  53.5592995 197.5354919  20.2356682  52.5291939 197.8891144  19.6250629
  54.1005974 196.2849274  20.0690975  55.0272636 196.1423798  20.4446812
  53.5283356 195.2070465  19.1916218  53.1629868 195.6336670  18.2574844
  54.6270180 194.2158051  18.8168964  55.3456573 194.7917633  18.2338562
  55.0327682 193.7701874  19.7251358  53.9915428 193.0520325  18.0532951
  53.4110451 192.3530121  18.6553707  53.3526382 193.4690247  17.2748184
  55.0818253 192.2365723  17.2796421  55.4995193 192.9011993  16.5234013
  55.9328156 191.9726257  17.9075413  54.4765739 191.0475006  16.6256046
  55.2186317 190.2795410  16.4072266  53.7232819 190.6087494  17.2799397
  53.7521896 191.4134521  15.3763380  54.3859711 191.7093201  14.6477213
  53.2472229 190.6620178  14.9286060  53.0783310 192.1340332  15.5926037
  52.3344879 194.5947418  19.7437725  51.4033203 194.2630157  19.0266495
  52.2274132 194.3765564  21.0797176  52.9754410 194.7693329  21.6331348
  51.0621605 193.6406250  21.6792088  50.3815994 193.4240723  20.8557758
  51.3954811 192.2221985  22.3508453  51.8656349 192.3607941  23.3244190
  50.4488678 191.7072601  22.5147552  52.2705841 191.4077759  21.4623280
  51.7643814 190.5096588  20.4583130  50.6920547 190.4784241  20.3336678
  52.6272812 189.6614990  19.7939091  52.2201538 188.9286194  19.1130753
  53.9897995 189.7200317  20.0053463  54.6301880 189.0862885  19.4098072
  54.5180168 190.5470886  21.0190868  55.5732155 190.7714386  21.0702534
  53.6586266 191.4108734  21.6804924  54.1076050 192.1276245  22.3521118
  50.3045502 194.5767365  22.6026440  49.3453751 194.1261749  23.2720699
  50.5040627 195.9058075  22.4957180  51.2872276 196.2215881  21.9416027
  49.5243683 196.9134064  22.9180489  49.6673088 197.1065521  23.9812336
  49.7558746 198.2404327  22.1059837  50.8062820 198.5164642  22.0135536
  49.4858322 198.0468597  21.0678501  49.0850639 199.4962769  22.4635715
  49.5694847 200.2792511  23.4945621  48.9760513 201.4735260  23.2847481
  49.2501488 202.3861389  23.7930889  48.0498276 201.4180450  22.3205967
  47.4880295 202.1973877  22.0089970  48.1238327 200.1535950  21.7468491
  47.7342682 199.8311005  20.7925777  48.0570641 196.6682434  22.5773354
  47.1676636 197.0685730  23.3193283  47.7028770 196.0329742  21.4415417
  48.5069466 195.6704407  20.9494572  46.3402290 195.7957458  21.0071468
  45.7519035 196.6758118  21.2668953  46.2776337 195.6677094  19.4496803
  46.8296432 194.7705231  19.1695976  45.2396431 195.5312805  19.1462612
  46.9660759 197.1550598  18.6595039  45.9240150 197.9393921  18.3699799
  45.6279259 194.6332092  21.7028999  44.4656639 194.3489838  21.4370155
  46.2797203 193.9842377  22.6253948  47.2142792 194.3259125  22.7985115
  45.8123779 192.9220123  23.5404873  45.4526520 192.0833740  22.9443569
  46.9983559 192.4204559  24.3940907  47.2330704 193.1764221  25.1434422
  46.7575035 191.5054474  24.9352360  47.7802086 192.0612946  23.7249088
  44.6206894 193.4722443  24.3515892  43.7754440 192.6730804  24.7493401
  44.5635643 194.7263794  24.6057930  45.0424843 195.4017334  24.0273247
  43.3986931 195.3532410  25.3251781  43.3795967 195.0271912  26.3651047
  43.7342491 196.8684692  25.3266907  42.9611244 197.4008026  25.8807659
  44.5791550 197.0939026  25.9773941  43.9218369 197.3587036  24.0293541
  43.8979225 198.3055573  24.1858921  42.0646477 195.1194916  24.7067699
  41.0846634 195.1443634  25.4787502  41.9387093 194.9154358  23.3860340
  42.8135605 194.7671814  22.9035854  40.7095604 194.6488190  22.6597099
  39.8772278 195.1973877  23.1006126  40.8927040 195.0442047  21.1758728
  41.5197067 194.3135529  20.6648788  39.9654121 194.9879303  20.6057281
  41.4879494 196.4778290  20.8729420  42.5001984 196.5786591  21.2644653
  41.5804253 196.6041718  19.3679581  40.5638924 196.6103973  18.9746037
  42.0630074 197.5746765  19.2524376  42.1234016 195.7770691  18.9106083
  40.6047554 197.6247406  21.3441925  40.3109474 197.4999542  22.3864098
  41.1865120 198.5371552  21.2132149  39.6730614 197.6174774  20.7785110
  40.2758827 193.1471252  22.6941662  39.1589012 192.7712555  22.1705475
  41.0478783 192.1804199  23.2051125  41.9714928 192.4616547  23.5016651
  40.5602341 190.8789978  23.5904865  39.5033760 190.7496643  23.3572006
  41.3877754 189.7868347  22.8069191  41.0829887 188.8244171  23.2179813
  41.1904678 189.6269379  21.3401241  41.4785309 190.5931244  20.9258976
  41.7960167 188.7821350  21.0118809  40.1665039 189.3952637  21.0469723
  42.7363434 189.9846039  23.0776367  43.2056313 189.2954102  22.6018467
  40.6502571 190.6827545  25.1254978  40.7583923 191.6284485  25.9295769
  40.4717674 189.3888702  25.5387001  40.2651596 188.6583710  24.8725433
  40.3193741 189.0374908  26.9490414  39.8152008 189.8155823  27.5221786
  39.2704391 187.9123993  27.0343781  39.1428452 187.7761688  28.1082802
  38.2970200 188.1405640  26.6002121  39.8150826 186.7691803  26.4003506
  39.4956398 186.0064545  26.8880157  41.5765038 188.6732788  27.7289886
  41.4927216 188.4730530  28.9341717  42.7263260 188.6932983  27.0588074
  42.6533279 188.9218750  26.0777225  44.0977936 188.4283905  27.6151524
  44.0038223 188.1373444  28.6613655  44.7554283 187.1430817  26.9347496
  45.2335892 187.3382416  25.9748688  45.6442947 186.8254089  27.4798164
  43.8942184 185.9267578  26.7405682  43.3597717 185.4866943  25.5910721
  43.4682999 186.0051880  24.6499081  42.6800156 184.2665405  25.7598553
  42.2274971 183.7558441  25.0151997  42.8232956 183.8676147  27.0670319
  42.4888916 182.6725159  27.6816692  41.8650475 181.9311523  27.2045918
  42.9861679 182.4636078  28.9762402  42.7142448 181.4770355  29.3214283
  43.7455635 183.4357910  29.6995258  43.9698257 183.2679901  30.7425747
  43.9286613 184.6796112  29.1008167  44.4191742 185.5045013  29.5961514
  43.5838356 184.8811493  27.7510910  45.1334839 189.5884857  27.5833282
  45.1251907 190.4834747  26.7292309  46.0349426 189.5625153  28.6131382
  46.1764755 188.5737000  29.6804924  46.3452339 187.5843658  29.2552357
  45.3025055 188.6669464  30.3251476  47.4103928 188.9313660  30.4341869
  48.2123260 188.3979645  29.9238186  47.4100761 188.6987000  31.4990635
  47.5450516 190.4100189  30.1925392  48.5396652 190.8106079  30.3884487
  46.8236046 190.9247131  30.8271370  47.0228386 190.5611572  28.7633648
  46.4701309 191.4959869  28.6700249  48.1897812 190.4459076  27.7167854
  48.3926277 189.4506836  27.0668583  49.0815392 191.4915619  27.6339417
  48.7583237 192.8387756  28.1969929  49.0570641 192.7910767  29.2441692
  47.7056923 193.0642395  28.0259895  49.6031418 193.7791748  27.4451065
  49.8567810 194.6317291  28.0751114  49.1020584 194.0996094  26.5316830
  50.8131599 193.0028381  27.0355892  51.4833832 192.9193420  27.8911190
  51.3128204 193.5243835  26.2192326  50.1871643 191.6278534  26.6696930
  49.8087349 191.6764832  25.6486530  51.2352486 190.4713440  26.7806530
  51.6616592 190.0310822  25.7113037  51.6447983 189.9591522  27.9239807
  51.1455116 190.3535309  28.7083778  52.6572647 188.8563232  28.0952663
  53.5848808 189.1763763  27.6207104  52.9864693 188.7574158  29.5821037
  53.7650719 187.9964294  29.6349201  53.5415535 189.6618500  29.8310699
  51.9057045 188.5035248  30.6804466  51.3018723 189.4028168  31.5016422
  51.4980354 190.4648438  31.5016403  50.3085861 188.7744904  32.2157059
  49.7290611 189.3237152  32.8342628  50.1863480 187.4553375  31.9245510
  49.4178123 186.3822021  32.4019814  48.5846291 186.6128540  33.0492859
  49.5309792 185.0755463  31.9454060  48.9061317 184.2432709  32.2339821
  50.5928802 184.8751831  31.0371819  50.6864967 183.9209442  30.5401096
  51.4979897 185.8465576  30.6294136  52.2396851 185.6121216  29.8801975
  51.2606125 187.1914978  31.0315342  52.2682228 187.5074158  27.4956017
  53.1712875 186.7172699  27.1864738  50.9788971 187.2499847  27.2872734
  50.3556252 188.0010376  27.5471897  50.5029716 185.9892883  26.7859230
  50.9268227 185.2470703  27.4623528  48.9865112 185.8974457  26.8854713
  48.6898956 186.0376892  27.9249172  48.5619926 186.7005157  26.2830086
  48.4370842 184.5246429  26.3642597  48.8507805 184.3348236  25.3738422
  48.5985260 183.3597412  27.3226128  48.0690918 183.5455933  28.2570934
  48.1378098 182.4556580  26.9245281  49.6514053 183.2607422  27.5867310
  46.9252625 184.5290985  26.0453243  46.6598854 185.2763062  25.2974243
  46.5740089 183.5909424  25.6156864  46.3891487 184.6869202  26.9811535
  51.0965424 185.7217712  25.3987980  51.7276497 184.7227325  25.1704788
  50.9145241 186.6486053  24.4569798  50.4777794 187.5139160  24.7409000
  51.2983093 186.5859375  23.0373955  50.8235245 185.7209625  22.5742702
  50.5956841 187.7442017  22.3216076  51.0652313 188.6792755  22.6269913
  50.7836647 187.6202545  21.2551174  49.0608978 187.8396149  22.5200901
  48.1716537 187.0461426  21.6925182  48.6468430 186.4550323  20.9236240
  46.7670059 186.9635315  21.9505844  46.1490936 186.3669739  21.2958317
  46.2862167 187.7723999  22.9657917  44.9473953 187.6770172  23.2440357
  44.4171562 187.4852448  22.4670753  47.1398163 188.5915985  23.7775917
  46.7768555 189.1462860  24.6302319  48.4878693 188.6362305  23.5166683
  49.0857239 189.3665314  24.0416718  52.7827911 186.6043854  22.8534737
  53.2963676 186.1221008  21.8600559  53.6126785 187.0281219  23.8548985
  53.1401482 187.5893250  24.5490665  55.0881310 186.8240814  23.8307228
  55.3868828 187.3062744  22.8999481  55.8096619 187.5323486  24.9286575
  55.7161865 186.9750214  25.8607330  56.8443756 187.5878296  24.5904503
  55.3070717 188.8452454  25.1891403  55.5606117 189.3154755  25.9867706
  55.4054909 185.3340912  23.8158607  56.3438873 184.9705963  23.0806541
  54.6311760 184.5277710  24.5524750  53.8727684 184.9367676  25.0793934
  54.7537346 183.0692596  24.6052818  55.8116646 182.8124390  24.6594429
  54.1135902 182.5632629  25.9397449  53.0399628 182.4181213  25.8199139
  54.4171219 181.5237122  26.0634212  54.4759331 183.3291321  27.2316341
  54.0311470 184.3219452  27.1637764  53.8788300 182.6342468  28.4433460
  54.2686157 181.6323242  28.6231213  53.9597969 183.2823486  29.3159943
  52.8438721 182.4412842  28.1609840  55.9781380 183.5282135  27.4678650
  56.3180428 184.1886902  26.6701565  56.2383385 184.0441895  28.3920727
  56.5368996 182.6162262  27.2577248  54.0317917 182.3905487  23.4332848
  53.8193283 181.1987915  23.5097923  53.6340828 183.1013794  22.3777657
  53.7671776 184.1004639  22.4427395  53.1448784 182.5557709  21.1488972
  53.5587044 181.5525970  21.0463715  51.6333885 182.2893066  21.2152786
  51.0145493 183.1248779  21.5423107  51.3125648 182.0786743  20.1950817
  51.1977921 181.1321564  22.0461578  50.7318230 181.4185028  23.3498993
  50.8858757 182.4167023  23.7323513  50.1061592 180.4338989  24.0414829
  49.6713371 180.6253662  25.0113640  49.8900833 179.1046448  23.4686775
  49.1283340 178.1608276  24.1075935  48.9015656 178.4040527  25.0081615
  50.3931389 178.8212891  22.1876316  50.1451912 177.8760223  21.7278576
  51.0530891 179.8567047  21.4598122  51.3413811 179.5946350  20.4525337
  53.6657219 183.2579193  19.8610497  53.3238869 182.8369293  18.7338238
  54.5851936 184.2361755  20.0199451  54.6529350 184.5664368  20.9720154
  55.2760696 185.0311432  19.0161705  54.5970230 185.3315582  18.2182121
  55.6284409 186.3354492  19.6999474  54.7480240 186.9737396  19.7743874
  56.0356407 186.1019745  20.6837082  56.5956726 187.2012787  18.9339657
  56.4896278 187.3570709  17.6940937  57.4402771 187.8294220  19.6126461
  56.4859467 184.3269348  18.3735905  57.4022751 183.9043579  19.0688419
  56.5477219 184.2278900  17.0472240  55.7792549 184.5487213  16.4757080
  57.7031708 183.5802155  16.3514309  57.8566666 182.5493011  16.6704254
  57.3491173 183.5470123  14.8711596  57.1723061 184.5229797  14.4191370
  58.0820122 183.0490723  14.2363157  56.4779930 182.9300232  14.6507473
  59.0464859 184.2573700  16.6162472  60.0394745 183.5384827  16.6758118
  59.1094246 185.6313934  16.6493874  58.1896477 186.0457611  16.6003952
  60.3314133 186.3938293  16.9373817  61.1572151 186.0812531  16.2982826
  60.1123810 187.9268341  16.5919514  59.3603897 188.3494263  17.2582951
  61.0216255 188.4691315  16.8513317  59.7229691 188.2514496  15.1246977
  58.7636261 187.7514801  14.9913435  59.5689392 189.3248138  15.0138760
  60.8222046 187.7771606  14.0792341  62.0658989 187.8951721  14.1905117
  60.3371277 187.3513031  13.0206289  60.8576546 186.2529144  18.3704758
  62.0422630 186.0797577  18.6872692  59.9299202 186.2339935  19.3652306
  58.9932137 186.5618134  19.1775417  60.3452682 185.9741821  20.7787075
  61.2714996 186.5038757  21.0014648  59.1750793 186.4222107  21.7064571
  58.1916008 185.9876709  21.5274563  59.4836998 186.2704315  23.2104454
  60.4347839 186.7862396  23.3426151  58.7608452 186.7936859  23.8363628
  59.5580063 185.2408142  23.5604000  58.9776917 187.8224487  21.5848846
  58.6219406 187.8989563  20.6965199  60.7447357 184.5108795  20.9512253
  61.8352509 184.2688446  21.4136486  59.8703804 183.6244354  20.5106468
  59.0407143 183.9138489  20.0126591  60.3379974 182.2034607  20.5776405
  60.5166054 181.9943237  21.6323719  59.2330093 181.2707214  20.0875950
  59.0416412 181.6824036  19.0966415  59.6447678 180.2646942  20.0072536
  57.8883286 181.1548462  20.8187256  57.4936295 182.1195374  21.1375847
  56.7992859 180.4252930  19.9939308  57.1986465 179.4987183  19.5815468
  55.9176445 180.1843414  20.5878563  56.4557266 181.0491791  19.1687965
  58.1370468 180.3228912  22.0704250  58.8839188 180.7404175  22.7456799
  57.2310944 180.2800903  22.6750031  58.4703941 179.2953339  21.9251652
  61.6616096 181.8376007  19.8738003  62.3712120 180.9180450  20.3426704
  62.0665665 182.5259857  18.8133774  61.5289383 183.3358459  18.5391731
  63.3620338 182.3484344  18.2167130  63.5191040 181.2728882  18.1354408
  63.5755653 183.0093231  16.8962288  63.1880836 184.0250397  16.9754982
  64.6348877 183.1063385  16.6584759  63.0275040 182.3240204  15.6644087
  63.5821037 181.4018250  15.4909744  61.9975700 182.0511169  15.8943272
  63.1252975 183.3476868  14.1813679  64.8630219 183.0792542  13.6819363
  65.4448318 183.3683929  14.5571518  64.9228210 182.0311890  13.3885422
  65.0703583 183.7024994  12.8120604  64.4542770 182.8377228  19.1673393
  65.4587860 182.1164246  19.4678230  64.3675537 184.1186523  19.5301552
  63.6154213 184.7226562  19.2308559  65.3446884 184.7098999  20.4234486
  66.2499466 184.6515503  19.8191261  65.1140900 186.2192841  20.5676689
  64.9340897 186.7573395  19.6369762  64.1767349 186.2440796  21.1234150
  66.1499939 186.9877319  21.4572544  65.7150803 187.9364166  21.7717876
  66.2562332 186.5167389  22.4344883  67.5305023 187.1064606  20.7858696
  67.5931778 187.4543915  19.6058655  68.5676727 186.9289551  21.5385361
  65.5433350 184.0132904  21.7774734  66.7104721 183.8484802  22.1928825
  64.5407104 183.4291534  22.3874912  63.5960045 183.5756683  22.0616741
  64.7685318 182.5920715  23.6114769  65.2417755 183.1567383  24.4147797
  63.3981018 182.2146759  24.2379761  62.8680573 181.6050873  23.5061626
  63.6257133 181.5958710  25.1059456  62.6280937 183.4454956  24.7082691
  63.0720406 183.9788208  25.5488548  62.4490929 184.0663452  23.8304272
  61.1935501 183.0222168  25.2460957  60.5597839 183.8729553  25.4964962
  60.7445602 182.5366669  24.3796387  61.3117180 182.0691223  26.3878460
  62.2034569 181.9511261  26.8471718  60.3368759 181.1796875  26.7924213
  59.0805359 181.1974487  26.3142776  58.8711243 181.9017334  25.6212940
  58.3528214 180.6031647  26.6848946  60.6117516 180.2526093  27.6344223
  61.5013161 180.2878113  28.1114254  59.9277649 179.5957489  27.9819679
  65.6491089 181.3671722  23.4011974  66.4474640 181.0044708  24.2084980
  65.6291428 180.7771606  22.1998482  64.9307098 181.0242615  21.5133915
  66.6279831 179.8034821  21.7497482  66.8604279 179.1557007  22.5950012
  66.0062103 178.8928528  20.6296158  65.5397797 179.4592743  19.8235645
  67.0723877 177.8631287  20.2400341  67.4129868 177.3573761  21.1435356
  66.6051178 177.0765686  19.6475182  67.8497162 178.3720093  19.6700401
  64.8023682 178.1181641  21.2127647  63.9720917 178.8237610  21.2420139
  64.5807648 177.3697205  20.4519501  65.1409149 177.6824036  22.1527691
  68.0449677 180.4629059  21.4383850  69.0460968 179.8138733  21.7741108
  68.1690369 181.7184906  20.8900719  67.3312836 182.2165375  20.6250820
  69.4921722 182.3031006  20.6214027  70.0998993 181.5899658  20.0644379
  69.3662949 183.6224976  19.7896633  68.6893234 184.3590240  20.2224827
  70.3827286 184.0137939  19.7466831  68.9260788 183.3828735  18.3110847
  69.6327515 182.6460876  17.9291573  67.9094696 182.9913330  18.3470669
  68.9167099 184.6357422  17.5343552  68.0473633 185.2424622  17.7877979
  69.7811737 185.2502136  17.7858410  68.8132477 184.4843597  15.9885073
  69.3454819 183.6459198  15.5392513  67.7869873 184.2543640  15.7021456
  69.2818069 185.7100830  15.2878799  70.1969986 185.9985352  15.6030464
  69.4520874 185.5186920  14.3109055  68.7692413 186.5605621  15.4724302
  70.2694855 182.5900726  21.9234543  71.4839172 182.3249664  22.0021152
  69.4422302 182.8877106  22.9214592  68.5136795 183.2334137  22.7255688
  69.9419327 183.0230865  24.3463268  70.8907623 183.5516968  24.2547016
  68.9097519 183.8966370  25.1299419  68.5266495 184.6765137  24.4718132
  68.1230316 183.2447662  25.5097218  69.5565720 184.5970764  26.2919846
  69.8899307 183.8446350  27.0066910  70.3856506 185.2386780  25.9935246
  68.5693436 185.5296936  27.1022682  69.0885544 185.8122253  28.0180702
  68.4188080 186.4577637  26.5507851  67.3026733 184.7969971  27.4291363
  67.3786697 183.7997742  27.5700741  66.0834427 185.2333221  27.5031834
  65.8253632 186.5335236  27.3788853  66.6270218 187.1085358  27.1625366
  64.8665695 186.8508301  27.3906517  65.0959396 184.4395599  27.8839912
  65.3494415 183.5785980  28.3472137  64.2150726 184.8769226  28.1139889
  70.2801819 181.6945953  25.0019150  70.7220306 181.6399841  26.1572304
  69.9718018 180.5238495  24.3442307  69.3794250 180.5825195  23.5282993
  70.7079086 179.2595978  24.6467037  71.0911484 179.3452301  25.6635113
  69.7598724 178.0168915  24.6661777  69.0065994 178.2339630  25.4235134
  69.2370987 177.9573059  23.7115822  70.3565979 176.6854095  25.1335583
  69.5482101 175.9669495  24.9978428  71.1962204 176.3524323  24.5234318
  70.8086243 176.6838684  26.6037769  69.9888077 176.7127228  27.4900055
  72.0950775 176.5940094  26.8068466  72.4427795 176.6308899  27.7543945
  72.7288208 176.4901886  26.0272980  71.9421387 179.0041962  23.7865086
  73.0206451 178.7543488  24.3153095  71.7358704 179.0632782  22.4364014
  70.8628769 179.4275665  22.0824547  72.7767029 178.7987213  21.3916264
  73.0678787 177.7493286  21.4374695  72.1813202 179.0222015  19.9821911
  71.8826752 180.0679932  19.9098244  73.0198288 178.9379883  19.2908821
  70.9696808 178.1913757  19.5246868  70.1517639 178.2981415  20.2372341
  70.5934219 178.8274689  18.1323490  71.3852844 178.6443329  17.4060364
  69.6967773 178.3769379  17.7067471  70.4571762 179.8993073  18.2762184
  71.3343811 176.6918030  19.3855934  71.5739059 176.3033295  20.3754578
  70.4049454 176.1949768  19.1073341  72.0633392 176.4940796  18.5997028
  74.0459671 179.7395172  21.5599232  75.1649933 179.3362122  21.2124138
  73.9543533 180.9328461  22.1266899  73.0418930 181.3527222  22.2326775
  75.1099930 181.8143921  22.4508133  75.7501221 181.8096924  21.5685902
  74.7460709 183.2758026  22.6979275  73.8185425 183.3672485  23.2631035
  75.5020599 183.6869507  23.3669109  74.6167603 184.0593567  21.4704323
  75.7162857 184.4703827  20.6345768  75.1931534 185.2300415  19.6442680
  75.7646408 185.8716125  18.9899063  73.8552246 185.2686615  19.7997551
  73.2572021 185.8861847  19.2695198  73.4564743 184.5455322  20.9399853
  72.4576569 184.5179901  21.3498554  76.0765915 181.2616577  23.5307236
  77.2522964 181.5927887  23.4961281  75.5246124 180.5148010  24.4524384
  74.5410156 180.2989655  24.3745861  76.2551575 179.8028870  25.4573002
  77.1980515 180.3156281  25.6474342  75.4296951 179.6180725  26.7069378
  74.5782547 178.9969025  26.4289265  75.9929810 179.1615295  27.5208015
  74.9399414 180.9524689  27.2471161  75.5444336 181.7606964  26.8354645
  73.9468460 181.1349792  26.8365498  74.9138718 180.9766846  28.8051548
  75.5484848 181.8764801  29.3831539  74.2730942 180.0800018  29.4521828
  76.7448120 178.4385986  24.9434719  77.8498688 178.0453796  25.3097324
  76.0904770 177.7160187  24.0541592  75.2428589 178.0268402  23.6013546
  76.7370682 176.5103912  23.4717789  77.2729645 175.9972534  24.2702789
  75.6529770 175.5367126  22.8840942  75.0994339 176.1458282  22.1694775
  76.2296753 174.7707672  22.3655872  74.6866379 174.8829498  23.8274841
  74.9055099 174.8394623  25.1666393  75.7399521 175.2108459  25.7429905
  73.8126450 174.1557465  25.7748966  73.7590332 173.9535980  26.7630062
  72.8630753 173.8371429  24.8142624  71.6094360 173.2424316  24.8604755
  71.2491302 172.8623505  25.8049965  70.8245926 173.0503540  23.7095394
  69.8032074 172.7060852  23.7776852  71.3394623 173.4193726  22.4326744
  70.8408966 173.2327423  21.4929943  72.5987625 174.0785675  22.4385815
  73.0366058 174.4050140  21.5068474  73.3743439 174.3315887  23.6238232
  77.8233414 176.8034363  22.4081364  78.5269699 175.8784637  21.9898453
  77.9574890 178.0733032  21.9692802  77.4678497 178.7682343  22.5146618
  78.9060593 178.4720001  20.9599380  79.8231277 177.8908691  21.0567684
  78.2576447 178.2099915  19.6196194  77.9460449 177.1655579  19.6318684
  77.3686447 178.8305817  19.5070744  79.2772827 178.4130707  18.4953232
  80.4524536 178.6710663  18.7637062  78.8810806 178.3579102  17.2924347
  79.3110123 179.9127502  21.1291523  78.7052917 180.8318329  20.6242867
  80.3177109 180.0752563  21.9803123  80.5683212 179.2972717  22.5736332
  80.8589096 181.3484497  22.3405914  80.0598297 182.0357513  22.6184196
  81.8563004 181.1378937  23.4916000  82.7527542 180.5695648  23.2436676
  82.1777725 182.1273346  23.8168297  81.3180389 180.4532166  24.6920357
  81.7445145 180.8734131  25.6028862  80.2389755 180.5196533  24.8310184
  81.6792374 178.9517059  24.7317333  81.4382401 178.2473755  23.7413311
  82.3069839 178.4980164  25.6963425  81.5622940 182.1828003  21.2636471
  82.2902527 183.1309967  21.5055885  81.3919601 181.8884125  19.9673004
  80.6391144 181.2328949  19.8136272  81.9612350 182.6203308  18.8611069
  82.2154541 183.5912018  19.2864056  83.2035141 181.9085846  18.3853703
  82.8690262 180.9409637  18.0112915  83.6398315 182.3860016  17.5079937
  84.3182373 181.7303314  19.3926411  84.4747620 180.6990356  20.0414352
  85.2069550 182.7165680  19.4473763  85.9440384 182.6295166  20.1323776
  85.1081314 183.6079865  18.9829235  80.9369888 182.8045959  17.6967049
  81.3388290 183.0599365  16.5601978  79.6639252 182.4346161  17.9629612
  79.5261612 182.1925659  18.9338017  78.5763931 182.4203644  17.0155430
  78.7589951 181.8528748  16.1030083  77.4767914 181.6068878  17.7332230
  77.9954681 180.6983948  18.0393391  77.0740585 182.0928497  18.6218948
  76.3164597 181.1198730  16.8051395  76.7285614 180.7488251  15.8667374
  75.5362167 180.0595093  17.4920692  74.9729919 180.4113922  18.3563862
  74.8082504 179.7112732  16.7593307  76.2811584 179.3112946  17.7629032
  75.3150177 182.2141266  16.4868469  75.8541870 182.9173279  15.8520880
  74.4332886 181.8458405  15.9624224  74.9808197 182.7053070  17.4007168
  78.1842957 183.8756714  16.6256390  77.4335632 184.4553986  17.3999405
  78.6556396 184.4326324  15.5122204  79.5398102 184.0708771  15.1843719
  78.0612793 185.6340790  14.8271379  77.9585876 186.4872742  15.4976625
  79.1061859 185.9842987  13.6801844  79.3363953 185.0591125  13.1518517
  78.6633301 186.6565704  12.9453182  80.4015045 186.5887146  14.2600794
  80.1884232 187.5477142  14.7323265  80.8607407 185.9700470  15.0310898
  81.4433899 186.8978577  13.1655569  82.3527985 187.3111572  13.6017380
  81.7915497 185.9362030  12.7886114  81.0305405 187.7713470  11.9608908
  81.7393265 187.8240356  11.1344833  80.1143341 187.4315796  11.4779634
  80.9740372 189.1709137  12.4601936  81.8390198 189.5950165  12.7635908
  80.5426559 189.8208313  11.8186064  80.3809891 189.2323456  13.2754393
  76.7388153 185.2158051  14.2664003  76.7516937 184.1364746  13.6580782
  75.6315842 185.8407135  14.6641912  75.6543655 186.5588531  15.3740168
  74.2190933 185.3858185  14.3807554  73.9307785 184.5855408  15.0623188
  73.1983414 186.5211487  14.6424513  73.6371918 187.4663391  14.3228846
  72.3276062 186.3391571  14.0125351  72.6309204 186.6544800  16.1270847
  73.4362488 186.2325134  17.0125961  71.4321899 186.9953308  16.3451614
  73.9715805 184.9824066  12.9120512  73.0688934 184.1510010  12.6929255
  74.7042847 185.5904388  11.9399385  75.3114090 186.3139954  12.2976408
  74.7385178 185.3342133  10.4676208  73.8111954 185.7199707  10.0441093
  75.9131775 186.1051636   9.8861685  76.8131332 185.6508331  10.3006077
  75.9148788 186.0146179   8.7999363  76.0889969 187.5937195  10.2735596
  76.2496033 187.7233124  11.3438463  76.9570923 187.9370728   9.7108669
  74.8666229 188.4360962   9.8917227  74.3481369 188.2490082   8.7531147
  74.4430237 189.3561249  10.6443605  74.9344711 183.8664093  10.0099506
  74.7200470 183.4810791   8.8820915  75.4280777 183.0096741  10.9136982
  75.7170334 183.3055420  11.8351469  75.4591827 181.5543213  10.6289396
  75.6938782 181.3992615   9.5758572  76.3799286 180.8071289  11.5723877
  76.4611130 179.7496643  11.3208494  77.3969498 181.1941833  11.5094671
  76.0594864 181.0398560  12.8822298  76.6182404 180.5041199  13.4500179
  74.0502548 180.9293671  10.6869392  73.8642807 179.8134460  10.1914787
  73.0989227 181.4916840  11.3665676  73.2566605 182.4630585  11.5938053
  71.6820831 181.0066986  11.5011806  71.6609116 179.9177399  11.4583111
  71.1163788 181.3409576  12.8547297  71.1186600 182.4308777  12.8673515
  70.0758514 181.0453491  12.9889784  71.9563141 180.7442627  14.0638847
  73.0196762 180.9231110  13.9045820  71.5831375 181.3698730  15.4453125
  70.5119095 181.2813263  15.6262264  72.1901321 180.8799133  16.2066212
  71.8799591 182.4184113  15.4693632  71.7074738 179.2518616  14.1363430
  72.1200256 178.8325195  13.2187099  72.3659286 178.9377594  14.9462090
  70.6594009 178.9904022  14.2822561  70.6664658 181.4989471  10.4394541
  70.9342194 182.4940186   9.7606153  69.5537262 180.7870636  10.1899014
  69.2693863 179.4675598  10.6019812  68.8139267 179.5099182  11.5913563
  70.1289139 178.7995453  10.5465288  68.2787781 179.0171356   9.4825439
  67.6204605 178.2442017   9.8791485  68.8451004 178.7686920   8.5849590
  67.4012070 180.2386017   9.2622061  66.6004410 180.3429260   9.9943180
  66.9942017 180.2288971   8.2510920  68.4903336 181.3060913   9.3915873
  68.8902435 181.5577240   8.4093161  67.8149872 182.5447693  10.1000347
  67.5700836 182.4877625  11.2811031  67.4203186 183.5289307   9.2737198
  67.9104462 183.6617584   8.4006577  66.4663696 184.5472260   9.7236624
  66.7640533 184.7885895  10.7440681  66.6174088 185.8285980   8.9677401
  65.8353424 186.5378876   9.2385941  67.9365234 186.4399567   9.3188610
  68.7996140 185.9948730   8.8238201  67.9882126 187.4486237   8.9089460
  68.1734543 186.4224701  10.3826551  66.5666122 185.5858917   7.5310798
  65.7787857 185.9971619   7.1680670  64.9754410 184.1658325   9.7129812
  64.1366653 184.8204041  10.3583689  64.6439667 183.0294189   9.0720015
  65.3250351 182.4751740   8.5729465  63.2567444 182.5935516   8.9118242
  62.5710945 183.4098969   9.1388903  63.0281410 182.0211792   7.4556117
  63.2564507 182.7476807   6.6757531  63.6813087 181.1578064   7.3288856
  61.5549927 181.7145996   7.2909703  60.6689606 182.4721527   7.5392394
  61.2438965 180.4835663   6.9965863  60.2905006 180.3268890   6.7023268
  61.9739952 179.8394928   6.7278504  62.8815041 181.6036072  10.0516529
  63.6603165 180.6608429  10.1875954  61.7436333 181.7431946  10.7872896
  60.9358635 182.9407043  10.8661757  60.6441917 183.3513947   9.8995504
  61.3911285 183.7722473  11.4041128  59.6949081 182.5209808  11.6910009
  58.8850021 182.2511292  11.0132608  59.4401169 183.3826141  12.3080664
  60.2098541 181.3997650  12.6280231  59.4335709 180.7507172  13.0332661
  60.6696777 181.8537903  13.5058155  61.3762245 180.8230286  11.8556423
  62.2255974 180.7727966  12.5369234  61.1483002 179.3199921  11.5011854
  61.5761681 178.4732056  12.2473774  60.6640015 178.9806824  10.2842236
  60.2835236 179.7297668   9.7236767  60.4739532 177.5729523   9.8872280
  59.8942642 177.1446075  10.7048950  59.7375641 177.5603333   8.5089092
  60.2505798 178.2887878   7.8809881  59.9019661 176.2380371   7.7450743
  59.5809937 175.4098663   8.3769150  59.4193535 176.1327667   6.7734213
  60.9816208 176.0973969   7.6934428  58.1861763 177.8106384   8.5930605
  57.5777931 177.4138947   7.7803025  57.7588081 177.3185425   9.4667358
  57.9136887 179.3484955   8.7779665  58.4725304 179.9139709   8.0322886
  56.8729324 179.5951996   8.5680408  58.1911850 179.6744995   9.7803745
  61.8652878 176.8985748   9.9474592  62.1234245 175.9520874  10.6683521
  62.8262329 177.3957062   9.0575638  62.6109276 178.2131195   8.5047865
  64.2070236 176.8884277   9.0130415  64.1142883 175.9113007   8.5390091
  65.0616608 177.7183075   8.0257292  65.3802261 178.5939789   8.5912609
  65.8778992 177.0617218   7.7245016  64.4776382 178.2618256   6.7278013
  63.2501831 178.4897614   6.5856466  65.2158432 178.3873291   5.7100964
  65.0129471 176.8371735  10.2658758  65.6957397 175.8225555  10.4372301
  64.9695511 177.8513031  11.1573915  64.4304276 178.6651764  10.8984280
  65.6197281 177.9212799  12.4985857  66.6993103 177.7950745  12.4169283
  65.4522781 179.3166962  13.0798826  65.8070602 180.0318756  12.3377495
  64.3963470 179.5774841  13.0084591  66.0181808 179.6804352  14.4544792
  65.3372192 179.1259155  15.5692005  64.4759674 178.4967804  15.3993387
  65.7771378 179.4114532  16.8694096  65.2858582 178.9845581  17.7312679
  66.8882294 180.2753296  17.1228199  67.3090210 180.5016937  18.0913715
  67.5613174 180.7699432  15.9502926  68.4367218 181.3566742  16.1865273
  67.1738434 180.4559479  14.6680794  67.7882843 180.7940063  13.8467560
  65.0297241 176.8696594  13.4215689  65.7894287 175.9854126  13.8692188
  63.7059441 176.8423615  13.5697603  63.0620689 177.4965973  13.1484480
  63.1119537 175.7674713  14.3773670  63.4628296 175.8601837  15.4051762
  61.6459312 175.8894806  14.5884533  61.3316689 175.1536713  15.3286791
  61.3337288 176.8945923  14.8719730  61.0913429 175.7230072  13.3396893
  61.2676544 176.4706116  12.7638483  63.5787697 174.3964691  13.8801327
  63.9761086 173.5675049  14.6747227  63.6714935 174.1785889  12.5259151
  63.1890144 174.8623047  11.9603758  64.1524811 172.9352112  11.9249077
  63.5234871 172.1674500  12.3754663  63.9075432 172.7891846  10.4548798
  64.1206512 173.6567841   9.8304129  64.7129135 172.1540833  10.0859261
  62.6022453 172.2088776  10.0083122  62.0378990 171.0378265  10.5826321
  62.5177498 170.6117401  11.4513054  60.9161491 170.4839020   9.9166613
  60.4666061 169.5577240  10.2430277  60.3071175 171.1820526   8.8424215
  59.1666489 170.6675415   8.2426977  58.4579353 171.3147583   8.2635345
  60.7491302 172.4513245   8.4463739  60.3235817 172.9843750   7.6090202
  61.9610023 172.8788300   8.9546261  62.4237022 173.7498932   8.5146770
  65.5874939 172.6599884  12.2973204  65.8217545 171.5404510  12.7304926
  66.4960785 173.6069946  12.2569847  66.2087250 174.5228882  11.9428978
  67.8869705 173.4057159  12.6062298  68.2598495 172.5760498  12.0056458
  68.6982727 174.6296234  12.2151146  68.4829559 174.8243103  11.1644773
  68.4122009 175.4884796  12.8222609  70.1727600 174.3244476  12.4802694
  70.7573624 175.2434082  12.4373007  70.3303452 173.8896790  13.4673071
  70.9290848 173.4472656  11.4605055  71.9564438 173.3268890  11.8042326
  70.4517746 172.4673309  11.4602165  70.9245758 174.0713654  10.1023092
  70.1804810 173.7631226   9.4928818  71.8939362 174.7747040   9.4896402
  72.9269333 175.2857819  10.1394281  73.0462265 175.1289215  11.1300173
  73.7058792 175.6042938   9.5809555  71.8511276 175.0254974   8.1796379
  71.2028580 174.5003510   7.6103759  72.5326920 175.6504669   7.7734427
  68.0306702 173.0292664  14.0764265  68.6499710 172.0024567  14.3784523
  67.3220673 173.7474060  14.9215508  66.8739777 174.5683594  14.5402870
  67.1871338 173.4640503  16.3269424  68.1791077 173.4222260  16.7767620
  66.4657898 174.6235199  17.0081005  65.4891129 174.8043060  16.5591888
  66.3975067 174.2948914  18.5480537  67.4091492 174.1148071  18.9117126
  65.9127274 175.1620789  18.9964828  65.8107529 173.3932190  18.7235794
  67.2228851 175.9905243  16.9337940  67.4017258 176.2339020  15.8864689
  66.6563644 176.7874451  17.4155369  68.2018051 175.9127350  17.4068317
  66.5369186 172.0805206  16.6443806  66.9439697 171.3635254  17.5530396
  65.5232315 171.6761017  15.8385973  65.1439438 172.3964233  15.2407703
  64.8140030 170.4306030  16.0736866  64.4873199 170.2939148  17.1045609
  63.5551796 170.3276215  15.2465858  63.7799988 170.5292206  14.1992455
  63.0081139 169.3865356  15.3029566  62.8657951 171.0536957  15.6774740
  65.8321762 169.2598419  15.7117271  66.0662231 168.3480072  16.5120716
  66.5370331 169.3523712  14.6118793  66.2470322 170.0912781  13.9873610
  67.5602951 168.4015808  14.1923771  67.0596237 167.4503479  14.0119038
  68.0563126 169.0053253  12.8478880  68.3265381 170.0576019  12.9361420
  68.9581528 168.4714966  12.5482025  67.2743683 168.9222565  12.0930624
  68.6702805 168.2882538  15.2314072  68.9260406 167.1492615  15.6430788
  69.1881485 169.3592224  15.7713146  68.7869339 170.2819672  15.6838732
  70.3790665 169.3121185  16.6221943  71.0176163 168.4533997  16.4149265
  71.3119202 170.4547272  16.3685379  72.3002396 170.2067871  16.7556343
  71.4912415 170.5988007  15.3030863  70.6526489 171.9892120  17.1035099
  71.6946411 172.7848358  16.8463230  70.1880264 169.1755219  18.1283417
  71.1394272 168.9388428  18.8412170  68.9327698 169.2536469  18.6576996
  68.1599960 169.4944000  18.0535774  68.6141510 168.8539886  20.0054722
  69.2015228 169.4725952  20.6840286  67.1566620 169.0425720  20.2931519
  66.5977554 168.8469696  19.3780193  66.9050751 168.4076843  21.1427002
  66.8692780 170.4489746  20.7239590  67.2320328 171.1424713  19.9652958
  65.3550720 170.5022430  20.8821011  65.1287155 169.9844971  21.8141937
  65.1780090 171.5689240  21.0198231  64.8876495 170.1008301  19.9829521
  67.4778061 170.8237000  22.1100578  68.5318451 171.0554504  21.9570808
  66.9734268 171.6502228  22.6106129  67.2562256 169.9880981  22.7739544
  68.9893417 167.3848877  20.3235836  68.4825516 166.5160675  19.6007957
  69.7027740 167.0579834  21.3893261  70.6267242 167.9331512  22.0934181
  70.2424088 168.8741608  22.4869843  71.4474792 168.2310791  21.4409599
  71.0836334 167.1371918  23.3182831  70.3262177 167.1608276  24.1017780
  71.9750366 167.6139679  23.7259293  71.0502548 165.6906433  22.8103714
  71.0048141 165.0307617  23.6767368  71.9750290 165.4329834  22.2941380
  69.8445282 165.7161255  21.8576508  69.9718018 164.9443817  21.0985050
  68.6081085 165.3176727  22.7269077  68.3147888 165.9545746  23.7109032
  67.9330750 164.2169952  22.3578281  68.1742783 163.6403656  21.5644684
  66.8025055 163.5700531  23.0950050  67.1497269 163.5152588  24.1267662
  65.4508667 164.4298248  23.0475845  64.6095428 163.7841339  22.7958584
  65.2403183 165.1242371  24.4388180  66.1540985 165.6328430  24.7461166
  64.4017029 165.8198547  24.4080124  65.0487366 164.4446869  25.2692413
  65.3923416 165.5112610  21.9360924  65.8732605 166.4100800  22.3220310
  65.9314423 165.1112061  21.0773621  63.9924774 166.1156464  21.5182571
  63.5172501 166.7111053  22.2978020  64.0795288 166.7121582  20.6101265
  63.3289642 165.2897491  21.2618752  66.5583267 162.1572723  22.5678043
  67.1046066 161.7950592  21.4920349  65.7086639 161.3294983  23.2821617
  65.3101501 161.6006012  24.1697350  65.2468185 160.0120087  22.8043671
  66.1212311 159.4629211  22.4550686  64.6555557 159.2292786  24.0177975
  64.2379227 158.2909698  23.6527729  65.4486923 159.0003357  24.7295647
  63.5645599 159.9588928  24.7773476  63.8826408 160.8617096  25.5946846
  62.4052238 159.4846191  24.6969604  64.2839127 160.1080017  21.6273975
  63.5772705 161.1073456  21.4135647  64.2282257 159.0084686  20.8605232
  64.8087540 158.2179718  21.1017628  63.4687157 159.0125580  19.5941849
  63.7677917 159.8618317  18.9798527  63.7480583 157.7652130  18.7180290
  63.4742241 156.8552856  19.2520275  63.1134415 157.7604980  17.8318367
  65.1579895 157.6949615  18.2060108  65.5923767 158.7098846  17.6367722
  65.8944016 156.7737732  18.5024967  61.9557037 159.2783051  19.7701645
  61.3290520 160.0017548  19.0339718  61.4163399 158.6835785  20.8557568
  61.8987350 158.1323547  21.5511379  59.9411545 158.7989349  21.0013504
  59.5403786 158.5742798  20.0129108  59.5098915 157.6690826  22.0092430
  60.1069946 157.7110291  22.9201813  58.4655647 157.7065277  22.3192043
  59.6944046 156.6607513  21.6386890  59.3956337 160.2005463  21.3575459
  58.1811981 160.3654938  21.2954636  60.3040504 161.1653900  21.6542530
  61.2291985 160.8154755  21.8586140  60.0362549 162.5863953  21.8533306
  58.9914551 162.7256317  22.1310120  60.8188744 163.0657196  23.0486164
  60.3592300 162.5131073  23.8680344  61.8506393 162.7774811  22.8474216
  60.8053551 164.4832306  23.3238049  61.4390182 165.0639191  22.6534576
  59.4506378 165.1952515  23.3340130  58.7916565 164.7314148  24.0679741
  59.6060486 166.2593231  23.5121021  59.1319466 165.1532593  22.2924881
  61.3637695 164.6921234  24.7245388  62.4309731 164.4873657  24.8096867
  61.1731224 165.7111511  25.0612049  60.8612061 163.9745026  25.3730488
  60.3497658 163.2989044  20.4903908  59.4437599 164.0533600  20.0967751
  61.4159927 163.0249023  19.7881126  62.0337105 162.3079071  20.1408768
  61.6253510 163.5193329  18.4172764  61.6128578 164.6086426  18.3804607
  62.9897995 163.0555573  17.8395996  63.0126534 161.9660950  17.8142662
  63.0994987 163.4644623  16.8351784  64.1993332 163.6069794  18.6242714
  64.2343597 164.6963806  18.6324310  64.1101913 163.2996216  19.6662350
  65.5534592 163.0509186  18.1292534  66.3318024 163.3320770  18.8386421
  65.5222397 161.9653168  18.2219982  65.9990082 163.3767395  16.7308960
  65.6986694 162.7353210  16.0108471  66.9481888 164.2183075  16.4249363
  67.3473969 165.1715240  17.1743717  66.9974976 165.2386932  18.1194439
  67.9298782 165.9386444  16.8704700  67.5663681 164.0697327  15.3047953
  67.2043686 163.4877930  14.5629025  68.2789154 164.7380829  15.0484753
  60.5118942 163.0754395  17.4381180  60.2959633 163.8185883  16.4762383
  59.7411499 162.0123444  17.7224731  60.1626129 161.3148193  18.3190536
  58.5049248 161.6778564  17.0465698  58.7419167 161.6489868  15.9830332
  58.0027161 160.2210083  17.4640007  57.9456749 160.1696167  18.5512943
  56.5236778 160.0465393  17.0248718  56.4283447 160.1970062  15.9495258
  56.2376480 159.0142365  17.2265091  55.9278259 160.7647247  17.5881310
  58.9200134 159.1087036  16.8034954  58.8824272 159.2864685  15.7287474
  59.9104156 159.2321930  17.2416229  58.4750786 157.6448059  17.1801243
  57.5641975 157.3118439  16.6825886  59.2966194 157.0245667  16.8217030
  58.4548149 157.5050049  18.2609310  57.4873924 162.8187103  17.2465096
  56.9398613 163.3475800  16.3202705  57.2083855 163.1567535  18.5229664
  57.7850456 162.7576447  19.2497902  56.3554993 164.2465057  18.9092827
  55.4060287 163.9890900  18.4398727  56.1456451 164.4915771  20.4486942
  56.9615402 165.0420685  20.9170609  55.2797470 165.1446381  20.5574837
  55.9213638 163.1904907  21.2719078  56.8737717 162.6603851  21.2739487
  55.5982437 163.5187378  22.2598095  54.8107681 162.2338409  20.6805286
  53.7695007 162.6420898  20.1978168  55.0511055 160.9316254  20.7892971
  54.3150711 160.2816010  20.5530376  55.9327316 160.5857239  21.1402817
  56.8250389 165.5877533  18.3611965  55.9733620 166.3886566  17.9823494
  58.1524506 165.7778931  18.1570320  58.7507591 165.1377411  18.6593552
  58.7761383 166.9783173  17.5164223  58.2433205 167.8320923  17.9350605
  60.2297516 167.0538788  17.9152184  60.2895164 166.7924805  18.9717236
  60.7109604 166.2932434  17.3004322  60.9377518 168.4793854  17.7658787
  60.8680458 168.7176056  16.7045174  60.3682632 169.6688538  18.4692402
  60.4252892 169.4587555  19.5372829  60.9037933 170.6026154  18.2978191
  59.3316765 169.7726898  18.1486073  62.3855743 168.2692871  18.1561108
  62.9763985 167.5236053  17.6241531  62.8685799 169.2395020  18.0399075
  62.4121590 167.9909058  19.2096252  58.5739174 166.9919128  15.9880810
  58.2204552 168.0239563  15.4256992  58.6619987 165.8331757  15.3159857
  58.9674187 165.0147095  15.8228817  58.3882942 165.7180023  13.9183636
  58.8804779 166.5295258  13.3823729  59.0415993 164.4036407  13.4063110
  60.0342407 164.2745056  13.8376913  58.4792175 163.5472412  13.7783461
  59.0553932 164.3295135  11.8296480  58.3647308 165.0418091  11.3782959
  60.3542252 164.8681488  11.3092651  61.2161674 164.2011719  11.3267555
  60.2985649 164.9786224  10.2263069  60.6379013 165.8211060  11.7559261
  58.7801399 162.9521179  11.2510481  57.8042068 162.5531616  11.5276232
  58.7434769 163.0840454  10.1696835  59.5096245 162.1823578  11.5028992
  56.9117165 165.8496552  13.5758686  56.5878525 166.3303986  12.4938650
  55.9885139 165.4619446  14.5283213  56.2903442 165.0148773  15.3822117
  54.5410233 165.5282440  14.2996120  54.2086258 164.9957581  13.4085035
  53.8677216 164.8406677  15.4619026  54.4516258 164.9249725  16.3784428
  52.9320335 165.3525848  15.6866980  53.4768829 163.3435364  15.1578083
  52.6026306 163.3771362  14.5076923  54.3022232 162.9158173  14.5886183
  53.0917130 162.6124573  16.4864731  53.8990517 162.4835815  17.2073765
  52.3712845 163.2186432  17.0356579  52.4804840 161.2696228  16.0243816
  51.7137871 161.6350403  15.3411932  53.2848701 160.7360077  15.5180931
  51.9010315 160.4922638  17.1251698  51.9586220 159.4966888  16.9650764
  52.2700958 160.7154541  18.0384483  50.8999939 160.6229858  17.0945435
  53.9950180 166.9741516  14.1155891  52.8156204 167.1085663  13.7354097
  54.7661934 167.9538269  14.5045538  55.7080994 167.7408295  14.8004379
  54.2071419 169.2930145  14.7954302  53.3025398 169.0893402  15.3684206
  55.1776276 170.1564789  15.6680441  56.1166992 170.2921600  15.1315432
  54.5990906 171.5681458  16.0122261  53.6018105 171.5536957  16.4519119
  55.2518005 172.0581665  16.7346840  54.5891571 172.2068176  15.1289902
  55.5483360 169.4094391  16.9755058  55.7899094 168.3770905  16.7225151
  56.4492683 169.8812256  17.3677292  54.4697456 169.3934784  18.0798569
  53.5294304 168.9940948  17.6998539  54.8121758 168.7114716  18.8581352
  54.3195610 170.3839111  18.5094891  53.6892090 170.1124878  13.5756683
  54.2770348 170.1114960  12.5148401  52.5867043 170.8841553  13.7039890
  52.1452293 170.9206543  14.6116610  51.9954491 171.6344299  12.5368013
  51.9828033 170.9128723  11.7199278  50.9907532 171.9647064  12.8006563
  52.8939018 172.8007202  12.2085724  53.4229813 172.9025269  11.1487246
  53.0838432 173.7384338  13.1584377  52.6255379 173.5816498  14.0447083
  53.6256866 175.0548096  12.9682388  53.8157692 175.1822968  11.9025364
  52.5753746 176.1176910  13.4398432  51.6357422 175.9761810  12.9058275
  52.3853607 175.8592224  14.4815664  52.9379730 177.5119934  13.3348341
  52.9451218 177.7949829  12.4175186  54.9849472 175.3253784  13.6939745
  55.2076149 174.8192902  14.7896442  55.7685280 176.2440643  13.1674490
  55.4767036 176.5802002  12.2608376  57.0713348 176.5343018  13.7041979
  57.5701218 175.5801086  13.8739748  57.8729897 177.2651520  12.6088095
  57.3754845 178.2263641  12.4797277  58.9148102 177.4870605  12.8400345
  57.8134804 176.6859589  11.6873388  57.0391579 177.3386536  15.0568352
  58.0124664 177.2262421  15.7807970  55.9789200 178.1287689  15.3033113
  55.3319054 178.2969971  14.5462332  55.5947571 178.5859375  16.6850662
  56.2858925 179.2748718  17.1706791  54.2611198 179.3701019  16.6449089
  53.5595627 178.7778320  16.0574245  53.6631546 179.5576477  18.0755901
  54.3241615 180.0400085  18.7956505  52.7282143 180.1175232  18.0526733
  53.4620132 178.5466919  18.4300232  54.6002274 180.6630554  15.9633169
  55.3328056 181.1696167  16.5916672  55.0848923 180.4217529  15.0172863
  53.3346710 181.4204712  15.5336180  52.8480415 181.8196411  16.4235363
  53.7865677 182.2754974  15.0307970  52.7097206 180.7956085  14.8955898
  55.5721626 177.3837738  17.6390514  56.2809410 177.3410339  18.6163082
  54.7105408 176.3667603  17.4218693  54.0957603 176.4002380  16.6212311
  54.4847717 175.2390900  18.3403244  54.1513443 175.5789185  19.3208561
  53.5146141 174.3624115  17.6326714  53.8161087 174.0896606  16.6213341
  53.4460068 173.4404602  18.2100964  52.0609283 174.8442383  17.4549789
  51.6164818 174.7702942  18.4474983  52.0617561 175.8952789  17.1661568
  51.2345734 174.0665283  16.4648609  51.6915054 173.3617401  15.6049728
  49.9318390 174.2454834  16.4934998  49.4246902 173.7931061  15.7463331
  49.5466347 174.9732513  17.0783691  55.7214088 174.4077454  18.5105000
  55.9355392 173.8674927  19.5590076  56.5790329 174.2523193  17.4510212
  56.1861458 174.6143341  16.5938873  57.8594971 173.5387726  17.4122181
  57.6695137 172.5028992  17.6932583  58.2593231 173.3888245  15.8938618
  57.3684387 173.0647278  15.3559170  58.6001205 174.3392792  15.4832306
  59.3602867 172.3445740  15.6148386  60.2965393 172.7906799  15.9502878
  59.2221184 171.4820099  16.2667656  59.4775200 171.8847198  14.0903625
  60.2986755 171.1706238  14.0281096  58.7100525 171.1870422  13.7552042
  59.7152672 173.0591431  13.2568369  60.3528214 173.7510071  13.6241999
  59.1387482 173.1724701  12.0629177  58.1971931 172.4501801  11.5511560
  57.8399124 171.6404724  12.0377865  57.8580666 172.6531067  10.6216869
  59.5253334 174.2261353  11.4186192  60.2729149 174.8013763  11.7796068
  59.1370544 174.2985687  10.4890528  58.8537025 174.1668854  18.3804913
  59.2827187 173.5246277  19.3079662  59.0634880 175.4981384  18.2511730
  58.7364273 175.8744202  17.3727970  59.7880745 176.3411255  19.2029610
  60.7757607 175.9045868  19.3512917  59.8797760 177.7742767  18.6959553
  58.8635674 178.1106262  18.4903221  60.4184227 178.3966827  19.4104881
  60.6472816 178.0124207  17.3797398  60.3775139 177.2602234  16.6384315
  60.2136459 179.3731689  16.7795582  60.5883827 180.1979370  17.3857231
  60.6174660 179.5387115  15.7807436  59.1300430 179.4885101  16.7550812
  62.2176628 178.0109558  17.4430008  62.5923233 177.0790405  17.8663960
  62.6039200 178.1685028  16.4359837  62.6014252 178.8525543  18.0196629
  59.2337532 176.1891174  20.6661797  60.0342789 175.9696503  21.5489330
  57.9122047 176.2249908  20.8927784  57.3172989 176.3622437  20.0881958
  57.2226257 176.0028687  22.1953011  57.6303558 176.7113190  22.9163818
  55.7144775 176.1682281  22.1452198  55.2600594 175.5926361  21.3388157
  55.2528610 175.8399963  23.0764942  55.2523918 177.6800385  22.0686703
  55.7591667 178.1833344  22.8920631  55.5679207 178.0811157  21.1055088
  53.6971130 177.8336792  22.1154575  53.4350090 178.8876343  22.2080841
  53.3550301 177.3755646  21.1874352  53.0323677 177.0236664  23.2511692
  52.7460403 176.0705566  23.0787888  52.8841171 177.4882355  24.4987926
  53.2326050 178.6946716  24.8771935  53.1296043 179.4483032  24.2127209
  53.1979523 178.8723907  25.8708305  52.4589119 176.6467590  25.4195938
  52.0074005 175.7893677  25.1347866  52.5556145 176.8699646  26.3998661
  57.5549469 174.6406403  22.7547722  58.0442619 174.5422516  23.8922462
  57.5025139 173.5404053  21.9990540  57.2118683 173.7138672  21.0474548
  58.0660362 172.2605896  22.4019547  57.4829788 171.9629517  23.2734756
  57.6514854 171.3004913  21.2868710  56.5780411 171.3028107  21.0976219
  58.0911674 171.6079559  20.3380623  58.2420197 169.6027527  21.6626663
  57.3211937 168.9669647  20.9327812  59.6164398 172.2554779  22.6710129
  60.0589218 171.8055267  23.7670403  60.4715500 172.7757416  21.7585697
  60.1485863 173.0827637  20.8521824  61.8572159 172.9440765  22.0778294
  62.2918243 171.9454041  22.1209831  62.6136055 173.6924438  20.9617538
  62.0839539 174.6087189  20.7009964  63.6157608 173.8047333  21.3754902
  62.6082764 172.8647156  19.6163979  63.3911018 172.1086731  19.6770878
  61.6554909 172.3532562  19.4796009  62.6556435 173.8191223  18.4343338
  63.3994598 174.8275452  18.5088177  62.0248108 173.4578552  17.4259834
  62.1504631 173.6347809  23.4503345  63.0997887 173.2021790  24.1730461
  61.4980774 174.7716827  23.8306923  60.7129135 175.0997162  23.2866230
  61.7957993 175.5263214  25.0704632  62.8837662 175.5622253  25.1265144
  61.1711617 176.9659271  24.9868011  60.1313324 176.9208984  24.6630287
  61.1305656 177.4442749  25.9653950  61.9395027 177.9016571  24.0041142
  62.0384064 177.3650970  23.0604877  61.1199265 179.1465454  23.7314396
  61.1250534 179.8192596  24.5890770  61.6362648 179.7087250  22.9533234
  60.0955582 178.9186249  23.4367905  63.3276443 178.2422485  24.5453129
  63.8501396 177.3082886  24.7521973  63.9600792 178.8505859  23.8987408
  63.1429710 178.8245850  25.4480247  61.3858566 174.8212891  26.3715591
  62.0989113 175.0187225  27.4003754  60.3384857 173.9655304  26.3044949
  59.8989258 173.9358673  25.3956451  59.9421387 172.9847260  27.2846966
  59.8141441 173.4497681  28.2621689  58.6277657 172.4250183  26.8052311
  57.9631729 173.2666168  26.6100140  58.7082863 171.8967896  25.8551750
  57.9779358 171.4637604  27.8440933  57.4931183 171.8707428  28.9710484
  57.7446175 170.3400879  27.3778763  60.9848404 171.8665619  27.4657917
  61.2755699 171.5904999  28.5841179  61.5588989 171.3507080  26.3371258
  61.1831245 171.6647797  25.4538078  62.7531624 170.5068207  26.2951012
  62.4863396 169.6301422  26.8852997  63.0843811 170.0626373  24.8819847
  63.1906166 170.9249878  24.2238312  64.4818802 169.3707581  24.9637871
  64.3993683 168.7766571  25.8739185  64.6594543 168.7291565  24.1007004
  65.2326508 170.1578979  25.0334740  61.9967270 169.1097412  24.2806530
  62.2506065 168.0908508  24.5730534  61.0445595 169.2830658  24.7820911
  61.8961830 169.1266022  22.7128086  62.8392220 169.0386047  22.1733360
  61.2767334 168.3059692  22.3509350  61.4488068 170.0754395  22.4166927
  63.9381638 171.2066040  26.9910984  64.5360107 170.6473389  27.9054718
  64.3237228 172.4280090  26.6026840  63.8322105 172.8219757  25.8131809
  65.5433044 173.1629639  27.0962582  66.3037720 172.3823395  27.1164551
  65.9958878 174.2942200  26.1589451  65.2673645 175.0978394  26.0514450
  66.9014587 174.7175446  26.5934887  66.4255447 173.8380432  24.7499466
  67.3046951 173.1957550  24.8015366  65.5797043 173.2514801  24.3913288
  66.7743988 175.2549133  23.5204525  67.1224442 174.4307251  22.0094433
  66.3022003 173.7211456  21.9007912  67.2016373 175.2149353  21.2565575
  68.0859756 173.9302979  22.1058331  65.4681549 173.6713867  28.5464783
  66.5028534 173.8505554  29.1329899  64.2924652 173.7248077  29.1575699
  63.4917450 173.7512054  28.5425415  64.1256104 174.0132446  30.6180477
  64.9489594 174.6692810  30.9005642  62.6554413 174.6158447  30.8209114
  61.9722023 174.1613464  30.1034775  62.2989769 174.4617310  31.8393841
  62.5999031 176.1742249  30.7259483  63.6084557 176.8443909  30.5866299
  61.4534721 176.8293457  30.8859158  61.5022392 177.8327332  30.7813797
  60.6188736 176.2631226  30.9402332  64.2457657 172.6683197  31.4239407
  65.0588379 172.5455170  32.3093796  63.4195671 171.6840057  30.9987583
  62.7358665 171.9360046  30.2993679  63.2775879 170.2856293  31.5903053
  62.9962730 170.4142151  32.6354980  62.1106682 169.5603180  30.9601727
  62.1495743 169.6445312  29.8741264  62.2891655 168.5148926  31.2118073
  60.7944794 170.0234528  31.5539303  60.8363686 169.9301300  32.6391182
  60.7934990 171.0943909  31.3509579  59.6088753 169.2724304  31.0702457
  59.4070435 169.3603516  30.0027103  59.6577263 168.1927795  31.2119560
  58.3728065 169.8508606  31.8335686  58.2201691 169.3359528  32.7820816
  58.6112061 170.8911591  32.0550423  57.1686516 169.8006287  30.9495335
  56.9453468 168.8246460  30.8165264  56.3511047 170.2678833  31.3147717
  57.3511810 170.2734070  30.0758839  64.5602646 169.4045563  31.5143032
  64.6900711 168.5845795  32.4047012  65.4819717 169.5410156  30.6203461
  65.2321167 170.2408752  29.9363251  66.7232895 168.7162170  30.4210567
  66.5111313 167.6853180  30.7044983  67.1843948 168.7941589  28.9394894
  66.3335419 168.3756256  28.4019127  67.4252853 169.8371735  28.7340813
  68.6507187 167.8415527  28.5784512  68.8463211 168.2290802  27.3149414
  67.8995209 169.1911011  31.2942295  68.2539368 170.3381348  31.2864933
  68.5017395 168.2691345  32.0858307  68.3195953 167.2756958  32.0839119
  69.6201096 168.6921692  32.9755325  70.0053329 169.6172333  32.5466347
  69.2298279 169.0529022  34.4329987  70.0886459 169.4973907  34.9359550
  68.1200867 170.1092834  34.6283455  67.2868347 169.9412079  33.9460373
  67.8228760 170.0292358  35.6739845  68.4972839 171.1036530  34.3895416
  68.7859573 167.9279633  35.1328659  67.9886475 167.5959778  34.7137108
  70.8079300 167.7399597  32.9785309  71.9170532 168.0885925  32.5258102
  70.6686783 166.5238190  33.5080299  69.8065720 166.2745209  33.9714203
  71.6831589 165.4530640  33.3573532  72.7024002 165.8389282  33.3383217
  71.5568542 164.5651398  34.5911865  71.7716217 165.1591187  35.4795456
  70.5470123 164.1689606  34.6977806  72.5217972 163.5030670  34.5571938
  72.4172821 163.0711517  35.4081497  71.4503860 164.5869904  32.0356789
  70.3310699 164.5545197  31.5324726  72.4941177 163.8791046  31.5947647
  73.3427353 163.9499054  32.1378517  72.5690231 162.9167633  30.4455185
  71.5178986 162.7006226  30.2544250  73.1916275 163.5687103  29.1203060
  74.2184143 163.7982483  29.4051094  73.1806564 162.8792114  28.2761631
  72.4561234 164.8642731  28.6702385  72.3625183 165.5742188  29.4920158
  73.3305054 165.5076904  27.5949707  73.6130142 164.9020996  26.7338409
  72.8126068 166.3828125  27.2025146  74.2747192 165.7294922  28.0923367
  71.0909576 164.5019989  27.9777336  70.4375381 164.0383911  28.7167969
  70.6604919 165.4028931  27.5404568  71.2954941 163.8503265  27.1282730
  73.2558975 161.5872040  30.7304363  74.4728622 161.4636078  30.8200493
  72.3589096 160.5916748  30.9692612  71.3732986 160.8039093  30.9090385
  72.8601303 159.2689667  31.4327469  73.8001175 159.3650970  31.9761429
  71.7596893 158.7715759  32.3736115  70.8490982 158.6951294  31.7793980
  72.0225601 157.7303314  32.5601845  71.7300720 159.7817383  33.8693924
  70.5584869 159.3796692  34.3700180  73.0707397 158.2261200  30.2893753
  72.8337555 158.5348969  29.0797501  73.5358353 156.9969330  30.6393108
  73.4972839 156.7230682  31.6107101  73.4532242 155.8558807  29.7190170
  73.6940460 156.2194672  28.7200603  74.5663528 154.8937378  30.0982857
  75.5468521 155.3066559  29.8611794  74.6051559 154.7719574  31.1807652
  74.4603424 153.2618408  29.2244740  75.5133820 152.6671143  29.7921886
  72.0395966 155.2082367  29.7813148  71.4691696 154.9544220  30.8254719
  71.5549011 154.8481750  28.5742855  72.1588058 154.9728088  27.7743683
  70.2540970 154.2774048  28.3536606  69.4735641 154.8621826  28.8403683
  69.9266586 154.1132812  26.8528671  69.8130035 155.1003876  26.4047260
  70.7218094 153.5459595  26.3691654  68.5557632 153.4710999  26.5660362
  68.7168655 152.5015106  27.0372696  67.7292175 154.0504150  26.9775200
  68.3185806 153.1969757  25.0403385  69.2526398 152.8422546  24.6046658
  67.5459290 152.4346924  24.9401646  67.8504562 154.4312134  24.2653923
  66.8738327 154.6983490  24.6690407  68.5056915 155.2923126  24.3968410
  67.7573166 154.1361389  22.7947121  67.4613495 153.1961823  22.5733757
  67.1098633 154.7271423  22.2930851  68.6437073 154.3559875  22.3633442
  70.1173859 152.9216309  29.0994034  69.1250839 152.7683105  29.8768539
  71.1811295 152.1275024  28.9869308  72.0038757 152.4102325  28.4738426
  71.1516876 150.7592468  29.5859375  70.1742706 150.3828125  29.2841625
  72.1988983 149.8902283  28.9335232  72.1385345 150.0126801  27.8521080
  73.2076492 150.2064514  29.1990852  72.0171127 148.4219360  29.3107014
  72.2978821 148.2459259  30.3491116  70.9776154 148.1242828  29.1730556
  72.8762970 147.4799957  28.4212265  73.0031738 147.7155914  27.1915054
  73.3490677 146.3880768  28.9038906  73.7545700 145.6444092  28.3537788
  73.2116470 146.1832581  29.8833141  71.1416702 150.7106628  31.1338539
  70.3694839 149.9921875  31.7346840  71.8056412 151.6440430  31.8137550
  72.4975357 152.1326752  31.2636528  71.7085495 151.7963715  33.2957497
  71.6817017 150.8637695  33.8593330  72.9931030 152.5301666  33.7009888
  72.9307175 153.5831299  33.4262886  73.1522827 152.5315552  34.7793045
  74.4948883 151.8886261  32.9642181  75.0485077 151.4436340  34.0957565
  70.4822083 152.5839691  33.7669296  69.8468781 152.4070587  34.8247604
  70.0672531 153.4554901  32.8283806  70.6805878 153.5294037  32.0293465
  69.2348022 154.6727753  33.0777473  69.2988358 155.1792755  32.1147003
  67.6896210 154.3778839  33.2595100  67.4792862 153.9155273  34.2239189
  67.1528168 155.3214874  33.1617508  67.2102814 153.5013428  32.1453629
  67.3433456 154.0213165  31.1966667  67.7148666 152.5409851  32.2512779
  65.7109451 153.1419525  32.2883682  64.9645767 153.3283081  33.2545586
  65.2337875 152.3378601  31.4025345  64.2937164 151.9750519  31.4712887
  65.8282242 152.0615234  30.6341629  69.7433167 155.6165466  34.1915512
  69.5541458 156.8125763  33.9323235  70.2746201 155.2182922  35.2920570
  70.1106491 154.2446594  35.5047989  70.6026611 156.0465240  36.4389725
  69.9572144 156.9217987  36.3654823  70.1868820 155.3301239  37.7530708
  70.2735291 156.1001129  38.5196915  69.1699524 154.9511414  37.6514664
  71.0652847 154.1537628  38.2462921  71.6688232 153.5297546  37.3923988
  71.0639648 153.7832336  39.4402771  72.0600433 156.4498901  36.5583305
  72.3726883 157.3251801  37.4057617  72.9378433 156.0036316  35.6353188
  72.5645523 155.2811432  35.0363388  74.3396606 156.3992157  35.6275063
  74.5475159 156.6652069  36.6639175  75.2409821 155.2245636  35.2203598
  74.8973618 154.9514771  34.2226410  76.7321854 155.3970490  35.1140060
  77.1735764 155.3880463  36.1105995  77.1613388 154.5874329  34.5237007
  76.9608231 156.3175201  34.5768280  75.0844650 154.0527039  36.0982437
  74.6043930 154.2891235  36.8952599  74.5631943 157.5858765  34.6663818
  74.3692932 157.4776611  33.4698486  74.9548187 158.7670441  35.1785011
  74.9493179 158.8715210  36.1830711  75.2923126 160.0010223  34.4922371
  74.4600906 160.2681732  33.8409843  75.4199142 161.1047211  35.5672226
  74.5598755 161.1593018  36.2346497  76.2973633 160.7734222  36.1225853
  75.8662491 162.5008545  34.9666443  76.8839340 162.4144897  34.5858955
  75.1850586 162.7583923  34.1556244  76.0225906 163.6602478  36.0266724
  75.8612061 163.4500122  37.2307396  76.5039291 164.8004761  35.6836472
  76.5565643 159.9209290  33.6652298  77.5968323 159.4876251  34.1483994
  76.4451141 160.3934937  32.4182549  75.5594635 160.8180847  32.1827850
  77.5869141 160.2169800  31.4568272  78.4041443 159.6872559  31.9463425
  77.1406784 159.4915161  30.1575985  76.0513687 159.4530945  30.1624832
  77.5717621 160.0503845  28.8102798  78.5690002 160.4783020  28.9127598
  77.6252975 159.3372650  27.9876595  76.8898315 160.8407745  28.4966469
  77.6986237 158.0418549  30.1881542  77.3050613 157.5382843  29.3051949
  78.7746964 158.0723724  30.0171852  77.4689407 157.2057648  31.4847908
  76.4575958 157.2313538  31.8905392  77.8754578 156.2063904  31.3295898
  78.1351089 157.7064362  32.1873856  78.0766830 161.6648102  31.2084064
  79.3106613 161.7886505  31.0589790  77.1745529 162.5928192  30.9753666
  76.1918564 162.3595734  30.9751129  77.3944321 164.0581665  30.7546558
  78.1827850 164.3526764  31.4473820  77.9965591 164.3256683  29.3624077
  78.8077087 163.6636810  29.0592308  77.0043945 164.2444000  28.2188606
  76.3234863 165.0900269  28.3156910  77.4580841 164.2182312  27.2281151
  76.2711411 163.4514465  28.3660717  78.5266953 165.6524506  29.3459568
  79.4782028 165.5835876  29.2388096  76.1435928 164.9226685  31.1099415
  75.1460876 164.4091034  31.6685486  76.2363510 166.2878265  31.0571823
  76.9859009 166.6846313  30.5087070  75.2666168 167.2695770  31.6281338
  74.2952118 166.7982330  31.7775059  75.7987595 167.7264252  32.9981079
  75.7143631 166.8643494  33.6597748  77.2025299 168.2634277  33.1082535
  77.4086761 168.9833984  32.3162689  77.3408432 168.7277069  34.0846825
  77.9599304 167.4947052  32.9549446  74.9813538 168.7698364  33.4519653
  74.4951859 168.5019379  34.2352104  75.1047897 168.4397888  30.6412697
  76.0549545 168.7880859  29.9400063  73.9143982 169.0513763  30.6207294
  73.2305527 168.6099091  31.2186890  73.5339279 170.1794128  29.7890930
  73.2905426 169.7941132  28.7989388  72.2045593 170.7137146  30.3483448
  71.3743057 170.0103607  30.2844849  72.2748718 170.8588104  31.4263554
  71.8466797 171.9584808  29.5485439  72.5575256 172.7431488  29.8075809
  71.8389664 171.8319397  28.4659424  70.4687195 172.4975586  29.8624611
  69.6973495 171.7693634  29.6117916  70.4626617 172.5792999  30.9493752
  70.1811752 173.8311462  29.1548443  71.1185379 174.3867493  29.1822052
  69.7668533 173.6933899  28.1561165  69.1608124 174.5946198  29.9192638
  69.2455597 174.4700012  30.9179573  69.1177979 175.5822601  29.7123356
  68.2278900 174.2405396  29.7630825  74.7355194 171.2153778  29.7562141
  75.0486298 171.7040253  28.6640129  75.4406433 171.5279694  30.8278503
  75.0588989 171.1327209  31.6752872  76.3487015 172.7002869  30.8673496
  75.8810654 173.4818268  30.2685165  76.4909134 173.2101135  32.3384132
  76.6461563 172.3530884  32.9937706  77.3626480 173.8619537  32.3956146
  75.3622131 174.0733795  32.8533897  74.7605133 174.8670502  32.0763092
  74.8512955 173.8188019  33.9888458  74.2215958 174.5012360  34.3861618
  75.2136612 173.0500641  34.5345879  77.7172775 172.4434509  30.1944008
  78.4447708 173.3582916  29.8780136  77.9447479 171.2343445  29.7448750
  77.2883606 170.4798889  29.8864746  79.1635818 170.9050598  28.9334011
  79.8477707 171.7462921  29.0443783  79.7233047 169.5942841  29.4652519
  79.0106430 168.7701263  29.4340401  80.5764389 169.3321686  28.8395100
  80.1675949 169.6403198  30.8652534  79.2690201 169.6160736  31.4817524
  80.7085190 168.7298126  31.1230679  81.0288696 170.8619843  31.2921124
  81.8986130 171.2787170  30.5045414  80.9356918 171.3569183  32.4702721
  78.8426437 170.6983185  27.4655380  79.7397232 170.4739380  26.6357956
  77.5680923 170.8298645  27.0758648  76.8811417 171.1176605  27.7580471
  77.1400528 170.8782654  25.6214371  77.4408417 169.9486084  25.1383686
  75.5535965 171.0052490  25.5112724  75.1178818 171.8317108  26.0727005
  75.2171173 171.2253265  24.0546532  75.4413376 170.3201752  23.4902859
  74.1392899 171.3005524  23.9106674  75.7478256 172.0948181  23.6668072
  74.7829666 169.7386780  26.0548115  75.1160507 168.8750916  25.4791565
  75.0375214 169.6156921  27.1075115  73.2899246 169.8767242  25.9496803
  72.9974289 169.6779938  24.9186344  72.7360840 169.1812592  26.5803223
  73.0457764 170.8872223  26.2773571  77.8672028 172.0171967  24.9010334
  77.8614578 173.1838684  25.3926888  78.5165176 171.7503510  23.7580986
  78.3604584 170.8250580  23.3845043  79.1757278 172.7639771  22.9064465
  78.5738907 173.6689606  22.9894829  80.5828476 173.0908051  23.3240147
  80.7501678 174.1677551  23.3075256  80.6420517 172.8995056  24.3954620
  81.6892090 172.3249207  22.6323071  81.9829559 171.0287018  23.0932236
  81.4413605 170.5663605  23.9052086  82.9309464 170.2169647  22.4430294
  83.1244354 169.2405548  22.8620415  83.6031265 170.7979889  21.3648415
  84.4179077 170.3063812  20.8541012  83.3739777 172.1015320  20.8835030
  84.0587311 172.5710297  20.1927967  82.4005890 172.8917847  21.5686111
  82.2629318 173.9087524  21.2320976  78.9889069 172.4436798  21.3939037
  79.0587311 171.2674255  21.0794563  78.7653351 173.4389038  20.5688553
  78.5677109 174.3377533  20.9849472  78.6513519 173.3213348  19.0940628
  78.1367722 172.4093781  18.7913456  77.8108521 174.4732361  18.5813560
  78.1768799 175.4741669  18.8099480  77.8735657 174.5374451  17.4950562
  76.4598618 174.3957520  18.8531437  76.1928406 175.2726440  19.1383686
  80.0854492 173.3786011  18.4130020  80.6169891 174.4282990  18.0838528
  80.6948013 172.2270966  18.2166195  80.3029099 171.3816681  18.6062145
  81.8736038 172.0737610  17.4599838  82.5297012 172.8846436  17.7763748
  82.5461121 170.7622528  17.9279785  82.6590347 170.8186035  19.0106487
  81.8129349 169.9725342  17.7639561  83.8998871 170.3890991  17.2869034
  83.7176590 170.1707153  16.2346687  84.9562988 171.4726105  17.5413647
  85.3139114 171.5198212  18.5699482  85.8350067 171.2999420  16.9199543
  84.6561356 172.4825897  17.2621670  84.4445038 169.0447998  17.8615513
  83.6810760 168.2883148  17.6798248  85.3375168 168.7024536  17.3386402
  84.5428085 169.1198120  18.9445133  81.6280594 172.1342010  15.9041147
  82.4831696 172.6399536  15.1477480  80.3715210 171.7598724  15.4994602
  79.7807007 171.4819641  16.2700520  79.7804489 171.8183441  14.1481295
  80.5597458 171.8479156  13.3865948  78.9036713 170.5299530  13.9522038
  79.6051254 169.6985626  14.0219078  78.1146393 170.5307770  14.7042294
  78.3601761 170.5259857  12.6543827  78.2558441 169.6932220  12.1882963
  78.8833008 173.0023804  13.8809824  78.2096252 173.4926605  14.7896156
  78.8774033 173.5281067  12.6516991  79.5037689 173.0794830  11.9986258
  77.9537811 174.5033417  12.1334867  77.9285660 175.3066864  12.8697681
  78.4530640 175.0803680  10.8098478  78.8398209 174.2621765  10.2023392
  77.5472946 175.3477631  10.2656164  79.4450531 176.2390747  10.9248362
  80.3391418 175.8757172  11.4314671  79.7506790 176.5639648   9.4595566
  78.8340607 176.8898773   8.9679346  80.4840851 177.3688507   9.4108725
  80.0600281 175.6419983   8.9672565  78.7954559 177.4657745  11.5714922
  78.9564590 177.5195007  12.6481953  79.3176041 178.3030396  11.1083956
  77.7391815 177.4732666  11.3025513  76.4963913 174.0654602  12.0088749
  75.5374298 174.8983002  11.8774681  76.2435989 172.7544403  12.2341003
  77.0707703 172.1824799  12.3276844  74.9332809 172.1423798  12.5645046
  74.1474686 172.5906830  11.9565353  74.9619980 170.6626434  12.1848574
  75.7083969 170.0784760  12.7231178  74.0090408 170.1576996  12.3430004
  75.2700958 170.6101379  10.3855724  75.4089737 169.2835236  10.3101072
  74.5180206 172.2364502  14.0729113  73.4647064 171.8047638  14.4182405
  75.2924576 172.8417969  14.9797287  76.0980148 173.3326569  14.6188631
  75.0965195 172.9741211  16.4077759  75.4640961 173.9377441  16.7605267
  74.0186844 172.9356842  16.5655880  75.8839417 171.8809662  17.2231178
  76.9724808 171.4597473  16.8452911  75.3317108 171.4221497  18.3628159
  74.1297379 171.8477478  19.0622673  73.3406296 171.5679169  18.3643379
  74.1107712 172.9310150  19.1817169  74.0525208 171.0187836  20.3349514
  73.5215454 170.0985413  20.0913906  73.6324844 171.5975037  21.1575985
  75.5418701 170.6660309  20.5930004  75.6714859 169.7807159  21.2155094
  76.0731812 171.4689941  21.1039181  76.0439529 170.4265747  19.1566277
  77.1198959 170.5684662  19.2582169  75.8662491 168.9861755  18.6881676
  76.4261475 168.0857391  19.2604275  75.2204742 168.7460022  17.5522041
  74.8451080 169.5544434  17.0771999  74.8905640 167.4552307  16.9668407
  75.7497864 166.8247833  17.1956902  73.6787643 166.9412384  17.7045574
  73.7915115 167.2118835  18.7543869  72.8150482 167.4224701  17.2457428
  73.4650345 165.3910522  17.8187294  73.3123169 164.8312683  16.8960114
  74.3627396 164.9910736  18.2901497  72.1052322 164.9977112  18.9489517
  70.7418289 165.3485718  17.7530689  71.0267868 164.7883301  16.8625469
  69.8137741 164.8526611  18.0374966  70.5812378 166.4224548  17.6578312
  74.7900085 167.5496216  15.4296227  74.3119278 168.5135651  14.8685226
  75.2722168 166.4734039  14.7889729  75.8620605 165.8779144  15.3525095
  74.9232025 166.1134491  13.4139519  73.9034042 166.4197235  13.1809196
  75.8610077 166.9227753  12.4464045  76.8053589 166.4839172  12.1243658
  75.3157425 167.1813660  11.5387049  76.0904007 167.8742218  12.9262476
  74.9522552 164.5595856  13.2354393  75.0862579 163.7955017  14.2049618
  74.8440247 164.1584320  11.9703131  74.9398575 164.8762207  11.2662554
  74.9211426 162.7487030  11.5632744  74.8111649 162.0720215  12.4106798
  73.6936340 162.4593811  10.5616264  73.6270523 163.2715912   9.8377523
  73.7960892 161.5247650  10.0101900  72.7785034 162.3654938  11.1462860
  76.2728271 162.5668488  10.8027325  76.6128082 163.4067078  10.0006752
  76.9295578 161.4395142  11.1247311  76.7100677 160.8706360  11.9299030
  78.2499847 161.1458588  10.5544662  78.3098526 161.6515961   9.5907488
  79.4376373 161.6687775  11.3634872  79.4111633 160.9549255  12.1867838
  80.3776932 161.5280609  10.8299980  79.3488770 163.0336456  11.8994474
  79.7513351 164.1583252  11.0776873  80.0039978 164.1643219  10.0276737
  79.8346252 165.4068298  11.6747446  80.2745667 166.1792450  11.0613670
  79.6176147 165.6191406  13.0695190  79.5879974 166.8359833  13.5493155
  79.6827164 167.4893646  12.8523741  79.2091599 164.5048065  13.8989811
  79.0759277 164.6483612  14.9610786  79.0832062 163.2336273  13.2709198
  78.7526169 162.3916779  13.8610430  78.2661285 159.5605469  10.4470005
  77.5219955 158.8793640  11.1299744  79.0297623 159.0261230   9.5254803
  79.5093231 159.6908875   8.9353971  79.0728455 157.5641327   9.1788816
  78.4886398 156.9143677   9.8305063  78.4400787 157.1867676   7.7874475
  78.6577682 156.1472321   7.5423307  76.9154434 157.3630524   7.6941991
  76.6442337 158.3701477   8.0108776  76.4300995 157.0635223   6.7653112
  76.4282684 156.6789398   8.3889952  78.9923325 157.9999390   6.5983453
  80.0806580 157.9538879   6.6373043  78.6115417 157.6371918   5.6436086
  78.6699066 159.0348816   6.7125645  80.4915314 156.9273987   9.2567730
  81.4427032 157.5878143   8.8226032  80.6208267 155.7413788   9.8179111
  79.7737579 155.3197327  10.1711769  81.7886353 154.8256683   9.7591686
  82.7009277 155.3862915   9.9629230  81.6524124 153.8167725  10.8872023
  82.5255890 153.1647034  10.8658037  81.6061630 154.2781677  11.8736496
  80.4204636 152.9095306  10.7138920  79.9931107 152.6584778   9.6182737
  79.9319839 152.2754211  11.7293396  79.4304810 151.4076843  11.6043491
  80.2985306 152.5489502  12.6298552  82.0802078 154.2557068   8.3463802
  81.1866989 154.3800507   7.5049071  83.1786423 153.4446716   8.1102943
  84.3572693 153.2294922   8.8961439  84.2599411 152.2878113   9.4363842
  84.5402756 154.0112000   9.6333971  85.4818802 153.0358887   7.8915200
  86.3053818 152.5173187   8.3824711  85.7754211 153.9914093   7.4568491
  84.7657394 152.1275024   6.8761344  84.7858353 151.1134033   7.2752428
  85.1815109 152.0432129   5.8720760  83.3914642 152.7544708   6.8071361
  83.4445038 153.5967102   6.1172662  82.3209686 151.7095032   6.3408766
  82.0756149 151.4546509   5.1701040  81.6143951 151.1826019   7.3235364
  81.9969330 151.4939575   8.2049103  80.6113281 150.1218414   7.3238034
  80.8453369 149.3510742   6.5894666  80.7366104 149.3886261   8.6823568
  80.4981232 150.1024017   9.4708652  80.0500565 148.5424500   8.6552505
  82.1352386 148.9245300   8.9900627  83.0703506 149.6505585   9.7367134
  84.0915527 148.8166504   9.9146566  84.9942398 149.1109924  10.4293537
  83.8912964 147.6329498   9.3249569  84.6322708 146.9489746   9.2680302
  82.6102142 147.6321564   8.8413372  82.1111526 146.8311310   8.3162670
  79.2298660 150.7471466   7.1496005  78.2755432 150.0604401   7.5238695
  79.0749741 151.9621124   6.6460071  79.8844910 152.5360870   6.4579954
  77.8006287 152.6844330   6.2317944  78.1346512 153.6603088   5.8793716
  77.3730927 152.1922913   5.3582282  76.7041931 152.8511505   7.2614703
  75.6442871 153.4013977   6.9585495  76.9040909 152.4368744   8.4985523
  77.8270416 152.0883484   8.7148333  76.0447083 152.7106171   9.6360788
  75.0117035 152.4723053   9.3826857  76.5071640 151.6916656  10.7247486
  76.6119614 150.7116699  10.2592134  77.5403671 151.8775330  11.0180635
  75.5782623 151.6167145  11.9402447  74.6842194 150.5497894  12.0489883
  74.7285004 149.7263641  11.3515587  73.7111435 150.5100098  13.0993624
  73.0679932 149.6591797  13.2692223  73.7652817 151.4535370  14.1263084
  72.9110947 151.3638916  15.1550627  72.4013672 150.5543671  15.0747747
  74.6672211 152.5204315  13.9572191  74.6728210 153.3169861  14.6865101
  75.5928726 152.6286774  12.9050798  76.3086090 153.4313202  12.8056345
  76.1319351 154.1737518  10.1903839  77.2620926 154.7579651  10.2711306
  75.0264282 154.7819214  10.5981321  74.1609192 154.2615356  10.5837688
  74.9037018 156.1651001  10.9350967  75.6670609 156.7527771  10.4251575
  73.6605759 156.8337402  10.2063904  72.7825317 156.5407562  10.7819796
  73.6814728 158.3266602  10.4333897  74.4786835 158.8458252   9.9013939
  72.7527771 158.7040710  10.0053816  73.6491852 158.4744415  11.5128422
  73.5520020 156.4553528   8.7131834  74.0083237 157.1822052   8.0412045
  74.1025543 155.5566711   8.4350300  72.0884781 156.3273773   8.3148479
  71.6978378 157.3402405   8.4128342  71.9847183 155.8873291   7.3230295
  71.4964294 155.6535645   8.9341764  74.8674011 156.4156494  12.4541359
  74.0112152 155.8835144  13.1207314  75.8469467 157.1910858  12.9314499
  76.5612030 157.5634918  12.3221416  76.0188751 157.5530090  14.3412914
  75.2665329 157.0749054  14.9685860  77.4526749 157.2181854  14.8401155
  78.1133957 157.5596619  14.0432806  77.6629410 157.6632233  15.8126507
  77.6460953 155.7584991  15.1335192  77.1136398 155.0544739  16.2224789
  77.5739288 153.7995148  16.0969372  77.3783340 152.9936523  16.7888451
  78.4559402 153.7201385  15.0536566  78.9851379 152.9070740  14.7726250
  78.4324036 154.9344330  14.3902931  79.0248337 155.2392883  13.5402994
  75.7549438 159.0072784  14.4736223  76.4496078 159.8113403  13.8801413
  74.6473007 159.3424835  15.1201506  73.9840622 158.7057190  15.5381613
  74.4262314 160.6712036  15.6071672  74.8826218 161.4215698  14.9615936
  72.9168243 161.0065460  15.7031012  72.4112244 160.1448822  16.1389751
  72.7305450 161.8588562  16.3565292  72.2765045 161.3384705  14.3793383
  72.7574005 162.2460175  14.0143757  72.4635620 160.5513458  13.6488981
  70.7914505 161.5656433  14.4936848  70.1031113 160.8652344  15.2853985
  70.2755432 162.4254456  13.7551403  75.1795502 160.9255066  16.9526482
  74.8082275 160.2716370  17.9044170  76.1292953 161.8276367  17.0107670
  76.2240677 162.4671021  16.2347488  76.9386444 162.0672150  18.2398872
  76.5953140 161.3678436  19.0021839  78.4789581 161.8999481  17.9945278
  79.1411514 162.2321625  18.7940540  78.7512741 160.4625092  17.7273922
  78.0983658 159.9630280  17.0116100  79.7457581 160.3235016  17.3034000
  78.7105713 159.9516907  18.6894264  78.8993683 162.5010529  16.8081894
  79.7817917 162.1519012  16.6631508  76.7856903 163.4726257  18.7346821
  76.8436127 164.4412689  17.9527721  76.6127625 163.6806793  20.0317039
  76.4915009 162.8390198  20.5766888  76.6081924 164.9297943  20.7766209
  76.1523514 165.7534027  20.2271004  75.6527328 164.7271881  21.9285297
  74.6353378 164.5575256  21.5760899  75.9393082 163.8432922  22.4983482
  75.6270294 165.9950256  22.8849335  76.6363602 166.4000702  22.9576225
  74.7311401 167.1458893  22.3896313  73.7534714 166.7448883  22.1223221
  74.5400009 167.9467621  23.1038952  75.1085510 167.4983368  21.4297123
  75.1689072 165.6318665  24.3223228  75.6776123 164.7262115  24.6526699
  75.4723434 166.4521637  24.9728146  74.1208038 165.3348236  24.3591824
  78.0251389 165.2441864  21.2366467  78.7746048 164.3983765  21.7650814
  78.3804245 166.4714508  21.0801220  77.8604660 167.0401154  20.4271641
  79.7188187 167.0230713  21.5056133  80.3169632 166.1353302  21.7111359
  80.4390335 167.8584595  20.4145603  81.3215256 168.3130646  20.8647118
  80.9634933 167.0047150  19.2658253  80.1051254 166.5036316  18.8183689
  81.3621597 167.7387390  18.5655594  81.7036057 166.3085785  19.6604595
  79.6001053 168.8242493  19.7954617  79.5657959 169.6706696  20.2471352
  79.5748062 167.7126617  22.8755455  78.6874313 168.5899200  23.1190834
  80.4276505 167.2783966  23.7653770  81.1011276 166.6083832  23.4224167
  80.6797104 167.8992767  25.1135979  80.3807678 168.9455872  25.1764584
  79.9148560 167.1038055  26.2166462  80.1959610 167.5373993  27.1763763
  78.4069595 167.2152710  26.0082245  78.1655197 166.7273102  25.0639267
  77.8849258 166.6827087  26.8031921  78.0395813 168.2400055  26.0633430
  80.3530045 165.6329346  26.3001366  81.4362869 165.5272675  26.3587189
  79.9946594 165.1895599  27.2291737  80.0416565 165.0311127  25.4463425
  82.1454697 167.9481506  25.3460636  82.9082260 167.0405273  24.9275684
  82.6308060 168.9586182  26.0853539  82.0256348 169.7326050  26.3194923
  84.1267624 168.9546051  26.5035763  84.6579132 168.6402893  25.6051445
  84.6066437 170.3725128  26.9381504  84.2817688 170.6212006  27.9484520
  85.6921692 170.3678894  27.0367184  84.2893829 171.4782562  25.9806881
  85.0668106 171.7076416  24.8238697  85.8495026 170.9998169  24.5941200
  84.8479309 172.8941650  24.0555763  85.4259720 173.1294098  23.1741371
  83.8667679 173.8030396  24.4666939  83.7042313 175.0087891  23.8228664
  83.9325790 174.9071808  22.8959713  83.1068878 173.5606995  25.5907574
  82.3820190 174.3203278  25.8435726  83.3003159 172.3934784  26.3465118
  82.7936935 172.2266083  27.2856121  84.4995804 167.9280090  27.5580921
  85.6459808 167.4238281  27.6208324  83.5423355 167.6295319  28.4515533
  82.6174393 168.0320435  28.4001808  83.7012863 166.7586517  29.6110897
  84.6592255 166.2416687  29.5547466  83.7653809 167.7032166  30.8382244
  84.5312576 168.4602356  30.6695213  82.8092346 168.2159119  30.9432697
  84.0803452 167.1212158  32.1986160  83.3345413 166.3697357  32.4577942
  85.0111237 166.5821533  32.0220451  84.1908798 168.2677155  33.2394485
  84.8753052 169.0386200  32.8853912  83.2411880 168.7930756  33.3403435
  84.6165237 167.6858978  34.6356354  84.3906326 168.3959045  35.4312248
  83.8894424 166.8879700  34.7864609  86.0171356 167.2668304  34.7884636
  86.7002335 167.7145844  34.1943359  86.4102707 167.4466248  35.7012749
  86.2063446 166.3081512  34.5330391  82.6661835 165.6369171  29.7028065
  81.4791336 165.7698364  29.4609165  83.0997391 164.5340271  30.2093487
  84.0875473 164.4945526  30.4161472  82.3377151 163.3542633  30.6072140
  81.3023071 163.5724335  30.8688068  82.1697006 162.4819641  29.3318100
  83.1631851 162.1611328  29.0185051  81.5288086 161.6265564  29.5454121
  81.7747574 163.1692200  28.5836105  82.9029999 162.6707306  31.8596649
  84.0455399 162.8255768  32.1795464  82.0182877 161.8881378  32.4847717
  81.1082153 161.7716217  32.0625076  82.2307358 161.4586029  33.8570328
  83.1723328 161.9661407  34.0666008  81.0908737 161.9689331  34.7110939
  80.1502380 161.6396790  34.2696190  81.2001419 161.7652893  35.7763100
  80.9018326 163.7786713  34.4110451  79.7207031 163.9759216  35.0034256
  82.5148239 159.9496460  34.0524178  83.6755219 159.5899506  34.3061180
  81.5314636 159.0089264  34.0640144  80.6228104 159.3756561  33.8191452
  81.6488724 157.5447693  34.2782593  82.5000458 157.3648376  34.9349289
  80.3110123 157.0138245  34.9543076  79.4453278 157.3683777  34.3948555
  80.2915039 155.9257965  34.8917084  80.1979523 157.5464630  36.3227234
  81.1197891 157.2746429  37.1216621  79.1676636 158.2361908  36.6410637
  79.0287704 158.4858704  37.6098061  78.5383759 158.5044250  35.8979912
  81.9058380 156.7724457  32.9746628  81.1835098 155.7543335  32.6756210
  82.9358368 157.1430054  32.2258186  83.4186935 157.9714203  32.5430832
  83.3505096 156.5193787  30.9477577  82.6495514 155.7354126  30.6611290
  83.3356628 157.5588989  29.8083763  84.0209961 158.3757935  30.0344048
  83.6267853 157.0896912  28.8685875  81.9729919 158.1002350  29.4204006
  81.5728073 158.6373138  30.2803478  81.9956131 159.0696259  28.2513084
  82.1767044 158.5577850  27.3061466  80.9880600 159.4620667  28.1137676
  82.7478180 159.8527985  28.3458023  81.0183105 157.0247498  28.8613682
  80.7392807 156.3537903  29.6738052  80.1220703 157.5253754  28.4950123
  81.4410324 156.4425964  28.0425186  84.7590408 155.9546967  31.1074123
  85.7043457 156.6177368  31.5223923  84.9672928 154.6620636  30.6265984
  84.1364670 154.2192688  30.2608738  86.2650909 154.0316162  30.4728603
  86.9243546 154.6175079  31.1133289  86.2818909 152.5415649  30.9283447
  85.5923157 152.0244598  30.2611084  87.2704391 152.1346130  30.7155704
  85.9117203 152.3393860  32.4209671  85.8409500 153.2513580  33.2141151
  85.7450027 151.0761719  32.7787857  85.6661148 150.8663635  33.7635994
  85.8538589 150.3226471  32.1151276  86.7514420 154.1617889  28.9984875
  85.8801498 154.4878387  28.1364365  88.0797577 154.0354767  28.7880058
  88.5612183 153.5742950  29.5466862  88.6829910 154.1478729  27.4885597
  87.9920425 154.5971069  26.7751923  89.8835754 155.1053467  27.5958977
  90.6433792 154.6103821  28.2007198  90.2658310 155.2364349  26.5835724
  89.6418381 156.4805756  28.3437862  89.0502090 156.3849792  29.2542477
  90.9153824 157.1723785  28.6640606  91.3869553 157.4569092  27.7234402
  90.7239151 158.0537872  29.2760887  91.6178284 156.5453033  29.2131004
  88.8308258 157.3449402  27.3217545  87.8774414 156.8405914  27.1642857
  88.5969315 158.3439636  27.6896667  89.4670563 157.4673920  26.4452171
  89.0718765 152.7606964  26.9605179  89.5360260 151.9374847  27.7312698
  88.8250732 152.4075317  25.6913719  88.3619080 153.0987854  25.1188793
  89.2763519 151.1080933  25.0895958  90.2095261 150.7866211  25.5521336
  88.2432861 149.9916992  25.3789787  88.5807648 148.9706116  25.2012806
  88.0215530 149.9712067  26.4459915  87.1046371 150.2325745  24.5893459
  86.3230667 149.8621368  25.0059185  89.6821518 151.3461456  23.6476727
  89.2972412 152.3499298  23.0350304  90.4603653 150.4186554  23.1004028
  90.6509933 149.5616455  23.5997047  91.1521912 150.7251282  21.8399734
  91.5431900 149.8321075  21.3524055  90.5264816 151.2638550  21.1283798
  92.4257965 151.5553589  22.0572414  92.7610474 151.9302521  23.1844292
  93.1278992 152.0142212  20.9880295  92.7506104 151.7911072  20.0780964
  93.9862595 153.1989288  21.1208878  93.9422379 153.6383209  22.1174278
  95.4374771 152.8413239  20.7941170  95.4751892 152.3904419  19.8024597
  96.0261154 153.7546997  20.7083588  96.1668472 151.8338165  21.7748947
  95.4858017 150.9978943  21.9346333  97.0177612 151.3302612  21.3161106
  96.4849625 152.4841309  23.0792408  97.1481857 153.3472595  23.0223236
  95.5522079 152.9225464  23.4340153  96.8716736 151.5090790  24.1336002
  97.8094711 151.1380310  24.0792427  96.1935349 151.1060181  25.1985359
  95.0140305 151.5767670  25.6376114  94.5869217 152.3358307  25.1262226
  94.5129623 151.0269775  26.3208160  96.7399597 150.1311646  25.8323174
  97.5257034 149.6160889  25.4616261  96.3132477 149.7264404  26.6534233
  93.5187149 154.2797852  20.1252270  92.7872925 153.9719238  19.1759377
  93.8250427 155.5845642  20.3749237  94.6578369 156.0605316  21.5701733
  95.7241135 155.8354492  21.5477428  94.1551361 155.6387939  22.4405384
  94.5259247 157.5511017  21.5670147  95.4345322 158.1297607  21.7334576
  93.8295517 157.8309937  22.3574772  94.0916367 157.8804474  20.1323376
  94.9125595 158.2639008  19.5264091  93.3291473 158.6587067  20.1643124
  93.4710388 156.6679077  19.4868755  92.3822174 156.6961212  19.5289745
  93.8281631 156.4880676  17.9799957  94.9154739 156.0284576  17.5886688
  92.7992935 156.6133118  17.1326008  91.8873138 156.7297821  17.5507202
  92.9143372 156.5656281  15.6650181  93.9930573 156.6336823  15.5242119
  92.4818115 155.2544403  15.0931654  92.9979019 154.4332733  15.5906000
  91.4337387 155.1554108  15.3757000  92.6446991 155.1649323  13.6878996
  92.5276489 154.2736969  13.3508472  92.4922333 157.8259125  14.9123554
  91.5068588 158.4659882  15.3591976  93.1899414 158.2387390  13.8246222
  94.1251984 157.8779602  13.7011471  92.7036133 159.3013000  12.9286900
  91.9964371 159.9592590  13.4337492  93.8866425 160.0273743  12.3013353
  93.6081543 160.7547302  11.5387774  94.6086655 160.7664185  13.4299660
  95.0327530 160.0838013  14.1663589  95.3696136 161.4297333  13.0187645
  93.8823318 161.4204712  13.9124117  94.7037125 159.0440063  11.6342974
  95.5595016 159.3332367  11.3093710  91.9608002 158.6763153  11.7384081
  91.4080963 159.4950714  11.0024490  91.9730301 157.3071899  11.5155363
  92.5159912 156.6859589  12.0980978  91.3385620 156.7781067  10.3052788
  91.8223572 157.2571869   9.4540787  91.5555725 155.3093414  10.2947311
  91.1451645 154.8915710  11.2140417  90.9571762 154.8606415   9.5018282
  93.0051651 154.8190765   9.9515018  93.7685242 155.0836029  10.6832123
  92.9376297 153.7333374  10.0200119  93.3651733 155.1587524   8.5246344
  93.8618240 156.2898865   8.2499990  93.2676620 154.3465271   7.5939002
  89.8107224 157.0464478  10.2442837  89.0220032 156.7875977  11.1858091
  89.4004822 157.6557007   9.1260767  90.0283661 157.6494751   8.3349886
  87.9996490 158.0948334   8.8274612  87.9827576 158.5155487   7.8220692
  87.1596756 156.7553711   8.5817251  87.8540421 155.9898987   8.2353172
  86.7181931 156.3845978   9.5067787  86.0428543 156.8264160   7.5542026
  84.6780930 157.0178070   7.9139204  83.9797363 156.7966309   6.7743125
  82.9088669 156.8401642   6.6411309  84.8713074 156.4897461   5.7820792
  84.5370331 156.1124115   4.9068756  86.1697235 156.5022278   6.2173100
  87.0572205 156.3102417   5.6325970  87.4027863 159.1119385   9.7714453
  86.1623840 159.1242065   9.9167385  88.2657394 160.0064697  10.2935343
  89.2497406 159.9773254  10.0677338  87.7464981 160.9072266  11.3605003
  87.1359863 160.2662201  11.9964991  88.9157867 161.4773254  12.2071457
  89.4505081 160.5702820  12.4890175  89.4694977 162.2283630  11.6437292
  88.2625885 162.1248932  13.2752409  88.9005280 162.6882477  13.7193813
  86.8407822 162.0675049  10.9299870  87.1960297 163.0066223  10.2176218
  85.6861343 162.0835114  11.5709209  85.4839859 161.3591766  12.2451420
  84.6336441 163.1493378  11.3906965  84.3179092 163.1758881  10.3477621
  83.3943863 162.6904755  12.1827326  83.5730362 162.8045807  13.2519197
  82.5877457 163.4012451  12.0031519  82.9424667 161.2803497  11.9434738
  83.2213745 160.5048676  10.8660669  83.5886230 160.9138031   9.9363947
  82.7331009 159.2298737  11.0322895  82.6156158 158.5900574  10.2596788
  82.2249908 159.0299377  12.2675180  81.7030411 157.9074554  12.9147463
  81.5312881 156.9905853  12.3704443  81.3106995 158.0489044  14.2650070
  80.8868103 157.1808014  14.7478123  81.5391006 159.2023621  15.0462856
  81.3238449 159.2788544  16.1018486  82.1020889 160.3039856  14.3151951
  82.2332306 161.2200470  14.8719912  82.3990479 160.2771759  12.9486408
  85.0664139 164.5805969  11.7945404  84.3301926 165.5337219  11.4307537
  86.1584778 164.6968842  12.5038271  86.6434326 163.8292389  12.6830549
  86.7176895 165.8873596  13.1419735  86.2652740 166.7725372  12.6948967
  86.3459244 165.8357239  14.6107006  86.7392654 164.9288330  15.0699577
  86.8571167 166.5966949  15.2003765  84.8689880 165.9417267  14.9703178
  84.2289734 167.1682739  14.7466154  84.7742844 168.0309143  14.3932390
  82.9276352 167.3085480  15.1363983  82.4520721 168.2600861  14.9497814
  82.1595764 166.3102570  15.7143536  81.1442871 166.4956512  16.0324955
  82.7374039 165.0317841  15.7658386  82.1760178 164.1251678  15.9369917
  84.1008072 164.8370819  15.4088306  84.4643784 163.8201294  15.4095945
  88.2034454 166.0528107  12.8750305  89.0421906 165.5729675  13.6634464
  88.6560059 166.6894684  11.7597952  87.8283386 167.1333008  10.6644001
  87.3245239 168.0604095  10.9378014  87.0370483 166.4318542  10.3999500
  88.7387314 167.3840485   9.4763680  88.4219589 168.1598053   8.7792683
  88.8803787 166.4771729   8.8884764  90.0779877 167.6866760  10.1301813
  90.0877304 168.7668457  10.2759228  90.9493179 167.5281677   9.4947529
  90.1125793 166.8453979  11.4164143  90.5283127 165.8614807  11.1992149
  90.9907532 167.3747253  12.4798422  90.6944885 168.4129944  13.1421471
  92.2176590 166.9032135  12.6157646  92.4009857 166.2427826  11.8739233
  93.2129898 167.2451324  13.6144791  94.1670914 166.7915344  13.3460484
  93.2811508 168.3295288  13.7012711  92.9800186 166.6873474  14.9835396
  93.5113754 167.2437134  15.9553757  92.0966721 165.7060242  15.1457825
  91.4992752 165.4506226  14.3724842  91.8892212 164.9008789  16.3586903
  92.5767899 165.1587524  17.1642036  90.4741364 165.1643982  16.9425526
  89.7914429 164.8661804  16.1468735  90.3273010 164.5616302  17.8387775
  90.2386703 166.6550293  17.3104839  90.6448975 167.1522064  18.5657635
  91.0087433 166.5370789  19.3754768  90.3843384 168.4687958  18.8254337
  90.7373886 168.8648224  19.7661304  89.7024078 169.3548737  17.9955940
  89.5248795 170.6915436  18.3591385  89.9309540 170.8704071  19.2104359
  89.2895813 168.8742523  16.7683544  88.7880554 169.5124054  16.0558739
  89.5505066 167.4868164  16.4200459  89.1961746 167.0168457  15.5145197
  92.0379562 163.4088287  16.0458298  91.7610474 162.8777618  14.9838514
  92.4347534 162.6543427  17.1307755  92.7032852 163.0791473  18.0068665
  92.3461151 161.1965485  17.2370262  92.1867523 160.7178345  16.2708282
  93.5970230 160.6524353  17.8646412  93.6289444 160.9481049  18.9132900
  93.4017181 159.5825958  17.7912140  94.4808655 161.0356598  17.3546562
  91.0997238 160.8764954  18.0099773  90.8337631 161.4960938  19.0437355
  90.2384720 159.9719238  17.5525951  90.4897385 159.4074707  16.7536259
  89.0959091 159.3648376  18.2191620  88.7097702 160.1256409  18.8975201
  88.0081177 159.0487671  17.1508636  87.1407089 158.6829529  17.7003059
  87.7214737 159.9818726  16.6658115  88.3255997 158.1193390  16.0094910
  88.5136566 158.5147705  14.7477674  88.6275787 159.5202484  14.3703136
  88.6245270 157.3573608  14.0119734  88.8743820 157.3103943  13.0344925
  88.5504227 156.1825409  14.7068071  88.6937943 154.8265533  14.3075171
  88.9762115 154.5085297  13.3147926  88.4254684 153.8393860  15.2982244
  88.5882263 152.7990112  15.0583515  87.9917755 154.2574310  16.6276207
  87.8573151 153.4641418  17.3480549  87.9252930 155.6257324  16.9722252
  87.6325073 155.8369904  17.9900894  88.2456894 156.6148834  16.0382175
  89.5398941 158.0423584  18.9853516  90.4046097 157.3184662  18.5135708
  88.9451218 157.7697601  20.1514969  88.4629745 158.5619965  20.5514736
  89.2967682 156.5254822  20.9475517  89.5577774 155.7626343  20.2140522
  90.4830246 156.8438263  21.8210297  91.2753067 157.1578369  21.1414776
  90.3676758 158.0117188  22.7892799  89.6331863 157.7445984  23.5490589
  91.3666458 158.0656738  23.2220154  90.0748978 158.9759369  22.3737602
  90.8192673 155.6355896  22.4402981  91.6799316 155.6424713  22.8655109
  88.0317764 156.0819244  21.7782269  87.2631989 156.9021606  22.3380527
  87.6652679 154.7731781  21.6152534  88.3761978 154.1959381  21.1892376
  86.3741302 154.2547302  21.9821529  85.6375961 154.8576813  21.4510727
  86.2150650 152.8330383  21.5085258  86.6952820 152.0750732  22.1273804
  84.6474228 152.6102753  21.4234619  84.1034927 153.3691406  20.8610020
  84.4549179 151.5679626  21.1692276  84.3305817 152.7489471  22.4571362
  86.7357941 152.4927521  20.0844517  86.4550171 153.2833557  19.3886051
  87.8233185 152.5592651  20.1156731  86.4287109 151.1344299  19.5050697
  85.3767319 151.1277161  19.2197437  87.0620956 150.9378662  18.6400394
  86.6537247 150.3240814  20.1984673  86.0903854 154.5059967  23.4434624
  86.8614502 154.2213287  24.3102837  84.8501892 154.9647064  23.7500782
  84.2855988 155.2527924  22.9637299  84.2637253 155.1750336  25.1054783
  85.0956573 155.1250000  25.8079681  83.6960907 156.5971222  25.1802711
  82.9514389 156.7510681  24.3993092  83.3868179 156.7307434  26.2168999
  84.4296570 157.3688507  24.9469414  83.1868668 154.1141968  25.4478817
  82.2981796 153.8157654  24.6545944  83.2043457 153.5296173  26.6643333
  83.9607773 153.7579346  27.2934494  82.2121124 152.5974884  27.2276211
  81.3234558 152.7378693  26.6122475  82.7623367 151.1597595  27.2270393
  83.7421265 151.1534882  27.7046070  82.1212387 150.4773712  27.7851028
  83.0477753 150.5738220  25.8141804  82.1188583 150.6283569  25.2465210
  83.8123093 151.1842804  25.3336258  83.7315979 149.2564545  25.9064655
  84.9260788 149.1923218  25.9607105  82.9561996 148.1864014  25.8946781
  83.4319611 147.2955780  25.9080448  81.9463196 148.1779785  25.8815727
  81.7275620 153.0771027  28.5789433  82.4637756 153.7528687  29.2856121
  80.5030060 152.6604309  28.9785347  79.8420563 152.1817322  28.3834648
  79.9748611 152.9100494  30.3333969  79.9263763 153.9796143  30.5378494
  78.4469528 152.5733948  30.3629017  77.9819794 153.0318451  29.4901314
  78.3369293 151.5104675  30.1479588  77.7430267 153.0729218  31.9512806
  76.6537323 152.3084869  32.0694542  80.7072220 152.1282501  31.4410629
  81.1085510 150.9664612  31.2791862  80.9437027 152.7676086  32.6133461
  80.6048584 153.7162628  32.6863976  81.7552338 152.2478333  33.7711754
  82.6015015 151.6743622  33.3929405  82.3426971 153.3790588  34.5919762
  82.9235611 154.0941315  34.0094376  81.5139236 153.8364105  35.1324081
  83.2770920 152.8906860  35.7199097  82.6881943 152.2300720  36.3562241
  84.0912018 152.2527618  35.3758430  83.9307175 154.0458832  36.4201698
  83.1562576 154.6430359  36.9015465  84.5477753 153.7335510  37.2626610
  84.7853088 154.8046570  35.4699631  85.1242905 154.2575531  34.6915932
  85.4614182 155.9839478  35.6503983  85.4522324 156.7004700  36.7768440
  84.9863510 156.3952179  37.6193924  85.8938751 157.6087799  36.7715607
  86.1875916 156.4390106  34.6849365  86.2803497 155.8794250  33.8492508
  86.9344406 157.0895538  34.8827095  81.0389862 151.1343689  34.5373192
  81.6865234 150.2540894  35.1009026  79.6679916 151.1672516  34.5197830
  79.2321701 151.9891510  34.1265564  78.8052521 150.2104034  35.2575569
  79.3523483 149.8613586  36.1333237  77.5514755 150.9768677  35.7977333
  77.0409851 151.4097290  34.9374237  76.5333557 150.1696930  36.5703087
  76.9615021 149.5692749  37.3729858  75.7696686 150.7808075  37.0513802
  75.9423447 149.4785767  35.9693413  78.0533600 152.1569214  36.7293625
  78.4821854 153.0013580  36.1897774  77.1662216 152.4982300  37.2628517
  78.9483719 151.7722321  37.8804207  79.9350052 151.5397644  37.4796715
  78.9693985 152.5688324  38.6241226  78.6064148 150.9152985  38.4607887
  78.3600464 148.9703674  34.4626579  77.8885574 147.9499054  35.0721741
  78.3898010 149.0780029  33.0773010  78.6381989 149.9582214  32.6488190
  77.7660370 148.0931244  32.2221527  77.6759949 147.1389618  32.7413559
  76.3347092 148.5217896  31.9188194  75.8200912 147.6357727  31.5469780
  75.8182983 148.7960968  32.8386917  76.1861877 149.8293152  30.7001209
  74.9195862 150.1222687  31.0080032  78.5374756 147.6527557  30.9626064
  78.1205521 146.6547089  30.4130096  79.6204681 148.3703308  30.4985142
  79.8536453 149.1663818  31.0747204  80.3692551 148.2017670  29.2460918
  81.3165512 148.7376709  29.3056507  80.6569061 147.1506042  29.2257252
  79.6412430 148.5025787  27.9252300  80.0830002 148.0603638  26.8659363
  78.5179138 149.2659607  27.9493294  78.0926285 149.4861450  28.8385696
  77.7626114 149.6585388  26.7219543  77.6457901 148.8240967  26.0304527
  76.3434067 150.2257538  27.0308075  75.7815475 149.5379181  27.6627121
  76.4859543 151.2189941  27.4565411  75.6213455 150.4083099  25.7247524
  75.5544052 149.5367279  24.9205456  74.9406128 151.5403748  25.5875664
  74.6402740 151.7062683  24.6376343  74.8801346 152.2872772  26.2647552
  78.6161270 150.6481018  25.9392262  79.2450485 151.5384216  26.5238266
  78.6087341 150.5202026  24.6095695  78.0426178 149.7735138  24.2326698
  79.2451324 151.5277405  23.7149467  80.2938004 151.5639038  24.0100613
  79.1333923 150.9812317  22.2824192  79.6632004 150.0348663  22.1737938
  78.1081696 150.8281250  21.9453964  79.7006149 151.9238281  21.2685509
  78.9782639 152.4026031  20.1777306  79.8006516 153.3181152  19.5603580
  79.3819885 153.8839722  18.7412529  80.9764938 153.3854370  20.2301788
  81.7768784 153.9626465  20.0149422  80.9078827 152.5109711  21.3221550
  81.6579361 152.3503265  22.0824242  78.5501404 152.9611359  23.7654247
  77.3846893 153.1514893  23.4638176  79.3157120 153.9938354  24.0881443
  80.3103790 153.8534546  24.1931648  78.9337616 155.3900452  24.3513775
  77.8510132 155.3945007  24.2259178  79.1400299 155.7857819  25.7555714
  80.2058029 155.8867340  25.9605999  78.7061920 156.7647247  25.9594078
  78.5720444 154.9042816  26.8588428  79.1378403 153.9813538  26.9859924
  78.5927811 155.4041290  27.8272533  76.7881393 154.4433136  26.6520710
  75.9637909 156.0232544  26.9165573  76.4236679 156.7558441  26.2532959
  74.9236450 155.9693146  26.5951710  76.1091766 156.2852936  27.9645576
  79.4778442 156.3889008  23.3530941  79.0989685 157.5390472  23.4189854
  80.2460556 155.8829498  22.3369713  80.3665543 154.8803101  22.3193417
  80.8434296 156.7305145  21.3446617  80.6384048 156.3026886  20.3633194
  80.4363174 157.7407837  21.3863182  82.2843094 156.8257294  21.5891266
  82.9626160 155.8015594  21.8626499  82.8453522 158.0178375  21.4256077
  82.2186661 158.7417603  21.1042309  84.3475342 158.1958313  21.3798428
  84.8278122 157.3942108  21.9409504  84.9802628 157.9661102  19.9806099
  84.7440796 158.8377686  19.3702488  86.0588150 157.9349976  20.1351051
  84.4763412 156.8044739  19.1956310  85.1130676 155.5894928  18.9609070
  86.1600800 155.4558563  19.1896000  84.3323822 154.6392822  18.4124165
  84.6415024 153.7400208  18.0720005  83.0818634 155.2145081  18.0580730
  81.8977585 154.7547607  17.4370975  81.7503204 153.7194214  17.1673813
  80.8735962 155.6999817  17.2284374  80.0013123 155.3538818  16.6938972
  80.9730301 157.0882111  17.6138840  80.1280365 157.7533875  17.5142460
  82.1599731 157.5737457  18.2212830  82.3250351 158.5949707  18.5315247
  83.2183990 156.6125031  18.4495068  84.8334427 159.4733276  22.0665932
  84.1602325 160.5031891  21.9453506  85.9699783 159.3734894  22.8030128
  86.4019165 158.4702911  22.9362125  86.7766190 160.5571594  23.2050495
  86.1168518 161.2946930  23.6620636  87.7749710 160.1752930  24.3304844
  87.1697998 159.6757355  25.0869999  88.5264816 159.4380646  24.0479279
  88.4525375 161.4115601  24.9672909  89.0254288 161.9960938  24.2474232
  87.6828461 162.0282440  25.4313889  89.2551575 160.9938812  26.2219296
  88.6244659 160.4240723  26.9043159  90.1231613 160.4053802  25.9247189
  89.6365662 162.2318268  27.1228924  90.0371399 163.0288086  26.4964237
  88.7912903 162.6876831  27.6384621  90.5940781 161.8103485  28.2086277
  91.5138855 161.6762238  27.8135719  90.7133560 162.4507599  28.9804688
  90.3462677 160.8953400  28.5571194  87.5252228 161.0975494  21.9492950
  88.0285339 160.2369385  21.1829281  87.7424774 162.4090424  21.8664799
  87.2061462 163.0966644  22.3759975  88.5726852 163.0137787  20.8350372
  89.0516205 162.2002716  20.2901421  87.7657928 163.8272858  19.8210087
  87.0692444 164.4927368  20.3310089  88.4259033 164.4401855  19.2072411
  86.9360886 163.0125122  18.8198147  87.3243637 163.0327454  17.4195919
  88.1584396 163.6069031  17.0440025  86.4509277 162.3765259  16.5395164
  86.6356506 162.2640991  15.4813862  85.3061676 161.7130890  16.9785824
  84.7841415 161.0613098  16.2936954  84.8842239 161.7725677  18.3146992
  84.0036163 161.2077179  18.5827923  85.7189636 162.4554138  19.2477245
  85.3993530 162.4301147  20.2790413  89.6732635 163.8501129  21.5278721
  89.4347153 164.9923859  21.9142952  90.9097748 163.3533936  21.5784702
  91.0441895 162.4658203  21.1156178  92.1058578 164.0863190  22.0041542
  91.7842178 164.8437195  22.7189903  93.1030579 163.1739502  22.7688389
  94.0218048 163.7058258  23.0160427  92.4595261 162.7045898  24.1140919
  91.5171661 162.2169647  23.8645172  93.0742645 161.9586792  24.6178970
  92.1501007 163.5428009  24.7383823  93.4510422 161.9093933  22.1869793
  93.8961487 162.2288666  21.3986835  92.8461990 164.6339722  20.7760372
  92.7168808 164.0984802  19.7207947  93.4100800 165.8384705  20.8777008
  93.4189987 166.4194489  21.7038269  94.0976562 166.4942780  19.7694340
  93.4400406 166.4909821  18.9001579  94.2326202 168.0158539  20.0350132
  94.7690125 168.2144623  20.9628868  94.6649399 168.4833069  19.1503143
  93.2569504 168.5016785  20.0474758  95.4225235 165.7807159  19.4577694
  96.1563721 165.3488007  20.3519897  95.7844467 165.7804108  18.1504269
  95.1270676 166.1194458  17.4626656  97.1088943 165.3130646  17.6421051
  97.5066223 164.6098022  18.3737659  97.0047989 164.6548615  16.2253895
  98.0191956 164.5949707  15.8310413  96.3528748 163.3449707  16.2686310
  95.2864075 163.4596100  16.4625664  96.4096603 162.8558197  15.2962046
  96.7555847 162.7682648  17.1013069  96.2149582 165.5134125  15.3482809
  96.7768860 165.6600494  14.5838633  98.1572418 166.3954926  17.5665092
  99.2352600 166.1973572  18.1435661  97.9103546 167.5283203  16.8633194
  97.0138931 167.5204468  16.3981361  98.7148743 168.7464905  16.9151154
  99.7705231 168.4901886  16.8255692  98.2733536 169.6820679  15.7357283
  97.1855850 169.6858215  15.6661415  98.7731552 170.6461945  15.8292999
  98.8112717 169.0636902  14.4204149  99.8676605 168.8467712  14.5788040
  98.4641953 168.0437622  14.2549181  98.6919708 169.8965912  13.1057682
  99.0352173 170.8965454  13.3710728  99.3434906 169.4553528  12.3514977
  97.2524033 169.8912964  12.6639185  96.8844986 168.8961945  12.9139490
  96.6947556 170.6109772  13.2632370  97.1969223 170.1801758  11.2391500
  97.6458435 169.4694366  10.6793137  96.2401428 170.1032410  10.9248953
  97.6256409 171.0707092  11.0311584  98.6860962 169.4607697  18.2889690
  97.7238464 169.3144836  19.0726604  99.6829681 170.3180237  18.4799919
 100.3743210 170.3070679  17.7437763 100.0905457 170.8971558  19.7976379
  99.8585281 170.0672302  20.4650993 101.6141281 171.1047058  19.9864140
 101.8153152 171.2569885  21.0468082 102.1748886 170.2580414  19.5904369
 102.1263504 172.3485413  19.2685356 102.0650101 172.2623596  18.1836796
 101.6548004 173.2421417  19.6774483 103.5956345 172.5422668  19.5660553
 103.6503448 172.5679016  20.6543789 104.1747513 171.7341309  19.1192417
 104.1001663 173.8872375  19.0224552 103.5354385 174.6489410  19.5600471
 105.1240311 174.0662537  19.3507195 104.0409927 174.0462189  17.5552845
 103.1138687 174.1367188  17.1649380 104.5990448 174.8157959  17.2140503
 104.3537140 173.1996460  17.1018410  99.2877121 172.1174011  20.2410774
  99.1873245 172.3409729  21.4475250  98.6885605 172.9094543  19.3181686
  98.7494812 172.6327057  18.3487339  98.0682678 174.2162628  19.5933170
  97.9705734 174.3873596  20.6653633  98.9783478 175.3618317  19.0907555
  98.5082932 176.3238678  19.2947254  99.9161224 175.4029541  19.6448269
  99.3129272 175.3850861  17.5934696  99.2751236 174.3266754  16.9481030
  99.6044312 176.5253296  17.0245457  96.6372986 174.2736664  19.2366867
  96.1260376 175.3960571  19.0823536  95.8585815 173.1815948  18.9821835
  96.1833115 172.2420197  19.1606274  94.4117813 173.2284546  18.7737713
  94.2380142 174.1459503  18.2115479  93.9391937 172.0677643  17.8704567
  94.0552750 171.0831299  18.3233604  92.8899994 172.2455902  17.6345367
  94.7360229 172.1183624  16.5795918  94.3590469 172.9533081  15.9889507
  95.8103561 172.1195221  16.7637501  94.4762421 170.6359100  15.5197144
  92.9100647 171.0459900  14.7441769  92.9258347 172.1180420  14.5478354
  92.8345947 170.4900208  13.8096638  92.0777359 170.7017212  15.3580284
  93.5531464 173.3213043  19.9689960  93.8598480 172.5818939  20.9171143
  92.4895630 174.1271210  19.9385586  92.3272705 174.6692047  19.1019459
  91.5739517 174.2957916  21.1051712  91.9211731 173.6402283  21.9037762
  91.6664734 175.6676331  21.7592030  92.5421143 175.6556549  22.4082165
  91.8001251 176.4313202  20.9930325  90.5269165 176.0605927  22.5432243
  90.7706146 176.4678497  23.3777008  90.1515961 173.8644867  20.6681156
  89.7987823 174.4511566  19.6625481  89.4369278 172.9570465  21.3440838
  88.0182953 172.7038879  21.1286125  87.7814178 172.4358521  20.0989799
  87.4089966 173.5519257  21.4411678  87.6534500 171.4961853  22.0215969
  87.8458786 170.5170441  21.5830154  86.6176529 171.5514069  22.3565025
  88.5781631 171.6753693  23.1853981  88.8608170 170.6911774  23.5589657
  88.2147064 172.2700500  24.0234718  89.8219376 172.3755493  22.6196136
  90.1587219 173.1718292  23.2834091  90.8997726 171.3069611  22.5171700
  91.0062790 170.6143646  21.5280800  91.7379761 171.1796112  23.5462112
  91.5740662 171.7968597  24.3286648  92.8368835 170.1139679  23.4704018
  93.3435822 170.2561798  22.5158672  93.8157501 170.3040314  24.6840572
  93.9526062 171.3685303  24.8744011  93.2365417 169.8954773  25.5121250
  95.0975952 169.4952087  24.6324100  95.5204315 169.7628937  25.6007385
  94.8209686 168.4410858  24.6519527  96.1819916 169.9161377  23.5832348
  96.0393448 170.9105835  22.8876877  97.2303543 169.1615295  23.5099010
  97.8419342 169.3860016  22.7380962  97.3517303 168.2838593  23.9947643
  92.2278595 168.6997223  23.5530109  92.8676300 167.7233124  23.0543613
  91.0590973 168.5109711  24.2042809  90.6153183 169.3166962  24.6213932
  90.2651520 167.2636414  24.2815266  90.4781418 166.6169128  23.4303646
  90.6673737 166.4643860  25.5682087  90.2485428 165.4622955  25.6603470
  91.7481918 166.3233948  25.5758286  90.2220306 167.0961456  26.8456345
  90.1992950 168.1819153  26.7523727  89.2047501 166.8069000  27.1094055
  91.1546021 166.7822113  28.0621357  90.6312180 167.1067200  28.9614983
  91.3557434 165.7117157  28.0208740  92.4830704 167.5361786  28.0253468
  93.2232132 166.8861237  27.5587349  92.3202515 168.4087982  27.3927937
  92.9992065 167.8903351  29.3618793  93.0064392 167.1320496  30.0290184
  93.9019394 168.3330841  29.2662792  92.5208511 168.7010040  29.7280293
  88.7221603 167.6435089  24.2677498  88.2394104 168.5863953  24.9043941
  87.9116745 166.7775269  23.6544228  88.3479691 165.9882355  23.1996822
  86.4201202 166.7017670  23.7472572  86.0936966 167.0248566  24.7357750
  85.7563553 167.6220703  22.6886063  84.7652283 167.8632507  23.0727978
  86.2674561 168.5843658  22.7181377  85.5988770 167.1216736  21.2864685
  86.7035828 167.2592621  20.4035110  87.5268860 167.8619080  20.7576160
  86.7351379 166.7585449  19.1180763  87.5915756 166.9082184  18.4773693
  85.6613235 166.0261536  18.6542130  85.6818390 165.5364380  17.6918430
  84.5354919 165.9057465  19.4284554  83.7245560 165.2864990  19.0744572
  84.4380646 166.5026550  20.7117214  83.5355072 166.3854370  21.2931442
  85.9052811 165.2613373  23.7086105  86.6814270 164.3047333  23.5708313
  84.5921402 165.1482086  23.7617455  83.9950790 165.9309082  23.9875603
  83.8544464 163.9489899  23.5362148  84.5859375 163.2769775  23.0873966
  83.3776932 163.3023987  24.8259735  82.6372452 163.9682922  25.2691574
  82.8511124 162.3746033  24.6023273  84.3599319 163.1683197  25.9530811
  84.7802658 164.1553650  26.7609768  84.4657059 165.1873932  26.7122726
  85.6411591 163.6530304  27.7239017  86.1675873 164.2236328  28.3699512
  85.7080536 162.2648163  27.7389603  86.2275543 161.3681793  28.6286545
  86.6609344 161.7111053  29.5565434  86.0061874 159.9686432  28.4163342
  86.3923645 159.1825562  29.0482597  85.4018707 159.5951080  27.2358799
  85.1515427 158.5565186  27.0775051  84.9294968 160.5726776  26.3218250
  84.4027023 160.1339874  25.4872932  85.0215454 161.9485931  26.5071850
  82.7484131 163.9799194  22.4824409  81.9626465 164.9093170  22.4296589
  82.7877502 163.0333710  21.5182076  83.4518356 162.2739868  21.5674114
  81.6841431 162.7369385  20.6552315  80.9344940 163.5280151  20.6364784
  82.0093918 162.5699921  19.6283722  80.8587036 161.4678345  21.0984974
  81.2812500 160.3632965  20.8197231  79.7774811 161.6886597  21.8738174
  79.5434036 162.6366119  22.1320610  78.9007263 160.7163391  22.5435009
  79.4661636 159.7856140  22.4972954  78.6864166 161.1050568  24.0598526
  77.9982758 161.9501648  24.0785122  78.2645721 160.2803345  24.6342964
  80.0114975 161.4097290  24.7876339  80.5385742 162.2095947  24.2675209
  79.7157822 161.8308411  26.1759586  79.5472794 160.9763794  26.8314056
  80.5494995 162.4018402  26.5845795  78.8484955 162.4907990  26.1949749
  80.9265289 160.1829987  24.8774586  81.1862717 159.8329773  23.8784008
  81.8114243 160.3735657  25.4847031  80.3965530 159.3356018  25.3123798
  77.5887375 160.3722229  21.7613869  76.9051285 161.3345490  21.4218941
  77.2554550 159.1274414  21.6480064  77.6471024 158.4284668  22.2629414
  76.2242966 158.6552582  20.7248192  76.3131180 159.1520386  19.7586784
  76.4690323 157.1876068  20.2375278  75.5028229 156.9562683  19.7891693
  77.5729294 157.0284271  19.1916580  78.5154572 157.3269043  19.6506310
  77.6184311 155.9887695  18.8673992  77.2872391 157.6299896  18.3287621
  76.7755890 156.3953705  21.3474693  76.6120605 155.4662476  21.1697445
  74.8417740 158.8792877  21.3251324  74.4011154 158.2122955  22.2138348
  74.0478668 159.7822418  20.6927891  74.4504700 160.3435211  19.9559231
  72.7108231 160.1012421  21.1730957  72.7771454 160.3665161  22.2282429
  72.1482925 161.3762207  20.5217972  71.2917252 161.6343842  21.1444931
  72.8876572 162.1719818  20.6122856  71.7472382 161.2919769  19.0509739
  72.5047073 161.7708130  18.4304523  71.7918777 160.2335052  18.7945442
  70.3778458 161.8834839  18.6723194  70.3228912 162.9322510  18.9641590
  70.3125229 161.7147827  17.5974350  69.2496643 161.2093964  19.2955112
  69.0352554 161.3818207  20.2673130  68.4764481 160.3404541  18.6455803
  68.4948578 159.9303589  17.4381218  69.0521851 160.3539581  16.7100754
  67.7348480 159.3364410  17.1385441  67.4238129 159.9029846  19.2807236
  67.1890030 160.2474670  20.2006645  66.7000046 159.4431610  18.7470837
  71.6896515 158.9312592  21.0490627  70.5802765 159.0194550  21.4824505
  72.0452347 157.7840118  20.3838005  72.9411087 157.7931976  19.9175129
  71.3003540 156.5074615  20.4410915  70.2391281 156.6437378  20.2329369
  71.8729401 155.5144196  19.4266567  71.6288834 154.4574280  19.5328941
  71.5535889 155.8105774  18.4274502  73.3282013 155.5807953  19.3829613
  73.6798172 154.7343445  19.0975018  71.3743668 155.8755798  21.8805904
  70.4462280 155.2788086  22.3924522  72.4585953 156.1404266  22.6097202
  73.1709824 156.6644897  22.1218967  72.7487564 155.6567993  23.9743004
  72.1526642 154.7598724  24.1425591  74.1750183 155.1647034  23.9362221
  74.7696304 156.0638123  24.0979481  74.4007950 154.5737000  24.8238258
  74.3522110 154.6840820  22.9740868  72.5489578 156.7134399  25.0665855
  72.3800201 156.3519440  26.2209740  72.4744949 157.9613495  24.7498646
  72.5013275 158.1833038  23.7649193  72.2806396 159.0341949  25.6875515
  72.8881454 158.7854004  26.5576935  72.7682266 160.4254456  25.2275639
  72.2117996 160.7275696  24.3403149  72.5971680 161.1275787  26.0435619
  74.3226471 160.5486145  24.9472980  74.6357117 159.8623657  24.1604271
  74.5814514 161.9315491  24.3199539  74.3499908 162.6719971  25.0856342
  75.5975037 161.8133087  23.9434414  73.9170685 162.0821228  23.4690590
  75.2156982 160.5278015  26.1760330  75.0418549 159.6333618  26.7742500
  76.2840195 160.6452332  25.9943924  74.9563217 161.3643036  26.8249435
  70.8030396 159.1558228  26.1438408  69.9169617 158.9688416  25.3399849
  70.5507202 159.4822693  27.4802628  71.3715820 159.6607208  28.0410137
  69.2264252 159.5471954  28.1292000  68.4898911 159.6690979  27.3349991
  68.8973694 158.2458649  28.7417278  69.1411133 157.4309998  28.0600510
  69.5963821 158.1313019  29.5702019  67.4805069 158.1378937  29.2786942
  67.2874527 158.9385071  29.9927368  66.4429550 158.1013336  28.1156349
  66.5837479 157.3057861  27.3839283  65.4862289 158.0088501  28.6296558
  66.4184494 159.0813751  27.6391487  67.3729706 156.7871399  30.0014133
  68.0823288 156.6666412  30.8201885  66.3988876 156.6985016  30.4824657
  67.5662842 155.9612274  29.3168755  69.0960846 160.7392578  29.0679741
  69.6828384 160.7472382  30.1741371  68.3268280 161.8676453  28.6880074
  67.9279480 162.0812378  27.3312435  67.0382843 161.4761963  27.1565266
  68.6982040 161.8931580  26.5832920  67.6135178 163.5357819  27.1552315
  66.8610382 163.6236725  26.3715534  68.4761200 164.1935272  27.0485001
  67.0993347 163.7972412  28.5178661  66.0391159 163.5487823  28.4699478
  67.1984863 164.8449860  28.8016396  67.8807144 162.9711761  29.4933758
  68.7131882 163.5439911  29.9019871  67.0330811 162.5941925  30.7559643
  66.0012054 163.2300262  30.9560490  67.4383545 161.6869965  31.6308613
  68.2405472 161.1530304  31.3284321  66.9100494 161.4523468  32.9503136
  65.8243332 161.5475311  32.9338379  67.3680191 160.1185608  33.5101891
  67.2143478 159.3123627  32.7928772  68.4408264 160.2491150  33.6520844
  66.6599808 159.8061066  34.8502350  66.7986526 160.6493225  35.5268707
  65.5870285 159.7324524  34.6728745  67.1868057 158.5567780  35.5042000
  68.1834641 158.2601471  35.1774368  67.1455383 158.7613983  36.5740318
  66.2918015 157.4001617  35.2456894  65.8618851 157.4343567  34.3323975
  65.8922577 156.4702911  36.1183968  66.1270676 156.5364685  37.3993340
  66.4686356 157.3917999  37.8138847  65.7791595 155.8344269  38.0366669
  65.2812500 155.3558044  35.6326942  65.0987015 155.1636353  34.6580925
  64.9289780 154.6331940  36.2441254  67.1573715 162.6331787  33.9102440
  66.1882706 162.9895325  34.6483650  68.2371368 163.2846680  33.9347839
