Cpptraj Generated Restart                                                       
   32  4.0000001E-01
  83.3624878 147.6093292  12.7860899  83.6481857 148.6950684  13.2035351
  84.5381012 149.4367676  12.4687738  82.9606094 149.1842804  14.4329634
  84.9550552 150.6603546  12.8947210  82.9075928 150.2686157  15.1484556
  82.1031723 148.4983521  15.2223206  84.6555405 151.6310272  13.8262434
  83.6636963 151.3942719  14.9606791  81.9767838 149.7970886  16.0035686
  81.5703964 148.5948639  16.4952717  85.2146530 153.0091858  14.1684752
  83.5120010 152.5915375  15.8014269  85.4282837 154.2570496  14.7446423
  84.3989182 153.4321136  15.3552198  84.6138916 149.1163940  11.5105505
  85.3213959 155.6007690  14.3105240  85.4588394 156.1083984  12.9438686
  85.1350403 156.6288910  15.1217680  85.5768280 155.3484955  11.9869184
  85.3327942 157.5454712  12.7384729  85.0098801 157.8193970  15.0118427
  85.0611572 158.5283051  13.7187395  85.1673431 159.7037048  13.4695730
  85.3393250 157.8067474  11.7595596  80.5992661 149.1168671  15.6746359
  79.3337173 149.0747986  15.0650587  78.2409973 150.0065155  15.1765432
  78.8045044 147.8149567  14.3608932  77.0633469 149.6816406  14.9462681
  77.6220322 147.7343750  13.9713163  76.8854980 148.7201385  14.1463423
