Cpptraj Generated Restart                                                       
 6223  4.0000001E-01
  90.6109238 180.3412018  24.5937004  91.5657578 180.4434509  24.2807617
  90.5335464 179.3792572  24.8916340  90.3900681 180.9201660  25.3912811
  89.6246185 180.5316772  23.4216347  88.6378937 180.3455505  23.8457241
  89.6697388 181.9797821  22.9018497  90.6369400 182.1405029  22.4256191
  88.9337158 182.1443939  22.1149082  89.3991776 183.0381622  23.9619827
  88.4322433 182.8132019  24.4120121  90.1125488 182.9726868  24.7835159
  89.5107193 184.7740631  23.3442707  87.8201141 184.9210510  22.5400696
  87.0429535 185.1650848  23.2643528  87.8425827 185.7754364  21.8635921
  87.5825653 183.9996033  22.0084667  89.6987381 179.4552307  22.3352642
  90.7873840 178.9599152  22.0430660  88.5856628 178.9714355  21.8163834
  87.7332077 179.4709930  22.0258007  88.5125122 178.0053864  20.6797810
  89.1008530 177.1503906  21.0128765  87.0559540 177.4471283  20.5137615
  86.4733353 178.3377686  20.2783775  87.0250854 176.5355225  19.2862377
  87.6448822 175.6559448  19.4602776  85.9788132 176.3303680  19.0596886
  87.3558502 177.1242676  18.4306335  86.6157837 176.7982941  21.8007870
  85.9133224 176.0216064  21.4984608  87.4830627 176.3165894  22.2523384
  85.9554749 177.6350861  22.8842964  85.0368576 177.9483185  22.3881798
  85.7993774 176.9810486  23.7421856  86.6489944 178.4601135  23.0469780
  89.2186356 178.5021667  19.4199734  89.3050308 179.6811218  19.2626724
  89.8634644 177.6447449  18.6324444  89.9399414 176.6894989  18.9514084
  90.4941254 178.1013794  17.3716297  90.0687103 179.0567627  17.0644550
  91.9739456 178.5166473  17.6640663  92.4017181 179.0403290  16.8091564
  91.9070129 179.1453247  18.5519810  92.9511795 177.3539734  17.9395695
  92.5902100 176.2158661  17.8717575  94.1540909 177.6288910  18.4329014
  94.7748718 176.8481445  18.5915203  94.4701004 178.5804901  18.5541649
  90.2661514 177.1592102  16.1806946  90.6515045 177.4175720  15.0388632
  89.5099716 176.0840607  16.3980312  89.2005692 175.8929901  17.3402996
  88.8711472 175.1835022  15.3831244  89.6588440 174.9958954  14.6534395
  88.4060516 173.8816833  16.0351295  89.2433472 173.4234619  16.5615005
  87.5887451 174.0655975  16.7324734  87.8933868 172.8206329  15.0922089
  88.7734528 171.8173218  14.6799793  89.8090591 171.8362732  14.9858532
  88.2878342 170.7430878  13.8513012  88.8774109 169.8905029  13.5481539
  86.9511948 170.7383728  13.4986801  86.4877167 169.9020996  12.9964409
  86.0788345 171.7264862  13.9669256  85.0396423 171.5663605  13.7202654
  86.5533752 172.8314056  14.6460304  85.9202118 173.6612549  14.9232569
  87.6738358 175.9076080  14.6606398  86.8850708 176.6352692  15.2416620
  87.7627258 175.8866119  13.3147507  88.4505463 175.2526703  12.9338007
  86.8589859 176.5354309  12.3443756  86.5541077 177.5199890  12.6990614
  87.5852585 176.6817474  11.0033073  88.4570389 177.3357697  11.0217905
  87.8576813 175.6656494  10.7179098  86.6469727 177.2650452   9.9219704
  85.4020081 177.1651154  10.0254831  87.1523590 177.9651031   9.0415173
  85.5974884 175.6310120  12.2651367  85.6196747 174.5069122  11.7117777
  84.4234390 176.0606689  12.7395325  84.4503555 177.0301056  13.0216112
  83.1256561 175.2989960  12.8397837  83.2058182 174.4487457  13.5170984
  82.0845184 176.1509247  13.5824280  81.0874481 175.7171936  13.5060482
  82.5002289 176.2441254  15.0519619  83.4324722 176.7671509  15.2651520
  81.7063370 176.7069550  15.6381512  82.6183014 175.2054138  15.3605633
  82.1518478 177.4586792  13.0024471  81.4989243 178.0146484  13.4339533
  82.6364975 174.8680878  11.4501848  81.7324753 174.0533752  11.3884525
  83.2405701 175.3333130  10.3339605  84.0383987 175.9348907  10.4812222
  82.9113235 174.8561249   8.9959126  81.8250885 174.8270264   8.9102116
  83.4664307 175.8436127   7.9596214  83.0967255 175.5289154   6.9837241
  83.1366501 176.8332977   8.2756395  84.8431473 175.7408600   8.0227060
  85.1035309 176.1714935   8.8402414  83.3464890 173.4107361   8.7016945
  82.7210999 172.7306366   7.9191909  84.4345322 172.9039459   9.3614340
  84.9729080 173.5930634   9.8667765  85.1223679 171.6367645   8.9354591
  85.4348068 171.7487793   7.8972225  86.4226456 171.5419922   9.6657276
  86.0848083 171.4716187  10.6996584  86.9785843 170.6278839   9.4573059
  87.3451920 172.8053741   9.4738503  86.8924789 173.7044678   9.8919287
  88.6031113 172.5484161  10.3076296  88.9346542 171.5436707  10.0455761
  89.3796234 173.2409973   9.9828949  88.4806671 172.5836792  11.3901577
  87.6535721 173.1073914   8.0449343  86.7011490 173.3388672   7.5680499
  88.3096390 173.9730225   7.9534369  88.1408081 172.2590485   7.5642977
  84.2428665 170.3600006   9.1580153  84.4325180 169.3743134   8.3974190
  83.2904434 170.2155762  10.1207495  83.1291122 170.9443817  11.3346272
  82.3476791 171.6950073  11.2161369  84.0789795 171.4395752  11.5362091
  82.7598572 169.9773102  12.4787540  82.2319794 170.4462585  13.3091316
  83.6981125 169.4694977  12.7021465  81.9085388 169.0131683  11.6312962
  80.9340744 169.4933319  11.5420656  81.7099457 168.0611572  12.1235800
  82.5386734 168.9469604  10.2515135  83.1968613 168.0813446  10.1766663
  81.4767990 168.7975311   9.1499691  81.3221893 167.7465820   8.5408716
  80.7336349 169.9054718   8.9525862  80.9084015 170.7431030   9.4891748
  79.5928040 170.1427765   8.0464067  78.8915405 169.3730927   8.3687658
  78.8833771 171.4770813   8.2177277  78.1599731 171.6543121   7.4218841
  78.3500443 171.6636353   9.6173754  79.2215195 171.7442169  10.2670937
  77.7731934 172.5867462   9.6741018  77.7103653 170.8776398  10.0187721
  79.8179855 172.5867767   8.1190510  79.9673996 172.7377014   7.1828365
  79.9031143 169.8584137   6.4897356  78.9950867 169.5439911   5.7180738
  81.1932602 170.0185547   6.1067915  81.8758774 170.3329926   6.7815185
  81.7466583 169.6206512   4.7916551  80.9558258 169.8470306   4.0765052
  82.9498215 170.4983215   4.4796286  83.2461319 170.4514008   3.4317272
  82.6116714 171.5251465   4.6189508  83.9818268 170.2951050   5.3754349
  84.7589340 170.8224487   5.1764116  82.0130997 168.1229095   4.6616058
  82.1298523 167.6535645   3.5395761  81.8724213 167.3460388   5.7468691
  81.6425705 167.8153381   6.6111789  82.0745926 165.8743744   5.7795219
  82.2682495 165.5820770   6.8115907  80.8067932 165.1595917   5.3725920
  80.5778198 165.2893982   4.3148499  80.9801636 164.1102295   5.6110792
  79.6372604 165.5195618   6.2130022  79.4049988 164.8352966   7.4073310
  78.3835907 165.5103149   7.9255447  77.9543152 165.1941528   8.8647833
  77.9100647 166.4420624   7.0742445  77.0343628 166.8955994   7.2922659
  78.7329254 166.5657501   6.0389934  78.6872864 167.2391663   5.1958809
  83.3085098 165.3350525   4.9780641  83.2625122 164.3176117   4.2992725
  84.4434967 166.0235291   5.1166506  84.4428711 166.8383179   5.7134786
  85.6456146 165.6501160   4.3950109  85.5300293 165.7487183   3.3156493
  86.7501678 166.6062164   4.8579822  86.9270020 166.4078827   5.9150968
  87.6569138 166.3840027   4.2953730  86.4928131 168.1229401   4.5728402
  86.6683578 168.2409058   3.5035563  85.4630127 168.2886047   4.8893270
  87.5053558 169.4441071   5.4663053  88.9063034 169.4490662   4.3448234
  88.4911804 169.4122620   3.3376360  89.5933533 170.2888641   4.4487906
  89.4856491 168.5455933   4.5350366  86.1072998 164.1325836   4.5334463
  86.6774979 163.5448456   3.6060627  85.7818985 163.4692993   5.6541586
  85.2359467 163.9205780   6.3741503  86.0609665 162.0596466   5.8643479
  87.1410370 161.9208069   5.8165760  85.5655518 161.6788025   7.2403998
  85.8187103 160.6706085   7.5683656  86.0256042 162.3131409   7.9980769
  84.0236893 161.6969452   7.4186578  83.5035858 162.9132233   7.9176555
  84.1744156 163.7506714   8.0404005  82.1071014 163.0159607   8.1706944
  81.7310028 163.9299011   8.6062183  81.2043304 161.9859924   7.8532724
  79.8814316 162.0874939   7.8925619  79.6965332 163.0247803   7.9869304
  81.7609177 160.7958679   7.3533845  81.1429749 160.0003510   6.9638867
  83.1611786 160.6001434   7.2204509  83.5757751 159.7101746   6.7704716
  85.4696655 161.0433350   4.8503685  86.0477829 159.9533844   4.6803827
  84.4491119 161.4585114   4.0664744  84.0764313 162.3600006   4.3282366
  83.7668228 160.8233185   2.9570897  83.6739426 159.7488403   3.1151206
  82.4079437 161.5574036   2.8975115  81.9339142 161.6860809   3.8705695
  82.6753311 162.5811615   2.6357002  81.3367844 161.0553894   1.8131553
  81.7450943 160.9953308   0.8043057  80.7120132 159.7283783   2.2330787
  80.2948456 159.8107452   3.2367222  79.8737488 159.5283051   1.5657109
  81.4215317 158.9050293   2.1508374  80.2365112 162.1124420   1.8421936
  80.6589661 163.0929413   1.6225288  79.4244461 161.9318848   1.1378891
  79.7963638 162.2569275   2.8288498  84.5437317 160.8222351   1.6451994
  84.2829742 160.0160980   0.7736223  85.4111862 161.8069458   1.5163913
  85.5604935 162.4018097   2.3188548  86.2352905 162.0009155   0.3229897
  87.2409439 162.2225800   0.6802285  86.2159576 161.1347809  -0.3384784
  85.8834686 163.1923065  -0.5536412  84.6708679 163.4633636  -0.7736596
  86.8906937 163.8636017  -1.0451152  87.8236389 163.6569672  -0.7179595
  86.8411255 165.1187592  -1.8361454  86.1362381 165.8187256  -1.3874904
  88.2761688 165.7328949  -1.8959517  88.1153488 166.7882233  -2.1162794
  88.7185593 165.6192780  -0.9062648  89.1509781 165.1255188  -2.8158484
  90.0070496 165.5527802  -2.7372394  86.3382568 164.8391876  -3.2691157
  86.1603470 163.6832428  -3.6286092  86.1668701 165.8635406  -4.1092029
  86.2065277 166.8337860  -3.8314366  85.9229965 165.6952972  -5.5187879
  85.6270447 166.6775970  -5.8870392  87.2908249 165.2849274  -6.2053242
  88.0501709 165.9430084  -5.7829299  87.6431427 164.2873840  -5.9428439
  87.2407150 165.5007629  -7.7483649  86.7586365 166.5496979  -8.1962099
  87.7880554 164.6359100  -8.5008163  84.6578293 164.8273773  -5.8846779
  84.7160187 163.7553864  -6.5211740  83.5523376 165.1990662  -5.3010321
  83.5999222 165.9666901  -4.6463561  82.2297897 164.6993103  -5.6053290
  82.2787552 163.6378479  -5.8482685  81.3408127 164.8560333  -4.4337707
  81.0366592 165.8920288  -4.2843804  80.3851547 164.3909760  -4.6757159
  81.8349152 164.0914001  -3.1753862  82.0949326 163.0547028  -3.3892744
  82.6896973 164.6085968  -2.7395523  80.6557465 164.0788727  -1.7797182
  79.7346344 162.5967560  -2.2149131  80.3554306 161.7069092  -2.1104541
  78.8454056 162.4678650  -1.5978613  79.2999954 162.7131042  -3.2077112
  81.6330566 165.4468689  -6.7988815  82.0213165 166.5573883  -7.2211232
  80.6166000 164.8369904  -7.4610567  80.3033676 163.9452667  -7.1049519
  79.6431732 165.5643921  -8.2508917  80.2680054 166.1910400  -8.8873005
  78.9572144 164.5265808  -9.1177225  79.6851959 163.9487152  -9.6871338
  78.3717880 163.8722534  -8.4717836  77.8812180 165.1287079 -10.0450106
  77.0347214 165.4118195  -9.4193974  78.2490997 166.0546417 -10.4870653
  77.4966965 164.1266022 -11.1833248  77.3100510 162.8954315 -10.9234352
  77.1968384 164.6045990 -12.2958393  78.6285400 166.4473267  -7.3953896
  78.5394135 166.1907654  -6.1872258  77.9818497 167.4894104  -7.9589176
  78.1123886 167.7003937  -8.9379759  76.8948135 168.1801300  -7.2849221
  76.4542542 167.6399994  -6.4469023  77.4612579 169.4915009  -6.7607384
  78.0381470 170.0496521  -7.4981365  76.6772232 170.1889801  -6.4659185
  78.4987259 169.2162018  -5.6144767  78.0704041 168.5454712  -4.8696427
  79.4294357 168.8460693  -6.0444703  78.8629532 170.5357361  -4.8716493
  77.9611511 171.2147217  -4.2524438  80.0660477 170.9203186  -4.9104252
  75.6674118 168.5177765  -8.0976295  75.8157196 168.6720734  -9.3153219
  74.4775772 168.6722260  -7.4075880  74.5412598 168.7024078  -6.4000497
  73.1636963 169.0632477  -8.0080824  73.2933502 169.1040344  -9.0895748
  72.1432800 167.9346771  -7.8453965  71.9166336 167.9852600  -6.7804213
  71.2332611 168.1668701  -8.3986187  72.5985718 166.5343475  -8.1453066
  72.5616989 166.0090790  -9.4563799  72.1722260 166.5888672 -10.2801332
  72.9683685 164.7020874  -9.7086554  72.8762512 164.2777405 -10.6975164
  73.6209869 164.0211487  -8.6635513  74.0460434 163.0440826  -8.8398132
  73.5700455 164.4910583  -7.3008552  73.9409409 163.9460144  -6.4454265
  73.0516052 165.7190552  -7.0867314  72.9319382 165.9969635  -6.0499845
  72.5988159 170.4310303  -7.4806752  72.3157349 170.6542969  -6.3271923
  72.2926636 171.3050385  -8.4040899  72.5174942 171.0456238  -9.3539667
  71.9317322 172.7351990  -8.1519403  72.2667389 173.0829926  -7.1747441
  72.6748886 173.6910858  -9.1033106  72.2987747 174.6819305  -8.8486166
  73.7519684 173.6379547  -8.9445820  72.5519562 173.3597565 -10.5740948
  73.3641739 172.4637299 -11.2618876  72.9223251 172.6047821 -12.5161905
  73.3162766 172.0248413 -13.3376999  71.7808609 173.3822784 -12.5976410
  71.2785187 173.5954895 -13.4475212  71.5161896 173.8345947 -11.3487263
  70.7026901 174.4820099 -11.0563469  70.4167633 172.9651184  -8.2426586
  69.9665146 174.0079041  -7.8264141  69.5676880 172.0290680  -8.7523785
  69.9649811 171.2233734  -9.2140408  68.1120834 172.1313782  -8.7253819
  67.8439407 173.1824493  -8.8324966  67.7419052 171.7221680  -9.6653843
  67.5065308 171.3300629  -7.6031556  68.1122971 170.4179993  -7.0590096
  66.2863312 171.7113495  -7.2305527  65.9476547 172.4763184  -7.7964315
  65.5049744 171.4710388  -5.9773617  66.0181122 170.7669067  -5.3223867
  65.5323029 172.7824249  -5.1591396  64.9128189 173.5517578  -5.6200757
  65.0986328 172.5006561  -4.1996417  66.9392242 173.4071808  -4.8432560
  67.4514999 173.6126862  -5.7831707  66.6992569 174.2918396  -4.2534132
  67.8312149 172.4774017  -4.0255399  67.3462219 172.0037537  -3.1719923
  68.0144730 171.6582184  -4.7208462  69.2429504 172.9690247  -3.8190207
  69.8950577 172.3402252  -4.2656527  69.7102203 174.0400391  -3.1781051
  69.0237198 174.9768066  -2.5696809  68.0269318 174.8256531  -2.5091755
  69.4321365 175.7034149  -1.9992833  71.0058899 174.2887115  -3.2022343
  71.5551453 173.7557220  -3.8612781  71.4381027 175.0505219  -2.6992986
  64.0704651 170.9899597  -6.1665859  63.1805954 171.7248993  -6.6591554
  63.8313751 169.7214813  -5.7856150  64.5171890 169.1915131  -5.2670636
  62.5114822 169.1289520  -5.7991142  62.0393524 169.3592377  -6.7541852
  62.7055969 167.5417938  -5.6864429  63.3703423 167.3288574  -4.8492608
  61.4209709 166.7611694  -5.5030050  60.8239746 166.9532013  -6.3945322
  61.5481224 165.6791534  -5.4689269  61.0213776 166.9954376  -4.5163164
  63.3071251 167.0440521  -6.8738770  63.5455437 166.1207275  -6.7632971
  61.6660156 169.6393127  -4.6004510  62.1563072 169.6532440  -3.4639173
  60.4576454 170.1047668  -4.8672242  60.1773033 170.1860962  -5.8341222
  59.3463364 170.1737366  -3.8902822  59.5969391 169.4131775  -3.1507881
  59.1589851 171.6045837  -3.3155994  59.1568031 172.1924286  -4.2334938
  58.1538277 171.7427521  -2.9172771  60.1234932 172.0019836  -2.2322168
  61.1438980 172.0563507  -2.6115785  59.8238983 173.4058685  -1.7327825
  59.0041771 173.3862000  -1.0146058  60.6695023 173.8317108  -1.1926895
  59.5742950 174.1109009  -2.5257096  60.1714783 171.0462952  -0.9743216
  60.3144760 170.0056458  -1.2653505  60.9919891 171.4220581  -0.3630338
  59.2309380 171.2156372  -0.4501004  58.0209808 169.7556305  -4.5796351
  57.7006874 170.2953033  -5.6366558  57.2545433 168.8523102  -3.9817677
  57.5028191 168.4650574  -3.0826006  55.8479652 168.5002899  -4.2966461
  55.8097725 168.4030304  -5.3816266  55.6147041 167.1284180  -3.6903756
  55.4934158 167.2103119  -2.6102443  54.6749687 166.8031464  -4.1366830
  56.5386696 165.9908142  -4.0969090  57.6845169 165.5150299  -3.3502059
  58.2811852 164.7018585  -4.1943760  59.1987686 164.1552582  -4.0341268
  57.6453018 164.6121826  -5.3799038  57.8777390 163.9327698  -6.0901694
  56.5104141 165.3539276  -5.3180938  55.7236061 165.4107819  -6.0557299
  54.9161415 169.6143341  -3.8394747  55.2758942 170.4590759  -2.9621778
  53.6887627 169.6570892  -4.3950524  53.5193138 168.9751129  -5.1205168
  52.5819893 170.4578400  -3.8156681  52.7826347 171.5218811  -3.6905494
  51.3614388 170.3090057  -4.7728491  51.1809883 169.2514801  -4.9656901
  50.5035324 170.7053070  -4.2296743  51.4850616 171.0808868  -6.1242003
  51.3286667 172.3321838  -6.0629749  51.6298141 170.4612427  -7.2441039
  52.2101974 169.8899536  -2.4196687  52.1223946 168.6809692  -2.2273555
  51.8308563 170.8183289  -1.4970719  51.9673271 171.7828369  -1.7638848
  51.4022026 170.5089417  -0.1722394  52.2551537 170.0707092   0.3459599
  51.0468178 171.7680664   0.6137415  50.1306458 172.2101135   0.2221595
  50.7880669 171.4499359   1.6236643  52.1896019 172.8300934   0.7054310
  53.3658066 172.3964081   0.8241286  51.8907547 174.0095520   0.6708903
  50.2196617 169.5540314  -0.2114316  49.2295837 169.7202301  -0.9579840
  50.3160172 168.5890503   0.6900184  51.1674538 168.6344147   1.2314130
  49.3794479 167.4447479   1.0248060  49.9299469 166.7776794   1.6881752
  48.0549507 167.8324585   1.7349665  47.5328712 168.5253143   1.0750542
  47.3966827 166.9675751   1.8171433  48.3349533 168.3093719   3.1693311
  48.5063133 167.4186401   4.0371933  48.0912781 169.5103912   3.5409839
  48.9842682 166.5309753  -0.1541390  48.0394554 165.7719269  -0.1487069
  49.7063789 166.6633911  -1.3001446  50.5116043 167.2721252  -1.2661958
  49.6684914 165.6329193  -2.3466003  48.6609116 165.4133453  -2.6996937
  50.3184166 166.0811005  -3.6478226  49.9800377 165.3649445  -4.3966346
  49.9400482 167.0565338  -3.9535360  51.7314835 166.0235596  -3.6103020
  52.0205345 166.7257843  -3.0229921  50.2931976 164.2624664  -1.8259114
  51.2383423 164.2709503  -1.0237945  49.7002678 163.1234436  -2.2751329
  48.8283806 163.2109985  -2.7773738  50.1133347 161.7616119  -2.2543230
  50.4788399 161.5172272  -1.2569355  49.0227890 160.6929779  -2.4676528
  48.2148819 160.6926422  -1.7359532  48.4589729 160.8426208  -3.3884239
  49.7196808 159.0361481  -2.5845025  48.6443748 158.5579529  -3.2169166
  51.2537041 161.5770416  -3.2606990  51.1127815 161.9171753  -4.3850045
  52.2940941 160.9034729  -2.7852185  52.1774521 160.6186523  -1.8232588
  53.5398407 160.5762787  -3.5108702  53.3430023 160.5930786  -4.5828185
  54.5831261 161.6357727  -3.1339288  54.9305229 161.5091095  -2.1085644
  55.4619560 161.3545227  -3.7141488  54.1254311 163.0551453  -3.4063108
  53.2277145 163.3259277  -2.8505437  54.9970016 163.6638184  -3.1654932
  53.7979202 163.2351532  -4.8732109  54.3270874 162.5662384  -5.7759342
  52.9838524 164.1960449  -5.3191752  52.7459335 164.1030426  -6.2963376
  52.5797997 164.8621368  -4.6763978  54.0784988 159.1878052  -3.2304158
  53.7978706 158.5560760  -2.2279553  54.8983383 158.5721130  -4.0818400
  55.0917778 158.9759827  -4.9871378  55.5704231 157.2508392  -3.8790946
  55.4024353 156.9720612  -2.8388240  54.8985863 156.0921783  -4.6561489
  53.8361168 156.1221313  -4.4145389  54.8764572 156.2177887  -6.2300873
  55.9013748 156.5047150  -6.4652820  54.5239677 155.3200989  -6.7380357
  54.2151070 157.0485535  -6.4761629  55.3702240 154.6939087  -4.2768183
  55.2103691 154.5263519  -3.2117033  54.7362938 153.9860840  -4.8108783
  56.4270248 154.5161896  -4.4760294  57.0623665 157.3109589  -3.9374998
  57.5621033 157.8731537  -4.9467807  57.7648811 156.8129883  -2.9237113
  57.3168564 156.3126373  -2.1693757  59.2049751 157.0706482  -2.7017150
  59.6233673 157.3237762  -3.6758692  59.3965836 158.3293152  -1.7920837
  59.1554146 158.1632690  -0.7421461  60.8236809 158.8586121  -1.8722262
  61.1296310 159.3132782  -2.8144422  61.0376434 159.5336456  -1.0435809
  61.4816704 157.9927216  -1.7989174  58.5108109 159.5746002  -2.2668231
  58.7556114 159.7520599  -3.3140500  57.5026474 159.1915283  -2.1088228
  58.6936493 160.8813629  -1.5397254  59.6838989 161.3206024  -1.6604078
  57.9547653 161.5617981  -1.9630027  58.5128708 160.7301483  -0.4755095
  59.9380341 155.8725433  -2.1783850  59.4977417 155.2556000  -1.1852791
  61.1012802 155.4880981  -2.7565403  61.6620941 156.0144806  -3.9941781
  61.7476387 157.1010437  -4.0059595  61.0375252 155.6469421  -4.8083868
  63.0443764 155.3177490  -4.1001191  63.7420998 155.9155884  -3.5137157
  63.4125099 155.2006378  -5.1193690  62.8238335 153.9804840  -3.3555028
  63.7411919 153.4801025  -3.0453835  62.3205910 153.2716522  -4.0130839
  61.9129753 154.4000854  -2.2025177  61.2058830 153.6096344  -1.9509171
  62.7172508 154.7835999  -0.9246868  63.1590919 155.9064331  -0.7861919
  62.9366684 153.8219299  -0.0570266  62.5614471 152.9146271  -0.2938950
  63.6732864 153.9304047   1.2165388  64.0452042 154.9365082   1.4103390
  62.8405037 153.3345947   2.4088867  62.7303162 152.3004456   2.0825624
  63.5217743 153.2808075   3.8298371  63.7284164 154.2888489   4.1893377
  62.8781853 152.8069916   4.5710478  64.4032669 152.6419678   3.7753465
  61.4601517 153.9396515   2.5730698  60.7674828 153.7868805   1.7454386
  61.0522652 153.5611725   3.5103471  61.5703773 155.0113983   2.7383344
  64.9174042 153.0888977   1.0060371  64.8109512 151.9431458   0.5776637
  66.0133514 153.5587463   1.5411574  66.1116333 154.5299072   1.8005617
  67.1686783 152.7425995   1.7008892  67.1364212 152.1170044   0.8088712
  68.4037628 153.5657043   1.6981074  68.3280640 154.3463593   2.4550364
  69.2330093 152.9066925   1.9553303  68.8587570 154.2199097   0.3476991
  68.0579758 154.8310699  -0.0686451  70.0375443 155.1072540   0.6007023
  70.8289185 154.6631775   1.2045348  70.4791489 155.4238586  -0.3441995
  69.7460327 156.0602417   1.0422188  69.3229141 153.2069397  -0.7206638
  68.5351715 152.4895935  -0.9508116  69.6539383 153.6585083  -1.6558765
  70.1170731 152.5696259  -0.3317808  67.0681534 151.9440765   3.0614629
  67.1083145 152.5970154   4.0905814  66.8687134 150.6122894   3.0899782
  66.9013824 149.7692566   1.9214587  67.8713150 149.9449310   1.4561963
  66.0746613 149.9137115   1.2259290  66.9323196 148.3294983   2.5102186
  67.9381027 147.9878845   2.7547810  66.4050446 147.6806488   1.8108705
  66.1566086 148.4980621   3.8161385  66.4581146 147.7595215   4.5589333
  65.0956650 148.3684082   3.6024165  66.3839645 149.9317627   4.2646074
  65.4685440 150.4451599   4.5587735  67.4269104 149.9670410   5.4257770
  67.0264664 149.8395081   6.5807309  68.7539291 150.0973969   5.1861820
  69.0837021 150.1257172   4.2319570  69.6890106 150.2959290   6.3414092
  69.3096771 149.6120148   7.1006641  71.0877304 149.7344818   5.9184098
  71.5853500 150.4147491   5.2272420  71.7649460 149.7625275   6.7720518
  71.0889435 148.3001251   5.4548864  70.8439255 147.8860931   4.1488276
  70.9039993 146.5536194   4.2710137  70.7917404 145.8634033   3.4479692
  70.9016190 146.1625977   5.5574646  71.0560074 145.2209015   5.8883352
  71.0427246 147.2522583   6.3547540  71.2294540 147.3173981   7.4164920
  69.7861176 151.6622314   7.0665050  70.4396896 151.7615356   8.1419668
  69.1394882 152.6609497   6.5377769  68.6591949 152.5220795   5.6602044
  69.0870285 154.0305023   7.1305332  70.0502243 154.3638458   7.5168428
  68.8069916 155.0955505   6.0844378  67.8615875 154.8446045   5.6034584
  68.7395935 156.5414734   6.5879645  69.7371445 156.8558502   6.8948112
  68.5635223 157.2915955   5.8169713  68.0795898 156.7654572   7.4260135
  69.9056320 155.0265961   5.0607939  70.0263214 154.1122437   4.4798403
  69.7469025 155.8197937   4.3302264  70.8129272 155.2349396   5.6278105
  67.9782715 154.1454926   8.3151054  66.8551788 154.6238098   8.1186581
  68.4076157 153.7073059   9.4998131  69.2920685 153.2197876   9.4871988
  67.4773865 153.5141602  10.6602001  66.4450836 153.3556061  10.3482504
  67.7839737 152.2399292  11.4563198  68.6924133 152.4596100  12.0172005
  67.0066986 151.9614410  12.1679258  68.1039505 151.0853577  10.6082878
  67.4999390 151.1011505   9.7010803  69.1661758 151.0868530  10.3638096
  67.6636581 149.5855408  11.3825569  69.0377426 148.5704041  10.7760477
  69.9786911 149.0234680  11.0882101  68.9572906 147.5754852  11.2139444
  69.1567307 148.5314331   9.6932621  67.3658676 154.7650299  11.5001621
  66.4229279 154.7905426  12.3457832  68.3081207 155.7293549  11.4149714
  68.8436508 155.8002319  10.5615730  68.1694412 157.0622559  12.1949902
  68.0945053 156.7424164  13.2343168  69.4245758 157.9864349  12.1379156
  69.2192078 158.8446045  12.7778206  70.6192856 157.2625427  12.7813816
  70.7499084 156.2621002  12.3688793  71.6083908 157.7152405  12.7118301
  70.4291992 157.1026611  13.8427086  69.8503647 158.3883209  10.6842909
  69.0307312 158.9015350  10.1813803  70.6661377 159.1088409  10.6255169
  70.1573486 157.4902649  10.1482210  66.9403458 157.8961334  11.8512354
  66.4377441 157.7587585  10.7436457  66.4593735 158.7574310  12.7183142
  66.7798538 158.8081360  13.6747761  65.4351273 159.6988220  12.3873978
  64.7739563 159.2812500  11.6280651  64.5148010 159.9711914  13.5620489
  64.2788086 158.9733734  13.9318657  65.0360413 160.6093140  14.2756462
  63.2413216 160.6484680  13.0646267  63.3519516 161.5700836  12.4932299
  62.8044548 159.9223175  12.3790998  62.0189476 160.9131165  14.3359489
  62.2707443 159.4650116  15.4903688  63.2253838 159.4680176  16.0164490
  61.4313736 159.4642944  16.1857529  62.2503967 158.5476990  14.9019756
  65.9315414 161.0619202  11.8121901  66.3794022 161.9801025  12.5637302
  66.0586472 161.1656189  10.4952517  65.9790726 160.3503571   9.9044008
  66.3560028 162.4328156   9.8641243  67.3389435 162.7792664  10.1833458
  66.4536209 162.1850281   8.3443356  67.1613922 161.3845978   8.1287909
  65.5087814 161.7646637   7.9998450  66.6566925 163.4175110   7.5446754
  66.0275497 164.2677002   7.8082061  68.1656113 163.8534851   7.5266542
  68.7753983 162.9991150   7.2328820  68.3528137 164.6201172   6.7747602
  68.5260925 164.1738281   8.5041771  66.2836914 163.0886536   6.0698466
  65.2294693 162.8117218   6.0648217  66.6649475 163.8822021   5.4271722
  66.8558502 162.1914215   5.8338065  65.2232819 163.4346924  10.1861868
  64.0200653 163.0699005  10.2219877  65.5162506 164.7003174  10.3986654
  66.5099716 164.8518982  10.3004541  64.6146164 165.8800964  10.3836269
  63.5638008 165.6055450  10.2914314  64.7038040 166.5923767  11.7677822
  65.7537918 166.7963257  11.9776068  63.9938202 167.9449005  11.8940096
  62.9296455 167.7292633  11.9895735  64.4081955 168.4053497  12.7908802
  64.1336212 168.6264801  11.0549517  64.2158203 165.6938477  12.8902016
  64.8354645 164.8040009  12.7792196  64.4608994 166.1060638  13.8690338
  62.7848282 165.2073059  12.9377737  62.5488129 164.7212067  11.9911470
  62.5903435 164.4632416  13.7101917  62.1432877 166.0562592  13.1740532
  64.8650894 166.8744049   9.2036295  66.0523453 166.8703613   8.7675228
  63.8771515 167.5521088   8.5951414  62.4239273 167.4375305   8.7409678
  62.0997047 167.8789825   9.6833601  62.0375252 166.4206238   8.6722651
  61.8642387 168.3203583   7.6292629  60.9883842 168.8497009   8.0044699
  61.5846481 167.6579285   6.8100557  62.8966331 169.3931427   7.2885160
  62.7423210 170.2373962   7.9604883  62.8715324 169.6630859   6.2327676
  64.2279205 168.6280670   7.5897031  64.5115356 168.0442810   6.7139907
  65.3482132 169.4932709   8.0309973  65.6737289 169.5935059   9.1928749
  66.0822296 170.1186829   7.1120515  65.8308563 170.1254578   6.1338582
  67.2592392 170.9940338   7.3716063  67.4570160 171.5965576   6.4850774
  67.0250092 171.6242676   8.2295341  68.5797348 170.2485809   7.6975279
  69.6339569 170.7267609   7.3259573  68.4599075 169.0960236   8.3638172
  67.5168915 168.7864838   8.5509100  69.6141205 168.2733307   8.7768421
  70.3148956 168.8767853   9.3537722  69.0070724 167.1199493   9.6969633
  68.3454437 167.5563354  10.4452353  68.4941940 166.3783112   9.0845613
  70.0869217 166.3287354  10.4360142  70.6296005 165.7274780   9.7065697
  70.8161087 166.9487000  10.9575872  69.5443344 165.3032379  11.4438667
  68.4314499 164.8613892  11.4745951  70.4361343 164.8262634  12.2742271
  70.1617279 164.0595398  12.8716679  71.4145355 164.9897461  12.0842171
  70.3093948 167.7274475   7.5421972  69.6247101 167.2676392   6.6225958
  71.5953140 167.6406097   7.5326467  72.1180954 168.0367432   8.3006849
  72.3950729 166.9094238   6.4835043  71.9071655 167.0712891   5.5223365
  73.7357712 167.6102600   6.3305879  74.2266159 167.5387421   7.3011856
  74.6573563 167.0845947   5.2016783  74.1052246 167.1550293   4.2645106
  75.4898834 167.7814636   5.1048994  75.1055908 166.0970764   5.3112130
  73.5056992 168.9712830   6.0339618  73.8007736 169.4527893   6.8102903
  72.5312119 165.3529510   6.8245296  72.7113571 164.9689178   7.9855394
  72.6406708 164.4396667   5.8029933  72.4071503 164.8385315   4.9049501
  72.7427902 162.9955597   5.8687158  72.8908997 162.7712402   6.9250493
  71.3137970 162.4820862   5.5006790  70.5972290 162.9577789   6.1702628
  71.1949615 162.7705994   4.4562960  71.1765823 160.9273376   5.6223083
  71.9303055 160.3452454   5.0920362  71.1957550 160.4174957   7.0569062
  70.4669876 160.9510803   7.6670690  71.1687927 159.3311005   7.1413779
  72.1841812 160.6211853   7.4687576  69.8664856 160.5785217   5.0765462
  69.9278946 160.7821960   4.0075026  69.6906052 159.5317993   5.3246241
  68.9966965 161.1518250   5.3973131  73.8908997 162.5848236   4.8440194
  73.5641556 162.4100189   3.6595221  75.0822525 162.3910217   5.2987814
  75.4782486 162.7093964   6.6677561  74.9540787 162.1242981   7.4234071
  75.2415009 163.7681580   6.7729187  76.9975586 162.3375397   6.7728848
  77.0058289 161.3761444   7.2864475  77.6057510 163.0309296   7.3537641
  77.4753494 162.2414551   5.3465376  78.2990494 161.5291595   5.2990680
  77.8118744 163.2233582   5.0138092  76.1792831 161.7940521   4.6480188
  76.2197037 162.0429688   3.5875928  75.9526215 160.2890625   4.7036476
  75.6276779 159.7622681   5.7564964  76.0734406 159.5607605   3.5894535
  76.2370758 160.0588379   2.7261789  75.9183731 158.0492554   3.4885099
  75.8607483 157.6454163   4.4992995  74.5544281 157.5472565   2.8833365
  74.5348053 157.7472687   1.8120234  74.5312042 156.4580383   2.9176996
  73.2865143 158.0302429   3.5413754  73.2603073 159.1194153   3.5081859
  72.1117630 157.4885101   2.7675977  72.0276337 156.4036865   2.8322618
  71.2711868 158.0391388   3.1899178  72.1836472 157.7500305   1.7118802
  73.1964111 157.4058380   4.9586911  73.9194489 157.8641052   5.6334558
  72.2038040 157.5679626   5.3788614  73.4828796 156.3552399   4.9108167
  77.0873642 157.5058594   2.6486576  77.3622665 158.0338440   1.6080258
  77.6795349 156.3114777   3.0246413  77.3174286 155.9289551   3.8864212
  78.5186005 155.4207458   2.2530584  78.7426605 155.7695007   1.2449538
  79.9142456 155.2852936   2.9248977  80.3742599 156.2730560   2.8966069
  79.8005753 155.0443878   3.9818480  80.8705063 154.3057709   2.2357476
  80.4333954 153.3122711   2.1357682  81.0262146 154.6102905   1.2007946
  82.2900848 154.2087860   2.8188725  82.5777054 154.8824463   3.8059087
  83.2127914 153.4241943   2.2901845  84.0457611 153.3487854   2.8563809
  83.0253143 152.9292450   1.4299664  77.8137512 154.0387726   2.1088932
  77.5799408 153.3794403   3.1176920  77.3794937 153.5791779   0.9344817
  77.6216888 154.1059723   0.1074827  76.5069809 152.4577484   0.7540215
  76.2265778 152.0115204   1.7081531  75.2558517 152.9701538   0.0033656
  75.6158829 153.3427277  -0.9556203  74.5884476 152.1257172  -0.1687075
  74.4412079 154.0690155   0.6667936  75.1332550 154.8687744   0.9304859
  73.3892136 154.7163391  -0.1700376  72.6244736 154.0072784  -0.4870518
  72.9286118 155.4706268   0.4679387  73.9097519 155.0582123  -1.0646111
  73.8044510 153.5714417   1.9204298  74.5045700 153.4603424   2.7484336
  73.1271820 154.2977295   2.3697701  73.3547897 152.5898438   1.7707908
  77.1446991 151.4088287  -0.1772170  77.5473022 151.6471100  -1.3302792
  77.1808395 150.1755524   0.3528790  76.8990173 150.1354065   1.3219335
  77.9907913 149.1056213  -0.2411739  78.4777069 149.4055023  -1.1691213
  79.2039642 148.8641968   0.6027995  79.7922058 148.0686188   0.1454806
  79.8672867 149.7255707   0.5245833  79.0024948 148.3635406   2.0397754
  78.4934387 149.2309875   3.0559168  78.4653549 150.2948456   2.8719954
  78.2392044 148.7988739   4.3564639  77.7958527 149.5328369   5.0130739
  78.4658203 147.4575958   4.7084107  78.2494965 147.0470123   5.6836209
  78.8993225 146.5409698   3.7034271  78.9463196 145.4958649   3.9716654
  79.1603622 146.9938660   2.4302664  79.4128418 146.3007507   1.6414376
  77.1640549 147.8322754  -0.5924409  77.6288605 147.0656891  -1.4604633
  75.9900742 147.5813141  -0.0507603  75.6213303 148.2126465   0.6460438
  75.1423569 146.4847107  -0.4913146  75.7240829 145.5649261  -0.5520620
  73.9944077 146.2362976   0.4758654  73.4265060 147.1625214   0.5635459
  73.4225006 145.3903198   0.0946249  74.5039215 145.8879089   1.8709879
  74.9660873 144.6323853   2.2938783  75.2463455 144.7612305   3.5962009
  75.6790924 144.0093231   4.2394342  75.0829697 146.0604248   3.9113641
  75.1639633 146.4757690   4.8284388  74.4943542 146.7263794   2.8882680
  73.9116440 147.6312408   2.9781492  74.5786667 146.8348236  -1.9368397
  74.1490250 147.9708557  -2.1810384  74.4506226 145.8039551  -2.8532870
  74.8064804 144.3544159  -2.7059097  74.2276459 143.9723511  -1.8650316
  75.8690414 144.1601105  -2.5598986  74.3657990 143.6546478  -4.0075507
  73.3334808 143.3498535  -3.8357306  75.0463867 142.8432007  -4.2653542
  74.4660492 144.7714081  -5.0996413  73.8787918 144.6126709  -6.0040936
  75.5139999 144.8718109  -5.3821759  74.1726761 146.0616150  -4.3389125
  74.8903198 146.7509003  -4.7838535  72.8043594 146.6179657  -4.6665630
  72.6833954 147.4391479  -5.5752044  71.8093033 146.1151276  -3.9386630
  71.9410858 145.3650055  -3.2752893  70.4591827 146.6349030  -4.0641026
  70.0755768 146.5689697  -5.0822392  69.4419479 145.8694611  -3.1727827
  68.4883347 146.3377838  -3.4165001  69.3973923 144.8474426  -3.5490417
  69.5139160 145.8423309  -1.6321464  69.6008835 146.8569489  -1.2434372
  68.5559921 145.5042572  -1.2369404  70.5639420 144.8869324  -1.0584712
  71.6534500 144.7288666  -1.5995752  70.3425751 144.2974243   0.1267410
  71.1236496 143.8339691   0.5685892  69.4015579 144.2911377   0.4935365
  70.4299316 148.1400299  -3.7431326  69.6825104 148.9547272  -4.3293505
  71.1721954 148.6242371  -2.6956334  71.8607941 148.0811462  -2.1946468
  71.1709747 150.0422211  -2.3322635  70.1657639 150.4628906  -2.3061564
  71.8795319 150.3235779  -0.9737262  72.9304657 150.0371094  -0.9341569
  71.9852219 151.3910065  -0.7799737  71.0971756 149.5800018   0.1230909
  70.0384903 149.7934418  -0.0243015  71.3377609 148.5172882   0.0939846
  71.5507278 150.1175995   1.5074559  72.7639542 149.9247894   1.8394511
  70.6498871 150.5940094   2.2376840  71.9228134 150.8996735  -3.3629620
  71.4825287 151.9176025  -3.8303442  73.0751495 150.3904419  -3.7809243
  73.4834061 149.5967560  -3.3081632  73.8237000 151.0082245  -4.8657846
  74.1252899 152.0056152  -4.5458617  75.0679321 150.2300873  -5.2403221
  74.8511734 149.1854095  -5.4633842  75.7709274 150.9024658  -6.4259028
  76.0707932 151.9001160  -6.1051497  76.6000977 150.2275238  -6.6381154
  75.1466980 150.8861847  -7.3193073  76.0107651 150.2830048  -4.0511475
  75.4885788 150.1204834  -3.1082716  76.7499313 149.4831848  -4.0061431
  76.4100723 151.2830048  -3.8818676  72.9272003 151.1078949  -6.0674334
  72.8369217 152.1367340  -6.7418647  72.2537460 149.9904480  -6.4650254
  72.4410553 149.1204681  -5.9873676  71.3503342 149.9638672  -7.6160569
  71.9070969 150.1275024  -8.5387383  70.7506027 148.5587311  -7.7309651
  71.4825668 147.7510529  -7.7313733  70.1310883 148.3685760  -6.8545246
  70.0827408 148.3740997  -8.9615507  69.5999603 147.5443268  -8.9627237
  70.2393265 150.9706116  -7.5805163  69.9928970 151.6974487  -8.5215139
  69.6072540 151.1297760  -6.4118800  69.8755112 150.5898285  -5.6015773
  68.5751572 152.1117401  -6.1381917  67.7438583 152.0475159  -6.8402786
  67.9186020 152.0098724  -4.7247496  67.6979218 150.9557495  -4.5566993
  68.6514435 152.3138123  -3.9773123  66.5078735 152.6453400  -4.5471239
  65.9048386 152.3260345  -5.3971167  66.1612778 152.2341003  -3.5990441
  66.3507462 154.4247131  -4.3945546  67.2475281 154.6601562  -2.8782172
  68.1214294 154.0102997  -2.8327272  67.5340271 155.7088165  -2.7987325
  66.6802292 154.4092255  -1.9819427  68.9952316 153.5202789  -6.3148084
  68.3145218 154.2756348  -7.0632997  70.0608749 153.9071198  -5.6603889
  70.5242538 153.2206726  -5.0823293  70.4861221 155.3026276  -5.8435664
  69.6042557 155.9142914  -5.6530838  71.5611038 155.6663818  -4.8190260
  71.7547684 156.7362213  -4.8966165  71.2065125 155.4167786  -3.3465598
  71.3809280 154.3889313  -3.0284169  71.6788254 156.1876678  -2.7376781
  70.1304626 155.5770721  -3.2792776  72.9707489 154.9963074  -4.8915906
  73.4628525 155.1474457  -5.8523722  73.6330719 155.4790192  -4.1729631
  72.9827118 153.9128571  -4.7727818  70.9348984 155.6363831  -7.2400708
  70.6127625 156.7454529  -7.6830797  71.5633926 154.7035522  -7.9056387
  71.6363297 153.7989044  -7.4624906  72.0325012 154.8676147  -9.3494940
  72.8068771 155.6292114  -9.4411993  72.8315887 153.5862885  -9.7754812
  73.5866089 153.4170532  -9.0077553  72.1104889 152.7692108  -9.7531767
  73.5262451 153.7355499 -11.1305256  72.7920532 153.8666992 -11.9254246
  74.1975708 154.5934448 -11.1681137  74.1852798 152.4397125 -11.4665098
  73.4086456 151.6752472 -11.4893770  74.6384811 152.3793335 -12.4559870
  75.3625488 152.1788940 -10.5943604  75.8185272 153.0006256 -10.2243166
  75.9298096 151.0745697 -10.2665844  75.4875031 149.9079437 -10.6759558
  74.5527496 149.8315582 -11.0507956  76.1432114 149.1763458 -10.4416199
  77.0279541 151.0076294  -9.5955887  77.4689636 151.8203888  -9.1893435
  77.3869095 150.0639648  -9.6225567  70.8807068 155.1705933 -10.3231468
  70.9578552 156.0978699 -11.1136122  69.7509842 154.5092010 -10.1607561
  69.6461868 153.8132324  -9.4363708  68.6553040 154.6687164 -11.0876465
  68.9927902 154.8367462 -12.1103725  67.8399506 153.2927246 -11.1093702
  67.5674820 152.9696655 -10.1046333  66.9067001 153.3766174 -11.6662397
  68.7678452 152.2406921 -11.7514935  69.5453339 152.5344543 -12.6209793
  68.8499908 151.0253906 -11.2495098  69.6260605 150.5010529 -11.6275253
  68.3295898 150.8432617 -10.4032745  67.6831284 155.7956696 -10.7714024
  66.9473267 156.2364349 -11.6440763  67.7438431 156.3125763  -9.5452290
  68.3606491 155.8063965  -8.9260120  66.9852600 157.4552155  -8.9788246
  66.0120544 157.5731201  -9.4553442  66.9228287 157.1623535  -7.4751134
  66.2898254 156.3268433  -7.1762490  67.9187469 156.9368896  -7.0937829
  66.4082108 158.3897400  -6.6356788  67.1262131 159.2096100  -6.6550999
  65.0455475 158.8349152  -7.1595020  64.4768295 157.9358368  -7.3968678
  64.4275742 159.2717133  -6.3750215  65.1585922 159.5060883  -8.0108757
  66.3332825 157.9606323  -5.1482234  67.3081818 157.7534790  -4.7068944
  65.9724884 158.8101501  -4.5683513  65.6753464 157.1019897  -5.0142303
  67.7836838 158.7510223  -9.3110390  67.1535950 159.8159180  -9.5835953
  69.1098251 158.6786346  -9.3764648  69.5663986 157.8265228  -9.0839939
  69.9746017 159.8066406  -9.6272850  69.6190338 160.5976562  -8.9670095
  71.4849930 159.4883575  -9.3647776  71.5175323 158.6330109  -8.6899319
  72.4015732 159.0228729 -10.5646152  72.4967651 159.8389435 -11.2809124
  73.3741150 158.8212738 -10.1155844  71.9370499 158.2530670 -11.1808176
  72.2011719 160.6437683  -8.5726957  73.2694397 160.4625244  -8.6912909
  71.9823685 161.5822754  -9.0820208  71.8801880 160.7471924  -7.0945573
  71.9104919 159.7686157  -6.6154251  72.6463242 161.4223022  -6.7132988
  70.9438629 161.2871552  -6.9536490  69.7403564 160.3426514 -11.0577602
  69.6074371 161.5271149 -11.3275309  69.4861450 159.4547119 -11.9915152
  69.6115952 158.4918213 -11.7136221  68.9932098 159.7070770 -13.3515034
  69.5784760 160.5740051 -13.6581221  69.2583313 158.4803619 -14.2842340
  69.3743744 157.6047821 -13.6454830  68.3679886 158.2384644 -14.8646421
  70.4654007 158.7081604 -15.1702080  70.6689758 157.7404633 -15.6287069
  70.1964188 159.4504852 -15.9216709  71.7494659 159.1144867 -14.4250450
  72.0213013 160.3214417 -14.2104511  72.4879379 158.1386261 -13.9634247
  73.1527557 158.3243561 -13.2261229  72.4096680 157.1920776 -14.3069601
  67.5802917 160.3725586 -13.4578810  67.1872253 160.9472351 -14.5141144
  66.8621521 160.4120026 -12.3423958  67.3703384 160.0950928 -11.5291233
  65.5283508 161.0731964 -12.1195745  65.4796295 161.8531189 -12.8794708
  64.3354645 160.1185150 -12.4570160  63.3723526 160.6233215 -12.3817024
  64.4527588 159.7997589 -13.4927502  64.3563538 158.8493500 -11.5849800
  65.1557083 158.2111511 -11.9615812  64.5669556 159.2372894 -10.5883541
  63.0556335 158.1288147 -11.7632647  62.9552116 157.2955780 -11.0677538
  62.2744217 158.8773651 -11.6311026  62.9488144 157.4049835 -13.1659517
  62.8866463 158.1759949 -13.9339361  63.8403625 156.7808380 -13.2265148
  61.7468643 156.5514374 -13.2678661  60.9196663 157.1266022 -13.3387690
  61.8883591 155.9593658 -14.0738049  61.6582642 155.9592285 -12.4545155
  65.5825958 161.8649445 -10.8045759  66.4146881 162.7298584 -10.6373262
  64.5139618 161.6907959  -9.9927435  63.9453506 160.8809052 -10.1948557
  64.0659943 162.6496887  -8.9887171  63.9312553 163.6366425  -9.4312773
  62.7154427 162.1567688  -8.4381151  62.2353745 161.3328705  -8.9661484
  62.8653488 161.7999878  -7.4191294  61.5766907 163.1962128  -8.4818296
  61.7728882 164.3741760  -8.8706198  60.4239616 162.9161377  -8.1183767
  64.9482956 162.8559113  -7.8068652  64.7499008 163.8769226  -7.1851149
  65.9290543 162.0295868  -7.5335135  65.9856339 161.2745819  -8.2020063
  66.9751587 162.1402130  -6.4076681  67.5482559 161.2130432  -6.4100456
  67.9415131 163.3730621  -6.6315994  67.2447433 164.1953278  -6.4688272
  68.6282349 163.4341583  -5.7873340  68.5888901 163.4813538  -7.9466109
  69.2469940 162.6147919  -8.0105095  67.9420013 163.4290161  -8.8223391
  69.5212936 164.6315155  -8.1235037  70.2262650 164.7539215  -7.3012309
  70.0436478 164.5464630  -9.0764008  68.6534042 165.8697662  -8.1826849
  68.1802826 166.0315857  -9.0602179  68.5716324 166.8657227  -7.2994552
  69.2143326 166.9550934  -6.1899080  69.8659439 166.2388458  -5.9026766
  68.9980087 167.7031860  -5.5467415  67.6290512 167.7472687  -7.5307903
  66.9412460 167.7062225  -8.2692614  67.5269012 168.5412445  -6.9149332
  66.4679108 162.2311096  -4.9455423  67.2775421 162.3277588  -3.9862521
  65.1538620 162.2705078  -4.7000799  64.5428467 162.2203522  -5.5027289
  64.4540024 162.2210541  -3.4039407  65.0626907 162.7156067  -2.6469605
  63.1870308 163.0216827  -3.3939335  62.5321770 162.4560547  -2.7311149
  63.3811150 164.5199738  -3.1245682  64.0042648 164.9674683  -3.8988643
  62.3991928 164.9898987  -3.1801870  63.7628975 164.7240753  -2.1242263
  62.5549202 162.9484406  -4.6444416  61.5953369 162.9279633  -4.6249685
  64.2805405 160.7472992  -3.0779691  63.5220375 160.0362701  -3.7100315
  64.8535080 160.3728638  -1.9150573  65.6123352 160.9447632  -1.5726835
  64.5628891 159.1527405  -1.2208779  63.8816032 158.5912018  -1.8601222
  65.8766632 158.3450317  -1.1685932  65.7079239 157.2958221  -0.9261242
  66.3304596 158.3455658  -2.1596394  66.9800186 158.8049011  -0.2492424
  67.9677582 159.7093506  -0.6453226  67.7611542 160.0713348  -1.6416569
  68.9923706 160.0903320   0.1691813  69.7819443 160.7471161  -0.1649312
  69.1499634 159.4859924   1.4249874  69.9667892 159.7444305   2.0825703
  68.1369019 158.6209564   1.9293026  68.2437897 158.1818848   2.9102161
  67.0523834 158.2976685   1.0819958  66.3318710 157.6105804   1.5005230
  64.0051270 159.4292603   0.1472584  64.0598221 160.5353699   0.6860386
  63.3029823 158.3849792   0.6734700  63.3767281 157.4594116   0.2759813
  62.6004143 158.5757294   1.9351012  62.6090698 159.6253815   2.2287946
  61.1344452 158.0404663   1.8842390  61.0674210 157.1804810   1.2178752
  60.7443047 157.8321381   2.8804796  60.5520020 158.8744659   1.4926833
  63.4779053 157.9776306   3.0448601  64.0648193 156.8833008   2.8876235
  63.5274620 158.7023468   4.1308031  63.1366005 159.6334381   4.1509433
  63.9624443 158.2557831   5.4665179  64.2970734 157.2220306   5.3800454
  65.2584991 159.0437927   5.9063749  65.0628510 160.1059723   5.7593656
  65.6441193 158.6715393   7.3718662  65.8583450 157.6104126   7.4992762
  66.5893555 159.1494293   7.6292343  64.8972473 158.9866333   8.1005583
  66.3801422 158.6281738   5.0116634  66.1990128 158.9326782   3.9808488
  67.2933884 159.1029358   5.3703952  66.4796295 157.5447235   5.0775037
  62.8186340 158.3037262   6.5478373  61.9488678 159.1528015   6.5367265
  62.6839142 157.2052917   7.3324413  63.4507980 156.5482025   7.3173742
  61.4662895 157.0230713   8.2236023  60.6362801 157.6678772   7.9347839
  60.9690094 155.5708313   8.0261803  61.8530579 154.9550934   7.8605886
  60.4084702 155.1516418   8.8617468  60.0899315 155.3455200   6.8014274
  60.5617294 155.7507935   5.9062896  59.8525887 153.8747559   6.5366325
  59.2953491 153.3134613   7.2866616  59.3327942 153.8206940   5.5800800
  60.7895851 153.3802338   6.2805219  58.6670876 156.0143280   6.8785138
  58.7383308 157.0317078   7.2631521  58.2619400 155.9152527   5.8714681
  58.0340691 155.4350739   7.5507240  61.7249184 157.3287201   9.7048368
  62.8736115 157.1945953  10.1472092  60.6703377 157.6682281  10.4447975
  59.7584724 157.8718262  10.0612030  60.7168732 157.7868652  11.8677683
  61.7475624 157.9802399  12.1650639  59.8658562 158.9400787  12.3871870
  58.8235130 158.7701263  12.1174822  59.8707466 158.8751221  13.4752398
  60.2057877 159.9051666  12.0114889  60.2550392 156.4244995  12.4029799
  59.0610695 156.2276154  12.5412350  61.1482468 155.4413452  12.6060476
  62.1156349 155.6061401  12.3670759  60.6884956 154.1090088  13.0841284
  59.8833885 153.7836761  12.4252977  61.7689934 153.0665741  12.9162083
  62.6363144 153.3639374  13.5056362  61.3711624 152.1445465  13.3401251
  62.2257690 152.8292084  11.5315247  61.3734474 152.1746674  10.5834780
  60.4557648 151.7094574  10.9118719  61.7228622 152.0474243   9.2409449
  60.9862404 151.5984344   8.5911818  62.9299164 152.6314545   8.8110266
  63.1996574 152.5564270   7.4487667  62.6977501 151.8846130   6.9814787
  63.7758865 153.3374634   9.7305222  64.7243881 153.7334595   9.3989792
  63.4003792 153.4571075  11.0773449  64.0491180 153.9988251  11.7497187
  60.2271843 154.0667267  14.5237846  61.0655212 153.9748535  15.4328117
  58.8986397 154.0460815  14.7673006  58.3147583 153.8918457  13.9577284
  58.2050323 153.9790955  16.0422573  58.6110039 154.6781769  16.7734070
  56.7716560 154.4318542  15.8843155  56.1699181 154.3063202  16.7844582
  56.6925011 155.4977875  15.6707687  56.1597595 153.7793732  14.6794758
  55.2031937 153.7276306  14.7420053  58.2537308 152.5425568  16.7384052
  58.0051041 152.4600830  17.9513092  58.6764412 151.4926758  16.0405502
  58.7659836 151.6430511  15.0458298  59.3041306 150.2519684  16.5015812
  59.8547668 150.4470062  17.4218311  58.2407303 149.2553253  16.9608173
  57.6578140 149.7069244  17.7635441  57.5845871 148.9479523  16.1465073
  58.7174034 147.9400940  17.4675369  59.8112717 147.4481964  17.1666431
  57.9717293 147.3071747  18.3216019  58.3715134 146.4535675  18.6844254
  57.1387634 147.7231445  18.7130642  60.2938080 149.7622681  15.4416456
  59.8494492 149.2303925  14.4205036  61.5816994 149.7909698  15.7543344
  61.8086815 150.1984863  16.6501579  62.6265335 149.5064850  14.7719746
  62.3731842 149.8429718  13.7666426  63.9326439 150.2302856  15.0991564
  63.6544762 151.2792664  15.2009525  64.5430832 149.7652588  16.4305897
  64.8315506 148.7153168  16.4803104  65.4113998 150.3680267  16.6966724
  63.8816872 149.9732971  17.2716484  65.0832443 150.0740662  14.1121521
  64.7458954 150.3566589  13.1149406  65.8958511 150.7540131  14.3679533
  65.4318771 149.0476990  13.9975624  62.8491707 147.9892578  14.7256241
  63.2892494 147.5293121  13.6636620  62.4476242 147.1950836  15.7514687
  61.9688377 147.6931915  16.4881783  62.4926834 145.7124023  15.7268124
  63.4163284 145.3195953  15.3017530  62.3938522 145.1155090  17.1587849
  62.9090958 145.7835999  17.8489113  61.3586807 145.0636902  17.4961815
  62.9796562 143.7051544  17.2195148  62.4032288 143.1048431  16.5156326
  64.0403824 143.7905121  16.9835587  62.7472916 143.1406860  18.6109085
  63.1162834 143.8411102  19.3601551  61.6625252 143.0538025  18.6727600
  63.3499107 141.8091583  18.8310585  64.3032455 141.7896881  19.1640415
  62.8988686 140.6306915  18.3612556  61.9283142 140.5460205  17.5268593
  61.6672707 141.3430634  16.9641304  61.6186829 139.6549835  17.1659050
  63.4066963 139.5106659  18.7963734  64.2051010 139.5856781  19.4103947
  62.9826546 138.6242828  18.5627213  61.3539391 145.1037598  14.8383198
  61.5999374 144.0951691  14.1602812  60.1811600 145.7359924  14.8091249
  59.9844055 146.3880157  15.5549440  59.0770988 145.3459625  13.9149857
  59.4340401 144.4122925  13.4802923  57.7588310 145.1695099  14.6532106
  57.5713081 146.1869812  14.9962730  56.9940758 144.9255066  13.9158392
  57.7286339 144.1674500  15.8362904  58.3317299 144.6095123  16.6293659
  56.7335091 144.0250244  16.2576427  58.2687492 142.7722321  15.4216566
  57.8028107 142.1566467  14.3939352  59.1901398 142.2261810  16.0786858
  58.9226265 146.2971649  12.7079248  58.1171150 146.0443726  11.8355589
  59.8064194 147.2638550  12.5010509  60.4865875 147.4786224  13.2161398
  59.8702202 148.1602478  11.3553553  60.5057411 149.0179901  11.5756035
  60.3987350 147.3967438  10.1374588  59.6243782 146.7466278   9.7302485
  60.6756554 148.1000214   9.3520803  61.5840225 146.5088196  10.3138876
  62.0772324 146.6846313  11.2698860  61.2265854 145.4817963  10.3884592
  62.7023773 146.5412750   9.2475128  63.3794022 145.6949310   9.3633852
  62.1443787 146.4948273   8.3123245  63.4343185 147.8001099   9.3849382
  63.5948143 148.0746918  10.3435564  64.0771790 148.4418640   8.4381590
  64.1768265 147.8950043   7.2739444  63.6653519 147.0297699   7.1745095
  64.4359207 148.4350739   6.4607444  64.7812653 149.5752716   8.6654263
  64.7882385 150.0608368   9.5510225  65.4303894 149.8687439   7.9494586
  58.5119476 148.9095917  11.1396341  58.0549507 149.1553650  10.0356464
  57.8330154 149.1860504  12.1920881  58.2929420 148.9763489  13.0664959
  56.7143364 150.0528564  12.2655334  56.0016441 149.8396454  11.4688435
  55.8412819 149.9400177  13.5445862  56.3934288 150.2975159  14.4137421
  54.9915390 150.6057587  13.3934803  55.4002266 148.5186005  13.8609486
  55.2765732 147.9432983  12.9434328  56.1472931 147.9823761  14.4461432
  54.0809059 148.4765015  14.6193151  54.0218582 148.5541382  15.8796492
  53.0281067 148.4770355  13.9380503  57.2184830 151.4861145  12.1547832
  58.1709213 151.8889008  12.8405905  56.6019936 152.2080841  11.2514019
  55.7778664 151.8965302  10.7575827  56.8332024 153.6666107  11.0665245
  57.1380005 154.1284332  12.0056343  57.9935074 153.8709717  10.0930815
  57.7667007 153.4130554   9.1302986  58.2116890 154.9268341   9.9328203
  58.9111938 153.4504852  10.5043449  55.5827675 154.3683319  10.5461979
  54.9702415 153.7422180   9.6968918  55.3237877 155.5508575  11.0804195
  55.9409676 155.9067383  11.7963381  54.0743484 156.2573700  10.7087717
  53.4203682 155.5790253  10.1608248  53.3599167 156.5518494  11.9979849
  54.0506172 157.0485229  12.6794195  52.4369011 157.0964203  11.7990627
  52.8768539 155.2951965  12.6872482  52.0923042 154.2871399  12.1483650
  51.9124489 153.2973785  13.0292234  51.3612175 152.3824921  12.8694983
  52.4395332 153.7468109  14.1879921  52.5688095 153.2310028  15.0466738
  53.0087547 154.9767456  13.9724979  53.5026550 155.6024017  14.7012081
  54.3189888 157.5738983   9.9366035  53.4541969 158.0989838   9.2235651
  55.4548340 158.2253418  10.1850233  56.1107178 157.9154053  10.8877745
  55.9361191 159.5222168   9.5675039  55.3642845 159.7245789   8.6618795
  55.7168541 160.7577972  10.4681540  56.3937187 160.7416534  11.3223753
  55.8493118 161.6642303   9.8774385  54.2997856 160.8394775  11.0795755
  53.2654381 161.5149384  10.3717556  53.4788551 162.0594788   9.4638319
  51.9606285 161.4847260  10.8588524  51.2118225 162.1057587  10.3898001
  51.6419907 160.8681030  12.1126089  50.6153259 160.8514709  12.4474058
  52.6522789 160.1945953  12.7942104  52.4577446 159.7594910  13.7633572
  53.9471092 160.1761780  12.2626934  54.7393570 159.6686096  12.7928953
  57.4150887 159.5216675   9.0942163  58.2060852 158.6301727   9.4828157
  57.9479942 160.5900879   8.4188519  57.2669716 161.3074341   8.2145643
  59.3722534 160.7154541   8.0523863  59.9467888 160.6519012   8.9764929
  59.6238174 159.9303741   7.3393154  59.7062378 162.0635986   7.3719668
  58.9375114 162.9930878   7.3966188  60.8002243 161.9750671   6.6980972
  61.1404305 161.0241547   6.7096124  61.4863510 163.1040955   5.9935393
  60.7712517 163.9184875   5.8773298  62.5684662 163.7304688   6.8836122
  63.2996941 162.9351959   7.0284162  63.1889572 164.9311829   6.1633954
  62.4715996 165.7480927   6.0850096  63.9930840 165.3553467   6.7646956
  63.6181870 164.6157990   5.2123957  62.0083160 164.2050171   8.0800743
  62.0478630 163.5738831   8.8023682  62.0272675 162.6548615   4.6365852
  62.7455940 161.6546478   4.4959283  61.7181511 163.3683167   3.5031760
  61.0002670 164.0742950   3.5828607  62.2595062 163.1251221   2.1262906
  62.2425346 162.0500031   1.9476160  61.3716507 163.6703186   1.0200413
  61.8330841 163.5644684   0.0382196  59.9937210 163.0429077   0.9958694
  59.3719101 163.5104065   1.7593518  59.6399345 163.0511169  -0.0350849
  59.9297943 161.9707642   1.1816020  61.1446457 165.0811920   1.2186294
  61.9766731 165.5113068   1.0080924  63.6682892 163.6945343   2.0345328
  63.8732109 164.8660431   1.7456832  64.6881027 162.7841492   2.1481907
  64.4613266 161.8012848   2.1996791  66.0207901 163.1561890   1.7045233
  66.3074646 164.0787048   2.2093880  66.9522400 162.0377350   2.1774940
  66.5940247 161.0921478   1.7705121  67.9255981 162.3160553   1.7735032
  67.0601578 161.9680786   3.2599032  66.1900406 163.3958588   0.2085301
  66.0720596 162.4967804  -0.5577043  66.7443924 164.5773468  -0.1936867
  66.8137512 165.3794098   0.4162313  67.2674103 164.7312164  -1.6226841
  66.9253693 163.9464569  -2.2974298  66.7726440 166.0500031  -2.2016118
  65.7125854 166.1815796  -1.9846889  67.2197113 166.8729706  -1.6439813
  67.0389709 166.1819153  -3.7066398  68.0363464 165.8130646  -3.9459901
  66.3535919 165.5338745  -4.2529092  66.9422455 167.6154175  -4.1834111
  65.8356400 168.0755310  -4.6298790  67.9820786 168.3522339  -4.0775743
  68.7705994 164.6108093  -1.6397103  69.4728928 165.1856232  -0.8158178
  69.3217926 163.9596405  -2.6376474  68.6831818 163.4355011  -3.2186511
  70.8007431 163.8820648  -2.8168988  71.2732620 163.8085938  -1.8373893
  71.1728821 162.5401917  -3.5662298  70.5798874 162.6566620  -4.4733634
  72.6708221 162.5126343  -3.9441373  73.2471390 162.6290436  -3.0263095
  72.9632492 161.6304016  -4.5135713  72.9333420 163.3207855  -4.6268482
  70.8226471 161.2832794  -2.6988528  71.5802231 161.1034546  -1.9360604
  69.9012146 161.5466919  -2.1795471  70.6260223 159.9839325  -3.5344119
  71.4990692 159.7529144  -4.1447530  70.5313187 159.0525360  -2.9761689
  69.7843170 160.0602264  -4.2227569  71.3013535 165.1220551  -3.5160079
  70.9551620 165.3093567  -4.6929498  72.1234818 165.9530945  -2.8066058
  72.2249451 165.7999420  -1.8134540  72.7627716 167.1705627  -3.3375323
  72.1536789 167.4283600  -4.2039285  72.6274948 168.3551483  -2.3511090
  72.6515427 169.2735901  -2.9376013  71.6122665 168.3858185  -1.9555268
  73.5467606 168.3882904  -1.1549274  74.7510300 169.0967865  -1.1689831
  75.0918121 169.4752350  -2.1213777  75.5416489 169.2331238  -0.0509257
  76.4751053 169.7738495   0.0007239  75.0642776 168.6069794   1.1731589
  75.7878723 168.7619019   2.3305211  76.2529907 169.5978851   2.4106166
  73.8016052 168.0485382   1.2616392  73.4306107 167.7624969   2.2347486
  72.9989471 168.0175171   0.1162207  71.9672928 167.7002411   0.1537992
  74.1956940 166.9535370  -3.8491373  74.7523727 167.8418732  -4.5126791
  74.8237457 165.8509369  -3.4561400  74.2893600 165.2339020  -2.8613286
  76.1600342 165.4015045  -3.8815720  76.3812485 165.8531342  -4.8486290
  77.3135834 165.9613342  -2.9954875  77.5516586 165.2830658  -2.1761153
  78.2152939 165.9994965  -3.6066811  77.2152939 166.9999695  -2.6797335
  76.2542877 163.8407898  -3.9695625  75.6726532 163.1322784  -3.1617074
  77.0105667 163.3687744  -5.0080123  77.3562012 164.1291046  -5.5759244
  77.1445312 161.9776611  -5.3427176  77.0580521 161.4286652  -4.4050393
  75.8946915 161.5503998  -6.1177850  75.0102310 161.5422211  -5.4807858
  75.6878433 162.2544250  -6.9238048  75.8095627 160.2778931  -6.9110146
  75.0028915 159.1652069  -6.5632796  74.4835968 159.1378632  -5.6167135
  74.9978485 158.0146942  -7.3989248  74.2806931 157.2303314  -7.2068710
  75.6921158 157.9477692  -8.5927954  75.5150375 156.9640503  -9.5822868
  75.3046722 156.1385040  -9.1397724  76.5291443 159.0336456  -8.8959980
  77.1555023 159.0425873  -9.7757645  76.5634995 160.2281189  -8.1108465
  77.1581879 161.0656586  -8.4444284  78.4754486 161.5509491  -6.0210195
  79.0876694 162.4142151  -6.5664959  78.9406128 160.2958374  -5.8087258
  78.3583069 159.7826080  -5.1625047  80.1992188 159.6469727  -6.2075896
  80.3098526 159.9958954  -7.2342882  81.2322388 160.2204742  -5.2471108
  81.1584091 161.2861176  -5.0302582  81.1513367 159.6090240  -4.3483915
  82.6240311 160.0377808  -5.7407351  82.7032852 158.9591064  -5.8759160
  82.6963654 160.4975433  -6.7263756  83.7569885 160.5111389  -4.7316756
  83.2885971 161.2884064  -4.1278849  83.9934464 159.6845551  -4.0616426
  84.8498001 161.0599670  -5.4273925  84.7384491 161.9860229  -5.8148770
  85.9528885 160.4135590  -5.8742666  86.3931885 159.3164215  -5.3547506
  85.7857666 158.7572327  -4.7729807  87.2447052 158.9484100  -5.7542224
  86.6939545 160.9750671  -6.7449627  86.3289871 161.8218079  -7.1571856
  87.5425034 160.5370636  -7.0739279  80.2309113 158.0543365  -6.2547660
  79.8186035 157.4314117  -5.2688127  80.7484818 157.3912354  -7.2913809
  81.0835342 158.0382233  -7.9908519  80.8445511 155.9462433  -7.5020471
  80.3496399 155.4464417  -6.6693592  80.1535187 155.5354767  -8.7794361
  80.5067139 156.1583405  -9.6012611  80.4258652 154.4953766  -8.9586630
  78.6150665 155.5720367  -8.6050606  78.3885803 155.1980896  -7.6065741
  78.1665268 156.5576019  -8.7298889  77.8989487 154.6598969  -9.6386042
  76.9731522 153.9527283  -9.1949615  78.1450882 154.6030579 -10.9079428
  82.2893524 155.5151062  -7.5067620  83.1035767 156.0926666  -8.2942667
  82.6374054 154.4809570  -6.7730255  81.9116135 154.0751801  -6.1997213
  83.9331055 153.8122101  -6.7229285  84.5613403 154.1588287  -7.5434651
  84.7929535 154.2752533  -5.5307274  84.2271423 153.9654999  -4.6520872
  85.7840500 153.8450012  -5.3867788  85.0242691 155.7856445  -5.4769540
  85.7503128 156.0675507  -6.2395067  84.1201935 156.3742218  -5.6329460
  85.5822449 156.3098602  -4.1341419  86.8349609 156.3481750  -3.9637380
  84.8393555 157.0283203  -3.3792102  83.9219742 152.2453156  -6.7924995
  82.9783859 151.5598755  -6.4317088  85.0643158 151.7486877  -7.2611289
  85.8423843 152.3404846  -7.5150657  85.3050690 150.3403320  -7.4144592
  84.5514603 149.7476501  -6.8958912  85.0933380 149.9922180  -8.9191637
  84.0471725 150.1944122  -9.1488466  85.7471313 150.6439514  -9.4987221
  85.5272369 148.6196289  -9.2945051  86.4696045 148.7981720  -9.8123608
  85.8353958 147.9602661  -8.4830914  84.5722580 147.8716431 -10.1631784
  84.0906830 146.7723846  -9.8014898  84.1114731 148.4860077 -11.2159214
  83.3232422 148.0734558 -11.6940498  84.5193329 149.3925629 -11.3945608
  86.6794891 149.9244995  -6.7937751  87.7896576 150.1455841  -7.3244247
  86.6476822 149.1099548  -5.6945028  85.7482758 148.8460999  -5.3182817
  87.8569412 148.5360260  -5.0299158  88.6591644 148.2496338  -5.7100058
  88.3307495 149.5282745  -3.9284151  87.4720993 149.7817841  -3.3066921
  89.0066071 149.1372833  -3.1678634  89.0484619 150.7934723  -4.4484444
  89.8563538 150.4906464  -5.1145663  88.3060837 151.3470612  -5.0233483
  89.6509857 151.6935272  -3.4095049  89.0064621 152.2479248  -2.4798636
  90.8637772 151.9680176  -3.6506014  87.5774841 147.1714935  -4.3523321
  86.4213715 146.8881226  -4.0022240  88.6978455 146.3557892  -4.2465549
  89.5963135 146.7752228  -4.4386997  88.5820694 144.9228058  -3.7214117
  89.5828629 144.5069427  -3.8379307  88.2065811 144.9553375  -2.2186222
  87.1252213 145.0839386  -2.1714325  88.4220734 143.9972076  -1.7456793
  88.8277359 145.9866333  -1.3447646  90.1812668 145.8454285  -1.0420477
  90.7716293 145.0520477  -1.4761389  90.9307861 146.8549957  -0.3864463
  91.9991455 146.7549896  -0.2639086  90.2088242 147.9658203   0.1473088
  90.9141235 148.8934784   0.8474889  91.8588409 148.7235870   0.8631960
  88.8342133 148.0840607  -0.1130519  88.2881851 148.8965454   0.3431462
  88.1501999 147.0896149  -0.8848487  87.1329727 147.2284698  -1.2200460
  87.6756058 143.9813385  -4.5802140  87.3459091 142.8709106  -4.2129998
  87.3158035 144.4790497  -5.7736402  87.8084946 145.3177490  -6.0455542
  86.4629440 143.8289642  -6.7154679  86.4726562 144.3572235  -7.6688595
  86.8179169 142.8036652  -6.8196278  84.9505615 143.8572083  -6.3419237
  84.2293777 142.8610382  -6.5623736  84.4742050 144.9480743  -5.7030792
  85.1691742 145.6219940  -5.4150805  83.0344238 145.2288055  -5.4452772
  82.4195251 144.6466522  -6.1316328  82.5717087 144.9326935  -3.9444253
  81.5147324 144.6879425  -4.0493088  83.3742981 143.7577515  -3.3583057
  84.4123917 144.0330505  -3.1720672  83.0090332 143.4916840  -2.3663931
  83.2270660 142.8316193  -3.9139059  82.5633698 146.2417297  -3.0457606
  83.4804688 146.7904053  -3.2602422  81.7315369 146.8546295  -3.3929002
  82.3122253 146.0585785  -1.5283545  83.0854263 145.5039215  -0.9967431
  82.2607040 147.0191498  -1.0157583  81.3128891 145.6500092  -1.3783808
  82.6319275 146.6690063  -5.8459277  83.4135513 147.6175385  -5.6952524
  81.4217758 146.8934937  -6.3543010  80.8792191 146.0863342  -6.6267810
  80.8258896 148.2286072  -6.5853148  81.5871735 148.8768921  -7.0192175
  79.6634521 148.0925598  -7.5514374  79.0267563 147.2718506  -7.2210612
  79.0145035 148.9658356  -7.4855061  80.0297165 147.8800049  -9.0094547
  80.7774353 148.6535187  -9.1846819  80.6023560 146.9670563  -9.1728983
  78.8587875 148.0607605 -10.0666304  77.6593781 148.2810974  -9.7451963
  79.2292404 148.1100006 -11.2500401  80.2298203 148.8905945  -5.3234739
  79.4158249 148.3992157  -4.5301819  80.6311417 150.1580353  -5.0934372
  81.4008713 150.5322418  -5.6297026  80.1829224 150.9917145  -3.8734055
  79.2093658 150.5991364  -3.5798542  81.1998901 150.8488312  -2.7375629
  81.3432693 149.7917633  -2.5136242  82.5498428 151.4302673  -3.0854213
  82.4492874 152.4911041  -3.3147833  83.1918716 151.3953705  -2.2052660
  83.0224228 150.9044952  -3.9150760  80.6814880 151.5287781  -1.6308788
  81.1874084 151.3240509  -0.8411104  79.8681793 152.4808350  -4.2448182
  80.1307983 152.9246826  -5.4018536  79.1720276 153.2370300  -3.3774605
  79.0678253 152.8620148  -2.4454756  78.7052689 154.5982513  -3.6932416
  79.5174713 155.0045013  -4.2960596  77.3067551 154.6010742  -4.3815598
  77.3336945 153.9343109  -5.2434163  76.1477661 154.0403748  -3.6117809
  75.8375397 154.7749634  -2.8686657  75.3463974 153.7607117  -4.2956610
  76.4521866 153.1582947  -3.0484283  76.8334732 155.9501495  -4.9573364
  77.6315308 156.2779083  -5.6235032  75.8672409 155.8341522  -5.4482994
  76.5359650 156.7144928  -4.2394385  78.6651993 155.5198669  -2.4200532
  78.4674606 155.0773315  -1.2561246  78.9103394 156.8006287  -2.6067910
  79.2203445 157.0038300  -3.5463157  79.0240555 157.8396301  -1.5685725
  78.6937180 157.3337860  -0.6613271  80.5244370 158.2301483  -1.4130208
  80.7954330 158.7352753  -2.3401225  80.5991516 159.0031738  -0.6482031
  81.3620758 156.9126587  -1.1369903  80.8633270 156.4431000  -0.2891321
  81.4979172 156.3034058  -2.0305538  82.7987823 157.3603058  -0.6979069
  83.1298523 158.1724091  -1.3451930  82.7130814 157.8283691   0.2827453
  83.8016891 156.1459961  -0.8210098  83.5190048 155.4035034  -0.0747468
  83.7133331 155.5924683  -1.7558414  85.1964340 156.6695862  -0.6749271
  85.3232574 157.1988220   0.1759107  85.7690887 155.8379211  -0.6975617
  85.3397522 157.2129822  -1.5141381  78.1682205 159.0445557  -1.9232559
  78.3792191 159.7044373  -2.9752171  77.3327560 159.4443512  -1.0086160
  77.2189178 158.9169922  -0.1547755  76.3236084 160.5487518  -1.1722239
  76.7445068 161.1471100  -1.9802533  74.9113922 160.1751404  -1.5332141
  74.3853912 161.1156616  -1.6970114  74.7801971 159.3601074  -2.8092296
  75.1004028 158.3422394  -2.5867238  73.7843323 159.2950439  -3.2475569
  75.3346405 159.7242279  -3.6741598  74.0546722 159.4702454  -0.4758664
  74.0166321 160.1310577   0.3901597  73.0618744 159.3019409  -0.8931412
  74.5593414 158.5231934  -0.2848565  76.3087540 161.4664612   0.0711809
  76.4358139 161.0755920   1.1989517  76.0578766 162.7397766  -0.1812960
  75.9266968 163.0173187  -1.1435167  75.4985733 163.7142639   0.8046341
  75.3747711 163.3483276   1.8238794  76.4932556 164.9402771   0.9567468
  76.6564636 165.3772888  -0.0283822  75.9409027 165.7091064   1.4970384
  77.7651291 164.6083832   1.6587274  77.5666580 164.4837341   2.7232316
  78.1022568 163.6324921   1.3093519  78.9162674 165.5949249   1.5244598
  79.5116196 165.5233612   2.4346986  79.6356506 165.3374786   0.7470834
  78.6128845 167.0628357   1.4284683  77.7513962 167.1590424   0.7676467
  78.3471222 167.4821777   2.3988438  79.7931213 167.7989044   0.8876492
  79.9187546 167.4611664  -0.0558810  79.6607742 168.7993164   0.8454936
  80.6661682 167.6860657   1.3827797  74.1306076 164.1857758   0.3227021
  73.8687286 164.3620148  -0.8643489  73.1879349 164.2524567   1.2453330
  73.4433670 164.0432587   2.1998429  71.7675705 164.5366821   1.0632559
  71.5891342 164.9630280   0.0760915  71.1072998 163.1607513   1.1282313
  71.1875992 162.6748047   2.1006036  70.0454636 163.3096313   0.9321852
  71.5228653 162.4712677   0.3933708  71.2110977 165.4086761   2.1946051
  71.8292542 165.6064911   3.2296040  69.9648132 165.9161987   2.0738304
  69.4962311 165.7714386   1.1908909  69.4029999 166.9327087   2.9944222
  69.7383804 166.6410522   3.9896960  69.9623642 168.2284698   2.5594275
  71.0243301 168.1774445   2.3191893  69.1876907 168.7629395   1.3753268
  68.1496506 168.9725800   1.6334504  69.6962357 169.6233673   0.9404167
  69.0858154 168.0186157   0.5855836  69.9186554 169.3371735   3.6072409
  68.9490814 169.8339386   3.5716965  69.9641800 168.8799438   4.5956559
  71.0442505 170.3333588   3.5375853  71.1775665 170.7967529   2.5600436
  70.6971283 171.1719818   4.1411619  71.9377365 169.8794403   3.9662366
  67.9022903 166.7929230   3.0434000  67.2676849 166.4254150   2.0928638
  67.2353058 167.0861511   4.1684608  67.7581635 167.4458160   4.9541855
  65.7421799 166.8642426   4.2453146  65.4740295 165.9799805   3.6671586
  65.5201187 166.7114105   5.3014560  64.9018173 168.0073242   3.6634960
  64.8392105 169.1180878   4.2335987  64.1836014 167.7552490   2.6030066
  64.2683716 166.8377838   2.1892707  63.3261795 168.7587128   1.9356319
  63.7274284 169.7665100   2.0427241  63.3063622 168.4858704   0.4508309
  63.0989456 167.4246063   0.3137591  62.5302544 169.0973206  -0.0094810
  64.5573959 168.8041840  -0.3997535  65.4412994 168.3442078   0.0420875
  64.3792877 168.2845001  -1.3411905  64.8149872 170.2796631  -0.6739842
  65.3616257 170.3267517  -1.6158285  63.8738098 170.8178864  -0.7862340
  65.6764603 171.0199585   0.3414496  65.1754074 171.3968201   1.1332901
  67.0295944 171.2633514   0.3253032  67.8513031 170.7704010  -0.6021733
  67.5387573 170.0845947  -1.2745587  68.8326797 171.0082703  -0.5820408
  67.4731064 172.1620483   1.1721220  66.7746353 172.5416870   1.7951115
  68.4089050 172.5360718   1.1051775  61.9002190 168.8377533   2.5296230
  61.4594193 169.9535980   2.7384422  61.1799355 167.7135162   2.7823684
  61.5251122 166.7711334   2.6689396  59.7315521 167.7295990   3.2197206
  59.4812660 168.6807251   3.6896529  58.8036194 167.4531555   2.0499983
  58.9402924 166.4057465   1.7810351  57.7560349 167.6296387   2.2939594
  59.2267113 168.1206818   0.7814416  58.7612267 169.1016388   0.8771106
  60.3073082 168.1888580   0.6559106  58.6768456 167.4870453  -0.4696450
  57.9583092 168.0850067  -1.2102567  58.9877357 166.2405548  -0.7737002
  58.4943962 165.8515015  -1.5644950  59.7406044 165.7712097  -0.2909986
  59.4904938 166.7548981   4.3688436  60.0175705 165.6534119   4.4154105
  58.6072655 167.0930634   5.3902464  58.1059532 167.9515991   5.2121477
  58.0407677 166.0641785   6.3171024  58.8015022 165.3585052   6.6508889
  57.4600067 166.8254852   7.5259657  56.8246803 167.6217499   7.1381168
  56.7907372 166.1471100   8.0550871  58.4938469 167.4926605   8.3869905
  59.1927452 166.7186737   8.7041368  58.9598618 168.3135376   7.8419251
  57.8271904 167.9899750   9.7176142  57.2763596 167.1927948  10.2168055
  58.5663872 168.3909912  10.4110651  56.8222466 169.0542145   9.4506903
  57.1544037 169.9006042   9.0109453  55.5657387 169.1198730   9.8109226
  55.0389900 168.0975037  10.4266376  55.4618835 167.2113800  10.6633997
  54.0611954 168.1249542  10.6781597  54.9205208 170.2055664   9.5580559
  55.4138718 171.0316925   9.2511139  53.9408722 170.2374268   9.8017321
  56.8975029 165.2657623   5.6167870  56.1542168 165.9073639   4.8713565
  56.6741943 164.0113220   5.9822969  57.3177490 163.5218964   6.5876126
  55.5938606 163.1611481   5.4463344  54.7829857 163.8281403   5.1535707
  56.0839310 162.4637299   4.1588273  55.1832924 162.1233063   3.6478856
  56.5036316 163.2456055   3.5258799  57.0858459 161.3311310   4.3806329
  56.6681786 160.0639343   4.8366437  55.6731682 159.8303833   5.1856518
  57.5957260 159.0082245   4.9788361  57.1878929 158.0765076   5.3421254
  58.9544258 159.2065887   4.6455116  59.6291313 158.3821411   4.8228588
  59.3593521 160.4531097   4.1084671  60.3792953 160.4476624   3.7533689
  58.4548874 161.5145569   4.1187916  58.8157883 162.4609222   3.7439082
  54.8381004 162.1289978   6.3667016  55.4676132 161.4934540   7.1853547
  53.4849472 162.0144043   6.1807637  53.1185112 162.7495422   5.5930395
  52.6254311 160.8952332   6.7077737  52.8416824 160.6748810   7.7531343
  51.1451492 161.3211823   6.6768250  50.9637184 162.2983093   7.1244655
  50.7554398 161.3564453   5.6594849  50.2921791 160.2590637   7.4932480
  50.4895058 159.2553253   7.1168756  50.6760826 160.2445679   8.5133047
  48.7653885 160.4286041   7.5227079  48.3242722 160.3218689   6.5316849
  48.3982010 159.7420807   8.2855701  48.3653374 161.7637787   7.9908547
  48.9526520 162.0686646   8.8570004  48.6351814 162.4736328   7.2089338
  46.8790474 161.7432556   8.2437792  46.6626015 161.1838226   9.0563707
  46.5097961 162.6794434   8.3291998  46.3458519 161.4287262   7.4457350
  52.8502769 159.6981049   5.7763610  52.8399544 159.8195343   4.5421505
  52.9680443 158.4740906   6.3522139  52.7481499 158.4738007   7.3379855
  52.8388672 157.1728363   5.7089410  53.3814545 157.2948608   4.7714939
  53.5333252 156.1186371   6.6177554  53.0848732 156.1728821   7.6097488
  53.2753601 154.6925354   6.1735339  53.5740623 154.5511169   5.1348405
  53.8284950 154.0414734   6.8504901  52.2341003 154.3706665   6.1903868
  55.0833397 156.4239655   6.5937018  55.3602257 157.4771881   6.6401200
  55.4568672 156.0720215   7.5553284  55.6153603 155.9619141   5.7620935
  51.3969193 156.7005463   5.4101562  50.5087891 156.8893280   6.2651520
  51.2075882 155.9490662   4.2818193  51.9502869 156.0032959   3.5995038
  49.9763603 155.2628021   3.9105124  49.2727509 155.4715881   4.7163968
  49.4107704 155.9014282   2.6248505  50.0638161 155.6165771   1.7999312
  48.4326744 155.4457245   2.4706998  49.1445694 157.4466553   2.6374710
  50.1142311 157.8935242   2.8569472  48.5067101 157.8302612   1.3450030
  47.5827789 157.2796326   1.1681786  48.3844109 158.9124451   1.3002228
  49.1597290 157.5513000   0.5180446  48.1103439 157.8596802   3.6617413
  48.4595642 157.5661621   4.6516914  47.9595909 158.9382172   3.6154110
  47.1971741 157.3755798   3.3155341  50.0208054 153.7460480   3.7224088
  49.1496468 153.0428314   4.2135239  51.1274567 153.3361664   3.0687902
  51.7717285 154.0333862   2.7239702  51.4602814 151.9039001   2.8470559
  51.2923203 151.2729034   3.7198243  50.6498604 151.3762817   1.6673681
  49.6025543 151.6038666   1.8660188  50.9663429 151.7850037   0.7077381
  50.7173157 149.8207397   1.5005302  51.7354393 149.4861145   1.3016466
  50.4993134 149.3646545   2.4662251  49.7641830 149.2440796   0.4543343
  48.5350266 149.3605804   0.6066079  50.2896004 148.7088623  -0.5114540
  52.9673004 151.7827606   2.6226361  53.5377426 152.6923523   2.0922985
  53.5626373 150.6452026   3.0515068  52.9684029 149.9157715   3.4188342
  54.9764442 150.2752991   2.8582947  55.3350716 150.9690857   2.0979323
  55.8961372 150.3976746   4.1641841  55.8123970 149.5145569   4.7975740
  57.3564415 150.2810059   3.6695678  57.6493263 151.2466431   3.2574141
  58.0141029 150.0727234   4.5134912  57.4689255 149.5379028   2.8801010
  55.6314011 151.6656189   5.0195146  55.9271049 152.5636749   4.4771576
  54.5607452 151.7059021   5.2199526  56.4643402 151.6810608   6.3134203
  57.5401764 151.7450256   6.1503487  56.2643356 152.5844727   6.8895559
  56.2006912 150.8151093   6.9206533  55.1272507 148.8731995   2.2988596
  54.9187164 147.9173431   3.0206795  55.4576073 148.8090973   1.0395522
  55.6491470 149.6578217   0.5266325  55.7173843 147.6062469   0.2316535
  55.2217140 146.7491302   0.6874572  55.0844345 147.8233337  -1.1555822
  54.0082893 147.9400024  -1.0275049  55.5113029 148.6883392  -1.6631924
  55.2280960 146.6378479  -2.1600978  56.2383690 146.5985260  -2.5674052
  54.9819603 145.6618805  -1.7417496  54.2992630 146.8232269  -3.3528464
  53.2993965 146.5282745  -3.0344572  54.2387352 147.8792419  -3.6160574
  54.6721497 145.9383698  -4.5246806  55.1254959 145.0432129  -4.4093947
  54.2211990 146.1455078  -5.7216196  53.6735916 147.2859955  -6.1159101
  53.6860123 148.0413971  -5.4455934  53.0737076 147.3988190  -6.9205918
  54.1840057 145.1921844  -6.6080046  54.3814354 144.2320404  -6.3645935
  53.7054749 145.4101257  -7.4703302  57.2199554 147.2383270   0.3053483
  58.0757294 148.1390686   0.5647893  57.5605774 146.0031738  -0.0419082
  56.8778725 145.3132172  -0.3211362  58.9596786 145.6191559  -0.3120641
  59.6041336 146.4974518  -0.3491186  59.4781532 144.7456512   0.7962866
  58.9522591 143.7923737   0.8492535  61.0108681 144.4730377   0.7185062
  61.5215034 145.4356995   0.7436646  61.3415604 143.8732605   1.5664468
  61.2264519 143.8966827  -0.1811756  59.4493294 145.3555298   2.0648715
  59.1648445 144.6478882   2.6478770  59.0572014 144.8533478  -1.6254771
  58.4905090 143.7725983  -1.7619133  59.7741623 145.3796234  -2.6405623
  60.2886696 146.2296143  -2.4591711  60.0802765 144.7119598  -3.8902142
  59.1607285 144.3721466  -4.3667293  60.6220970 145.8151245  -4.8690534
  61.4415474 146.3886566  -4.4358559  60.8862534 145.2888947  -5.7863355
  59.5215797 146.7828979  -5.3513050  58.6667480 146.1562347  -5.6055560
  59.1785393 147.4353638  -4.5483632  59.7229576 147.5597382  -6.7000504
  59.7325058 148.7895660  -6.6568532  60.0690155 146.8699036  -7.7965641
  60.3335991 147.4099121  -8.6080360  60.1752548 145.8655548  -7.7868972
  60.9722366 143.5072937  -3.5797856  61.5629349 143.2183990  -2.5058322
  61.3103714 142.7242584  -4.6208038  61.0113525 143.0163269  -5.5402532
  61.9938240 141.4135437  -4.4843874  61.6252098 140.9358673  -3.5766058
  61.7289200 140.5064087  -5.6665158  61.9540558 140.9468079  -6.6378369
  62.3919182 139.6438293  -5.5996127  60.4587402 139.9631348  -5.7049985
  60.4993935 139.0040131  -5.7107129  63.5295753 141.5563812  -4.4172516
  64.2420654 140.7181244  -3.8680639  64.0621033 142.7077484  -4.8543587
  63.4849205 143.4002991  -5.3096890  65.4769440 143.0359497  -4.7181139
  66.0534973 142.1622620  -5.0220108  65.8024979 144.1748962  -5.6715808
  66.8893433 144.2574921  -5.6783638  65.4689560 143.9113922  -6.6752791
  65.2771378 145.6072083  -5.4173493  64.5291748 145.8560028  -4.4332871
  65.4198914 146.4937286  -6.2924004  65.9163284 143.4154816  -3.3098698
  67.0707016 143.2952576  -2.9421828  64.9531403 143.7191772  -2.4553981
  64.0340118 143.7563477  -2.8724523  65.0060501 143.9212799  -1.0070239
  64.2083130 143.2749786  -0.6409276  65.9585342 143.5379333  -0.6410809
  64.8091888 145.3222656  -0.4725296  64.7260666 145.5326843   0.7183728
  64.7187958 146.2966614  -1.3972142  64.6726761 146.0006256  -2.3617487
  64.5158997 147.7386322  -1.0640879  65.0726929 147.8429565  -0.1328560
  65.1074295 148.7171936  -2.1164014  65.3426895 149.6526031  -1.6086967
  66.4612122 148.2054443  -2.6683681  66.2903137 147.2976685  -3.2470174
  67.0374374 148.8450317  -3.3369484  67.2008209 147.9023132  -1.9272876
  64.1762543 149.0894470  -3.3278828  64.7817307 149.3714142  -4.1892719
  63.6390572 148.1804352  -3.5984447  63.2206535 150.1777954  -2.9651797
  63.7174034 150.9888000  -2.4326138  62.8477859 150.6777954  -3.8590863
  62.3633537 149.7884369  -2.4160602  62.9709358 148.0254974  -0.8024948
  62.1088791 147.3521271  -1.3729377  62.6491508 148.8809357   0.1886303
  63.4252701 149.2920380   0.6873717  61.3098640 149.2515106   0.4962874
  60.7066116 148.3696442   0.2806539  61.0570335 149.4916840   2.0072982
  61.7001305 150.2997742   2.3558905  59.9937592 149.6763611   2.1604252
  61.5835495 148.2462921   2.8527112  61.5425720 147.3574066   2.2231956
  62.6264420 148.4135437   3.1219780  60.6808548 148.1016388   4.1409526
  60.9264450 148.5612793   5.2328610  59.5873070 147.3943024   4.0331635
  59.0150490 147.2931061   4.8592296  59.3370323 146.8575897   3.2149894
  60.8008957 150.3987732  -0.2982322  61.5126343 151.3363037  -0.6643490
  59.5075150 150.3412476  -0.5276465  59.0150948 149.5433502  -0.1521711
  58.6585922 151.2886505  -1.2943811  59.2720566 152.0906219  -1.7049865
  58.1397629 150.5751495  -2.5252254  57.8874207 149.5642853  -2.2049496
  57.2010765 151.0679321  -2.7784896  59.1170845 150.5680084  -3.7239399
  60.1180801 150.2479706  -3.4346607  58.8992805 149.7223511  -4.3762717
  59.3167877 151.8892517  -4.4914122  59.1644974 152.9998322  -4.0054560
  59.7854500 151.7611389  -5.7442327  59.9704819 152.5966797  -6.2806482
  59.8624039 150.8288269  -6.1249681  57.5401993 151.7665253  -0.3582663
  56.9305038 150.9799347   0.3960539  57.2458992 153.0813141  -0.3498962
  57.8132591 153.7574158  -0.8409051  56.1756477 153.5980988   0.5090439
  55.4991798 152.7797852   0.7557635  56.9100800 154.1740875   1.7079598
  57.6650620 154.9238281   1.4713043  56.2499313 154.7358704   2.3688040
  57.3392715 153.3316498   2.2503591  55.3054581 154.5960693  -0.3186803
  55.8544769 155.4834137  -0.9924267  53.9736710 154.5441589  -0.0059640
  53.6310883 153.8841095   0.6774650  53.0670509 155.6267242  -0.3973451
  53.4715042 156.1460571  -1.2661383  51.7461128 155.0995026  -0.8034781
  51.4238739 154.3859253  -0.0451285  51.1254807 155.9910889  -0.8928914
  51.7698479 154.3786163  -2.1811690  52.1861649 155.0100403  -2.9660685
  52.3724174 153.4743958  -2.0950687  50.2868004 153.9162445  -2.5167782
  50.0436516 153.1427307  -1.7883021  49.6178589 154.7724304  -2.4298799
  50.0822792 153.3306885  -3.9256854  49.0190735 153.2926788  -4.1628456
  50.4465446 154.0985565  -4.6081662  50.6162949 151.9392090  -4.0915694
  50.2999649 151.4009094  -3.2976704  50.2386475 151.4624176  -4.8978868
  51.6225662 151.8880005  -4.1615362  52.9425430 156.6289215   0.7672021
  52.7313652 156.1613159   1.8830069  53.1944580 157.9143677   0.5172116
  53.3020706 158.1343079  -0.4626594  53.4230270 158.9570312   1.4962429
  53.0840416 158.5976715   2.4678624  54.9743881 159.2791443   1.7267579
  55.1272507 159.9670410   2.5583463  55.7238846 157.9868622   2.2103367
  55.5523720 157.1300964   1.5586892  56.8039589 158.0934906   2.3111842
  55.2821121 157.7061920   3.1664567  55.7263794 159.8925171   0.5371517
  55.1855125 160.8074036   0.2951575  56.7579384 160.1033783   0.8191444
  55.8005028 159.3521576  -0.4065742  52.7210579 160.2489777   1.0944819
  52.6467896 160.5803223  -0.1323735  52.2456360 161.0554962   2.0593381
  52.3476334 160.6471405   2.9774561  51.6321869 162.3316650   1.8953851
  51.4636383 162.5232849   0.8356802  50.1778755 162.4097595   2.5096784
  49.6570816 161.5283966   2.1354215  50.1486702 162.5042419   3.5951848
  49.4049072 163.6885223   2.0874152  49.7975502 164.6080627   2.5214381
  49.5234871 163.8098602   1.0106987  47.9415627 163.6344452   2.4097717
  47.1565857 162.7678680   2.0094810  47.3914413 164.6118927   3.1479666
  46.4078789 164.6129608   3.3775446  47.9475136 165.3464203   3.5619187
  52.4839668 163.4462891   2.5549090  52.7663345 163.3159332   3.7407796
  52.7847672 164.4712677   1.7597861  52.2541847 164.5623016   0.9052113
  53.7001419 165.5574188   2.1176836  54.5120506 165.0984955   2.6818624
  54.4242172 166.1880035   0.8275971  53.6479263 166.2882385   0.0690209
  54.8841286 167.6181488   1.0508868  55.5204735 167.7090912   1.9311669
  55.4106178 168.0285645   0.1892241  54.0933418 168.3634949   1.1358337
  55.6508331 165.4245453   0.2933434  56.0487976 165.9230957  -0.5904998
  56.4022141 165.6214294   1.0580423  55.5050049 163.9293213   0.0371770
  54.7274208 163.7275543  -0.6995339  56.4422073 163.4158325  -0.1775057
  55.1642036 163.5308380   0.9927750  53.0378876 166.5872955   2.9476693
  52.1742554 167.3448486   2.5256727  53.4350586 166.6492004   4.2378283
  54.2983208 166.2592010   4.5882301  52.7583046 167.6463470   5.1145849
  51.6942329 167.6618805   4.8787608  53.0014420 167.1305847   6.5834613
  54.0756454 167.2203369   6.7451019  52.4848404 167.8079681   7.2634492
  52.4378166 165.7156830   6.8493714  52.9470558 164.9616852   6.2491393
  52.6819496 165.3291321   8.3144341  52.1345177 166.0502014   8.9214602
  52.3712234 164.3021851   8.5066404  53.7366371 165.2600708   8.5808182
  50.9293022 165.7059174   6.6507788  50.6358299 165.9732666   5.6356425
  50.5392494 164.7407379   6.9739017  50.3727798 166.4342041   7.2406645
  53.3201637 169.0618744   5.0146980  54.5097542 169.1933899   4.6790314
  52.5236244 170.0711060   5.3237638  51.0927391 170.0604095   5.4499474
  50.7784882 169.4885712   6.3230715  50.6951332 169.6444855   4.5241890
  50.6013680 171.4939117   5.5186849  50.4848442 171.9001465   6.5234265
  49.6322823 171.6415100   5.0420437  51.7208290 172.2463379   4.8108354
  51.6373367 173.2978516   5.0855255  51.6689987 172.0701447   3.7364192
  52.9789848 171.4709015   5.3349872  53.7426453 171.6098633   4.5697341
  53.3649101 172.0117340   6.7140803  52.9296951 171.4787292   7.7366738
  54.0417099 173.1586456   6.7741265  54.3899689 173.6475983   5.9618864
  54.0887260 174.0226898   7.9743819  54.0242081 173.4193268   8.8798609
  55.2747269 175.0157928   7.7318377  55.1031456 175.4416656   6.7432613
  55.2038956 175.7966461   8.4890337  56.5992622 174.1898651   7.8063622
  56.5179176 173.2328033   7.2910647  57.3650398 174.7745361   7.2966080
  56.9543991 173.8723297   9.2549267  57.2753105 174.8430023   9.9752264
  56.7341919 172.6999207   9.6634197  52.7509880 174.8848877   7.8821526
  52.5312309 175.6596069   6.9497685  51.9294739 174.8514099   8.9525738
  52.1544991 174.2855988   9.7583752  50.8311729 175.8520203   9.2080231
  50.3286781 176.0674438   8.2650547  49.8109169 175.2823639  10.2169933
  50.3927460 174.8220978  11.0155697  49.2193642 176.0952148  10.6382399
  48.9264946 174.1792297   9.5741682  48.4390144 174.5228119   8.6617975
  49.5789261 173.3362122   9.3466787  47.9684334 173.6869965  10.7026529
  47.6520500 172.6901245  10.3956757  48.4518471 173.5527496  11.6703243
  46.7898903 174.6126404  10.8231611  46.5795860 175.1290588   9.9810343
  45.8686409 174.7032013  11.8038645  45.7957726 174.0054321  12.8805275
  46.2867088 173.1387177  13.0474672  45.1118851 174.2207489  13.5918932
  44.8623009 175.6043701  11.8275652  44.9513702 176.3932648  11.2032270
  44.1126556 175.6765747  12.5005589  51.3685684 177.1919861   9.6740627
  51.3198433 177.5348511  10.8513775  51.8922501 177.9192047   8.7286940
  52.0002136 177.5751953   7.7852402  52.5977478 179.1816559   9.0606346
  53.2231293 178.9385071   9.9196329  53.5413246 179.6102905   7.9771519
  52.9662094 179.9210205   7.1049180  54.3700562 180.8639069   8.4328194
  54.9317780 180.7168732   9.3552856  55.0501862 181.1304321   7.6238127
  53.7524910 181.7032928   8.7524462  54.5420837 178.4617767   7.5884089
  54.0757294 177.8206635   6.8403492  55.4602852 178.8223114   7.1247149
  54.8766403 177.9585876   8.4955921  51.6530724 180.4038696   9.3653355
  51.1048698 181.0789642   8.5116472  51.3938713 180.6540985  10.6633453
  51.8202972 180.0418549  11.3440971  50.4060135 181.6608734  11.0773973
  49.5495262 181.5402832  10.4140825  49.8925629 181.3461609  12.4712696
  50.7091141 181.5655823  13.1591673  49.0728722 182.0138092  12.7367287
  49.4790382 179.8936920  12.7381611  50.2752075 179.1521912  12.6718264
  48.7928467 179.8896027  14.1303215  47.8640022 180.4595642  14.1081419
  48.5608101 178.8507996  14.3651972  49.4734688 180.4127808  14.8019934
  48.4484711 179.4425507  11.7090445  48.9416542 179.1398621  10.7853298
  48.0876198 178.5408630  12.2038803  47.6940536 180.2117004  11.5436125
  50.9033623 183.0813904  10.8193693  52.1303558 183.4045715  10.9776907
  50.0041885 184.0523834  10.4928303  48.6112862 183.8314972  10.1098337
  48.1348038 183.1319427  10.7966299  48.6890984 183.5576782   9.0576630
  47.9157753 185.1872559  10.1859770  47.5856667 185.4121094  11.2001619
  47.1329422 185.2709961   9.4321394  49.1223831 186.0863342   9.7928638
  48.9654655 187.1165161  10.1125498  49.2934494 186.0767975   8.7164135
  50.3400383 185.4822998  10.4748068  51.2335892 185.6457825   9.8723650
  50.5161629 186.0098877  11.9391861  50.2908936 185.2821350  12.8884773
  50.9181786 187.2960815  12.0397892  51.0357819 187.8067474  11.1763668
  51.2076912 188.0353699  13.2885294  52.0419426 187.6161499  13.8510103
  51.5561485 189.4881592  12.9136972  52.5200844 189.6590576  12.4344034
  50.8115005 189.9329376  12.2535686  51.6388397 190.3721619  14.0186911
  51.2119904 191.2095795  13.8234406  49.8874702 187.9901123  14.1479397
  48.7849579 188.1382599  13.6639767  50.0170288 187.6632385  15.4599142
  50.8994293 187.7642517  15.9408188  48.8546410 187.3656616  16.2575512
  48.3654594 186.4707794  15.8728561  49.2276764 187.2160034  17.7491474
  48.3659325 187.4303741  18.3812370  49.8157997 185.8053894  18.1459064
  50.4311981 185.4725952  17.3100681  50.3801994 185.7962036  19.0783615
  48.9925079 185.0912018  18.1608086  50.2449417 188.1658783  17.9816113
  49.8351746 188.9868774  18.2638187  47.8115883 188.5424500  16.3057232
  46.6156807 188.3339539  16.4551754  48.3137474 189.7624664  16.1131878
  49.2883606 189.8676910  15.8699551  47.5312576 190.9393311  16.3021507
  46.7255707 190.7986145  17.0226822  48.3792305 192.1130066  16.8268299
  49.1979713 192.2188110  16.1150913  47.8337173 193.0549164  16.7692013
  49.0388412 191.9988251  18.1523018  49.2838440 190.9470367  18.2999306
  49.9615250 192.5791321  18.1511459  48.1545830 192.3431396  19.7319279
  47.1210938 190.8396149  19.9597034  47.7071648 189.9283142  20.0787125
  46.5113335 190.9830780  20.8517303  46.4294014 190.7172394  19.1262264
  46.8348732 191.3599701  14.9536734  45.9455490 192.2452698  14.9771547
  47.2091141 190.8055267  13.7570200  47.9819641 190.1637268  13.6526136
  46.6605644 191.2122498  12.4020605  46.6470757 192.3021088  12.3906517
  47.5311890 190.8097382  11.2226486  47.1808052 191.4185028  10.3891487
  48.5715904 191.0825958  11.3993149  47.4099579 189.4331055  10.7170496
  47.9186707 189.1988220   9.9373560  45.1365166 190.8675537  12.1839247
  44.4934311 191.4385681  11.3095503  44.5444603 189.9888916  12.9853153
  45.1822090 189.5505981  13.6343708  43.0981636 189.7321777  13.2167892
  42.5996132 189.9671021  12.2763815  42.8662567 188.2616882  13.5468807
  43.6369286 188.0990753  14.3003511  41.9015045 188.0237579  13.9949312
  42.9473991 187.5684509  12.7096548  42.4081154 190.7333527  14.2045488
  41.2262535 190.6299896  14.4713755  43.2139244 191.6716461  14.7483892
  44.1871834 191.6106262  14.4854279  42.6425056 192.6358337  15.7509260
  41.5849609 192.7102661  15.4976387  42.6779366 192.0267181  17.2085056
  42.7154884 190.9439392  17.0889244  43.8126640 192.4482880  18.0519257
  43.7712593 193.5309296  18.1713943  43.6935272 192.0281525  19.0506210
  44.7277298 192.1178589  17.5604172  41.3515816 192.4119720  17.9575367
  40.4535713 192.1195068  17.4133453  41.1965294 191.9588776  18.9367008
  41.4562225 193.4579163  18.2459202  43.0847092 194.0886688  15.6585455
  42.1988449 194.9187012  15.9342670  44.3575974 194.4075165  15.3024731
  45.0451546 193.6739655  15.2062397  44.8092995 195.8176727  15.0902615
  44.3848038 196.4770203  15.8473301  46.3507118 195.8710327  15.3448277
  46.6111565 196.9279633  15.4011259  46.4887505 195.5709686  16.3835793
  47.2360802 195.1555939  14.2860842  47.4730530 194.1794586  14.7092915
  46.6787529 195.0500488  13.3553057  48.5711823 195.7787933  14.1209822
  49.1175423 196.3590698  15.0337515  49.2793388 195.4923248  13.0649233
  50.2208672 195.8286438  12.9216928  48.8455734 194.8791351  12.3896799
  44.4241295 196.4469299  13.7794247  45.2061539 197.1485748  13.1507034
  43.2033272 196.2206421  13.3631554  42.6385918 195.5970764  13.9220333
  42.5999641 196.7982941  12.2060499  43.3734055 196.7840424  11.4381390
  41.3860054 195.9542847  11.6673317  40.5418205 195.9455109  12.3568039
  41.0183945 196.5158844  10.8085184  41.7678413 194.4987030  11.2153883
  42.7470932 194.4161072  10.7438536  41.8204384 193.5505981  12.4147902
  41.0781631 193.8436432  13.1572561  41.6604576 192.5279388  12.0731974
  42.8705673 193.5063629  12.7035370  40.7198715 193.8294983  10.3335342
  40.5948906 194.2789764   9.3484201  40.9266396 192.7823486  10.1125946
  39.7491570 193.8206024  10.8292456  42.2691460 198.2919159  12.4739666
  41.0943260 198.6983643  12.4497614  43.2551956 199.1172485  12.7467260
  44.2050896 198.8170471  12.5803661  43.0221367 200.5697174  12.9629269
  42.2835541 200.8709106  12.2200413  42.5026054 200.8261719  14.3885040
  42.1196518 201.8407898  14.4979811  41.5965500 200.2231293  14.4477167
  43.5818672 200.3949127  15.5289478  44.2994499 199.7072296  15.0814104
  44.1936798 201.2496185  15.8174868  42.9750710 199.6828003  16.7651215
  43.0108833 198.4443817  16.9003258  42.3862419 200.4286957  17.6139355
  41.9220200 199.9208069  18.3532887  42.4569931 201.4328461  17.5315495
  44.2558479 201.3524933  12.5048809  45.2350121 200.8442383  12.0245905
  44.2195854 202.6765900  12.7348108  43.4210167 203.0286713  13.2431641
  45.3150978 203.5937958  12.3887939  45.5413971 203.3857880  11.3430290
  44.9683380 205.1065826  12.5070267  45.7958488 205.6700745  12.0759830
  44.1211319 205.4350891  11.9050102  44.8182602 205.4089813  13.9041243
  44.8003883 206.3548431  14.0673475  46.7017784 203.3202667  13.0506592
  47.7428131 203.7907562  12.5147123  46.8343735 202.5935211  14.1564312
  45.9736061 202.3235931  14.6106548  48.1334190 202.3214874  14.8155661
  48.8172340 203.1691284  14.7709064  47.8375740 201.9537964  16.2834053
  47.0048332 201.2528992  16.2253399  48.6580734 201.3374176  16.6507683
  47.6195335 203.1381073  17.3250484  48.4342461 203.8614044  17.3592339
  46.3534660 203.9379883  16.9977074  45.4871368 203.2793732  17.0594730
  46.0796585 204.6863251  17.7414303  46.4319496 204.4239960  16.0252209
  47.4983978 202.4914093  18.6894855  48.2766151 201.7401581  18.8240395
  47.5341415 203.1647034  19.5459251  46.5436058 201.9743805  18.7851944
  48.9762878 201.2248535  14.1150341  50.1256294 201.0768890  14.5118361
  48.4319725 200.4783630  13.1206474  47.5125999 200.7149353  12.7758570
  49.1082115 199.2361145  12.7001953  49.2806511 198.5888214  13.5600691
  48.1969719 198.4539948  11.7417374  48.6193657 197.4841156  11.4789982
  47.2821846 198.2380981  12.2937002  47.9003716 199.1367950  10.5220079
  46.9536438 199.1623688  10.3649969  50.5340080 199.4297638  12.1298456
  51.4214973 198.6479950  12.2354994  50.6674728 200.6052856  11.4210491
  49.8316650 201.1149750  11.1725731  51.9715385 201.1635284  10.9274263
  52.5392570 200.4245300  10.3620291  51.7564621 202.2922211   9.8499413
  52.7022591 202.5107880   9.3541594  51.0453339 201.9490509   9.0985222
  51.1599541 203.4971008  10.5555096  50.4216385 203.2316742  11.3121738
  52.0085144 204.0116882  11.0063372  50.4902153 204.4324951   9.5682230
  51.2400246 204.9767151   8.9940252  49.9917145 203.7761688   8.8549051
  49.4990463 205.2658081  10.2701254  48.7087708 204.7646027  10.6500635
  49.5830460 206.5454254  10.5607996  50.6499901 207.2093201  10.3459177
  51.5064163 206.7491302  10.0722818  50.5831184 208.2093964  10.4702873
  48.6520042 207.2133484  11.0607729  47.7221146 206.8404083  11.1885090
  48.9098587 208.0936890  11.4834080  52.9662285 201.6323700  11.9779882
  53.9823074 202.2621613  11.5666847  52.7782669 201.3723907  13.2671156
  51.9848671 200.8712616  13.6406078  53.8049316 201.6935425  14.2793379
  54.2322350 202.6656189  14.0332518  53.1309128 201.8799744  15.6395140
  52.4592896 201.0275574  15.7415104  53.8726501 201.8083801  16.4350014
  52.2424774 203.2010956  15.6017170  52.8847809 204.0377197  15.3267698
  51.4585075 203.2635040  14.8469915  51.6985207 203.6780243  16.9483700
  51.0049553 204.5003967  16.7729588  51.1411400 202.8493652  17.3851261
  52.7652664 204.0869141  17.8474178  53.5544281 204.5019684  17.3730240
  52.8823547 204.0190735  19.1653709  51.9746857 203.4676971  19.9128513
  51.1157837 203.2866058  19.4132576  52.0524979 203.3220520  20.9092617
  53.8915710 204.6243134  19.7314548  54.6195602 204.9784088  19.1275120
  53.9608765 204.5741577  20.7378254  55.0189285 200.6616211  14.2817068
  55.3770142 200.0860138  15.2731485  55.5160484 200.4125977  13.0567751
  55.2699318 201.1329041  12.3929291  56.3601074 199.2662506  12.5539389
  55.7732048 198.3603821  12.7057562  56.3482132 199.4619751  10.9571066
  55.3641472 199.7881165  10.6204262  57.0418243 200.2640686  10.7048101
  56.6195259 198.2469482  10.1109772  57.7550659 198.0605469   9.3905821
  57.5693283 196.9127960   8.7499132  58.2533798 196.4340668   8.0648575
  56.4088516 196.3317871   9.0919142  56.1882172 195.3881836   8.8072395
  55.7928619 197.1845551   9.9617939  54.8369141 197.0514526  10.4464111
  57.7065468 198.9178772  13.1667528  58.2697754 199.7341003  13.8579197
  58.1718292 197.6794739  12.9367838  57.6376266 197.0857849  12.3185196
  59.3569412 197.1863098  13.6073561  59.2360077 197.3676300  14.6753454
  59.4082642 195.6429138  13.3963394  60.4067612 195.3628693  13.7320137
  58.4200401 194.8593292  14.2463646  57.3893051 194.9703522  13.9096708
  58.7633286 193.8247986  14.2501411  58.4851227 195.0957184  15.3084354
  59.3138466 195.3454132  11.8840313  58.2606888 195.3401184  11.6030712
  59.7835236 196.1135712  11.2696638  59.9316673 194.0091705  11.4759398
  59.3737106 193.2225800  11.9839411  59.6807098 193.8063965  10.4347839
  61.0093575 193.9317780  11.6197939  60.6676750 197.8821106  13.1126986
  60.6286507 198.6951904  12.1419420  61.8269196 197.7595978  13.7755737
  62.4687500 198.4191589  13.3594646  62.5435600 196.7559204  14.6218500
  63.4426689 197.2623444  14.9728870  61.8256721 196.4802094  15.9344749
  60.9524155 195.8420563  15.7993050  62.5267410 195.8410492  16.4711990
  61.4688568 197.7320099  16.8080807  62.3644753 198.8350677  16.8748550
  63.2980614 198.7938385  16.3334522  62.0771828 199.9685516  17.5826988
  62.7583160 200.8063812  17.5605488  60.8780556 200.0342255  18.2991047
  60.6956062 200.9093475  18.9051189  60.0138512 198.9669189  18.4023209
  59.1090240 198.9305420  18.9908504  60.2822876 197.8709869  17.5592308
  59.5962753 197.0388031  17.5022354  63.1915894 195.6001740  13.8371525
  63.6869011 195.8556061  12.7670918  63.3539581 194.3767700  14.4114962
  62.3277016 193.5664520  15.0578833  61.3166237 193.6982727  14.6725903
  62.1162071 193.7289886  16.1147442  62.6338997 192.0449677  14.8571129
  62.1620064 191.6606445  13.9528399  62.2851181 191.4331512  15.6890574
  64.1741791 192.0924683  14.7600555  64.4679871 191.3771057  13.9919243
  64.5926590 191.8529968  15.7376204  64.5907516 193.5372620  14.3851833
  65.2536469 193.8752899  15.1816816  65.3550644 193.5016022  13.0396214
  64.7721863 193.1459503  12.0138416  66.6847839 193.7448578  12.9070749
  67.0157700 193.6801910  11.9550409  67.6285019 194.3313904  13.8530502
  68.5436172 194.4936829  13.2835569  67.9775467 193.2858734  14.9049759
  68.8514023 193.5874329  15.4825010  67.0701447 193.1130066  15.4836407
  68.3098145 192.0285034  14.3285770  69.1304626 192.1722870  13.8516378
  67.2692871 195.6648560  14.5091772  66.1508026 196.1832581  14.3482990
  68.1844330 196.2236786  15.3375063  69.0716629 195.7426147  15.2987003
  68.1447983 197.5495453  16.0278187  67.8254242 198.2455750  15.2521677
  67.0551224 197.4487305  17.0718937  66.2461929 196.8093719  16.7184200
  67.4144440 196.9426880  17.9679508  66.4914246 198.6937103  17.4485130
  66.9868698 199.0993042  18.1637936  69.4442520 198.1524963  16.6425152
  69.3883057 198.7150116  17.7371750  70.6409302 197.9532166  16.0511513
  71.3672409 198.4006348  16.5918713  71.2663193 197.2638702  14.9404736
  72.2716141 197.6757965  15.0287209  70.7376022 197.7848358  13.5704575
  69.7527313 197.3716278  13.3527775  70.7000504 198.8707581  13.4841461
  71.6292419 197.2388916  12.4306688  71.8022156 196.1782684  12.6130924
  71.0562286 197.2702484  11.5039701  73.0224609 197.9695282  12.3480749
  73.2609863 198.4818115  13.2801590  73.7555084 197.1875458  12.1499891
  73.1424866 199.0161285  11.2694330  72.2408295 199.6282196  11.2480164
  73.9276657 199.7001801  11.5914059  73.4247971 198.4468384   9.8991652
  72.8609009 197.6527863   9.6315832  73.2990112 199.1443481   9.1796103
  74.3920670 198.2128296   9.7267361  71.4584732 195.7581635  15.1588907
  70.6479492 194.9808807  14.6231308  72.5320969 195.3193970  15.8916159
  72.4496918 194.0612640  16.5750961  72.6681900 193.2296600  15.9051619
  71.4701233 194.0120697  17.0506268  73.4897461 193.9557343  17.6719437
  73.8420868 192.9562683  17.9269047  73.0961914 194.4997406  18.5305939
  74.5817032 194.7578735  16.9406967  75.2937546 195.2402496  17.6103249
  75.2280807 194.1298218  16.3276405  73.9013367 195.7994385  16.0580769
  74.3887405 195.7557373  15.0841007  74.1940994 197.2097168  16.6196728
  73.3842697 197.7630310  17.3644485  75.3391418 197.7811127  16.1347885
  75.8199387 197.0848389  15.5832996  76.1848373 198.9800262  16.4690285
  77.0241318 198.9558716  15.7739706  75.3843002 200.2306213  16.1892986
  74.9046173 200.0343933  15.2303925  74.5686493 200.3434296  16.9035072
  76.3182526 201.4927826  16.1545849  76.6673279 201.7466278  17.1554890
  77.1707687 201.3080597  15.5009842  75.5004501 202.7253418  15.6003389
  74.5666351 202.6898956  16.1614342  76.1307068 203.6122131  15.6662807
  75.2192688 202.5631409  14.1407719  76.0875626 202.0769348  13.6960745
  74.4056931 201.8428802  14.0546465  74.8596497 203.8242950  13.3601627
  75.5509567 204.5274200  13.5788345  74.7113953 203.6506042  12.3763161
  73.9799728 204.1719971  13.7142363  76.7893295 198.8908844  17.8919067
  77.9144363 199.3137970  18.0829449  76.1614304 198.1583099  18.8161259
  75.2473297 197.8461761  18.5209789  76.5660324 197.7966614  20.2510242
  77.1958771 198.5332794  20.7498131  75.2899857 197.8441925  21.1005707
  75.7060089 197.5233917  22.0556164  74.8121490 199.2875519  21.2165909
  74.4880219 199.6833649  20.2541084  74.0547867 199.4435730  21.9848156
  75.6388245 199.9341736  21.5108490  74.1227798 196.8999939  20.7478447
  74.5206070 195.9034882  20.5560093  73.3018723 196.8333130  21.4618225
  73.7153625 197.1472778  19.7675591  77.2663116 196.4900513  20.4409523
  77.8786621 196.2732391  21.4904995  77.2110367 195.5665894  19.4393044
  76.8110886 195.7962646  18.5407486  77.6906815 194.1706848  19.4962864
  77.6522141 193.7896118  18.4757938  79.2570038 194.0630493  19.8092995
  79.5013428 194.3833466  20.8221245  79.5674210 193.0214844  19.7263756
  80.2666702 194.5961609  18.8779888  81.2063065 195.5262604  19.1919231
  81.3909607 195.8191681  20.2149162  81.9155884 195.7590485  18.0075874
  82.7138138 196.3775940  17.9891891  81.5576553 194.9385223  16.9812145
  82.0138855 194.8142242  15.6364031  82.8033600 195.4671631  15.2946224
  81.4954910 193.8173065  14.8019104  81.8641586 193.7455139  13.7893248
  80.4323654 193.0249023  15.2771149  80.1711578 192.2306824  14.5934544
  80.0142441 193.2158966  16.6211243  79.2270813 192.6117249  17.0474529
  80.5284271 194.1806030  17.5073738  76.7769089 193.1993713  20.2622280
  75.5497055 193.2777252  20.0364094  77.3122330 192.3800201  21.1830730
  78.3176270 192.4720001  21.1540909  76.6786118 191.5385742  22.2110176
  77.5747986 191.1323090  22.6799641  75.8594284 190.3165436  21.6804447
  75.4936600 189.8437195  22.5919075  75.0875549 190.6222534  20.9741478
  76.7093124 189.3048553  20.9125156  76.0900650 188.6461639  20.3036175
  77.2325211 189.8354034  20.1169853  77.6768646 188.4206848  21.6544895
  78.3217545 188.7777710  22.6088390  77.8729782 187.1387177  21.3688641
  78.6428986 186.6181946  21.7642937  77.2290268 186.6714325  20.7467117
  75.9288254 192.3188324  23.3224564  75.2306213 193.2927399  23.0781651
  76.0678940 191.7568817  24.5680199  76.3213577 190.7795105  24.5922470
  75.9750137 192.3242188  25.9138527  75.6300201 191.5373077  26.5845642
  77.3704834 192.7567444  26.4742317  77.2326355 193.2511749  27.4358082
  77.9925690 191.8876801  26.6883526  78.1567612 193.7482300  25.6587582
  78.3919907 194.8763885  26.2166710  78.6737137 193.4363251  24.5493431
  75.0616226 193.5060577  26.0890217  75.3372040 194.5361023  25.5101738
  74.0821991 193.3810730  26.9422512  73.9480438 192.4583435  27.3304386
  73.2458572 194.3842010  27.6381626  72.4087601 193.8197327  28.0489407
  73.9923248 194.9465027  28.8886547  73.3493881 195.6606445  29.4031734
  74.1798706 194.1845551  29.6452045  75.3271713 195.7239227  28.6779785
  75.9518738 195.4696045  29.5342369  75.8748169 195.2668152  27.8538132
  75.2995377 197.2729950  28.4609985  74.3478241 197.6406403  28.8446293
  76.0349197 197.7981567  29.0705166  75.5143661 197.6745453  27.0473785
  74.7014694 197.8170471  26.4651451  76.6568527 198.0827332  26.5088654
  77.8244324 198.0065613  27.1171494  77.9336090 197.5914764  28.0314198
  78.7035065 198.0940247  26.6275806  76.6417618 198.5234985  25.2730808
  77.5385437 198.8873291  24.9841003  75.8369751 198.6568604  24.6775665
  72.5764542 195.3987274  26.6863804  72.2500000 195.0788879  25.5648003
  72.1306610 196.4862518  27.2874470  72.2083817 196.4888763  28.2944489
  71.3562469 197.6096649  26.7940941  71.2905960 198.2462921  27.6764202
  72.1395187 198.3381958  25.7080841  72.5191422 197.6600037  24.9438629
  71.4835434 199.0494232  25.2061310  73.0814438 198.7748260  26.0400982
  69.9088135 197.3335724  26.3956223  68.9708252 197.8197327  26.9381962
  69.6972122 196.5049286  25.3838997  70.4550095 196.0529938  24.8923645
  68.3528061 196.1772156  24.8041039  67.8494568 197.1295471  24.6373005
  68.5332947 195.5803528  23.4161625  67.5726852 195.4110260  22.9296799
  69.0643845 196.3744812  22.8913803  69.3252182 194.2305908  23.3340721
  68.8134003 193.0818329  23.9842300  67.9447327 193.1508942  24.6222324
  69.5714264 191.9282990  23.8730869  69.3203049 191.0533447  24.4543076
  70.7215729 191.8400421  22.9958439  71.1979599 190.8835602  22.8389854
  71.1700211 193.0175323  22.3925591  72.0702744 192.9540405  21.7993355
  70.5080566 194.2309723  22.5618095  70.8821106 195.1496277  22.1345596
  67.3225098 195.4029083  25.6598377  66.2618408 195.0063171  25.2504711
  67.6487885 195.2640381  26.9829636  68.5778046 195.5305023  27.2762871
  66.7360153 194.6625824  28.0170803  66.3930511 193.7491913  27.5310574
  67.4042892 194.2981262  29.3342915  67.3021240 195.1457062  30.0119858
  66.7961121 193.4672852  29.6919670  68.8741150 193.8692322  29.2931099
  69.0157242 193.0530243  30.0015125  69.0649796 193.4640045  28.2994003
  69.8758469 194.9326935  29.7290173  70.8763046 194.5000610  29.7314854
  69.8250732 195.8366089  29.1219997  69.7242050 195.3549194  31.1404037
  69.8220901 194.6349182  31.8419075  69.4116821 196.5498810  31.6965542
  69.1382446 197.6273193  31.0788441  69.0734482 197.5718536  30.0724506
  68.5044632 198.2106476  31.6062260  69.4226913 196.5581207  32.9904289
  69.5196152 195.7357483  33.5687103  69.2209396 197.3641510  33.5646362
  65.4782104 195.5571136  28.1436214  64.3854446 195.0323792  28.2607899
  65.6584396 196.8775940  28.2462502  66.6337967 197.1349792  28.2965469
  64.5995636 197.8195648  28.2965813  64.0354767 197.6218109  29.2080688
  65.1753387 199.2063141  28.3793583  65.8566742 199.3621979  27.5429497
  64.3372192 199.8968964  28.2857380  65.9434433 199.5287933  29.6500626
  65.2981415 199.2865448  30.4944592  66.8037109 198.8718262  29.7781982
  66.4314270 200.9621887  29.8544617  66.6338043 201.7004395  28.8970757
  66.6259918 201.4007416  31.1150627  66.9154816 202.3645172  31.2013054
  66.5318680 200.7702484  31.8984661  63.7564354 197.7379456  27.0621281
  62.4864998 197.7662659  27.0842533  64.3277664 197.4507294  25.8667278
  65.3375168 197.4718933  25.8750114  63.6962738 197.3580017  24.5785160
  62.9860992 198.1681061  24.4126797  64.7109528 197.6918030  23.5326328
  64.9396973 198.7568817  23.5698719  65.5909882 197.0761414  23.7186871
  64.2532196 197.3438873  22.1481552  63.6673126 198.1109314  21.2277832
  63.3751450 199.1179657  21.4864883  63.3263550 197.3344421  20.0870705
  62.8745804 197.7015228  19.2616920  63.8081512 196.1025085  20.1632748
  63.7285576 195.0134888  19.2888584  63.0772820 195.0754852  18.4295578
  64.3852234 193.8375244  19.5713787  64.3590698 193.0484161  18.8344803
  64.9994354 193.7006378  20.7748985  65.4741898 192.7510223  20.9730034
  65.0343399 194.7619019  21.7405567  65.5439606 194.6109619  22.6807232
  64.4622650 196.0296936  21.4573460  62.8752747 196.0702362  24.2857685
  61.8879089 196.1690979  23.5972881  63.2840424 194.9161072  24.8432808
  64.2110901 194.8804169  25.2425461  62.3612480 193.7733154  24.7654190
  62.1314430 193.5205078  23.7303486  62.9973831 192.5010071  25.3345375
  63.5098381 192.8123474  26.2447891  62.2832642 191.7439270  25.6585293
  63.8330498 191.8335266  24.3876114  65.1791687 191.9182892  24.2023735
  65.8709412 192.6126099  24.6559658  65.5207825 191.2062988  23.0857029
  66.4672775 191.1911926  22.7335510  64.4754181 190.6765442  22.4162388
  64.2727051 190.0556183  21.1727982  65.0122452 190.0190277  20.3865738
  62.9775772 189.6230011  20.8224087  62.7947235 189.2898865  19.8114700
  61.9406586 189.7361145  21.7017288  60.9522820 189.4923401  21.3410435
  62.1173019 190.3629608  22.9673347  61.2473259 190.4841003  23.5957184
  63.3856201 190.9015198  23.2907372  61.0406609 194.1354980  25.4048367
  60.0078278 193.8480530  24.8368835  60.9758072 194.8752136  26.5241642
  61.8545418 195.2709808  26.8263168  59.7196388 195.3139954  27.0478973
  59.0410500 194.4611206  27.0624065  59.7670288 195.8746490  28.5262547
  60.3771973 196.7711334  28.6363354  58.7582741 196.1078949  28.8670006
  60.4326630 194.8519897  29.5148907  59.9757309 193.8772430  29.3440628
  61.5132904 194.7760010  29.3941593  60.2720642 195.1919861  30.9977188
  59.2813759 195.8441162  31.4127598  61.0549812 194.5766296  31.8112602
  60.8224564 194.7710419  32.7747116  61.8128014 193.9774780  31.5165920
  59.0358734 196.3371124  26.1768589  57.8207512 196.2348022  26.1316071
  59.6943359 197.2422028  25.5027847  60.6883125 197.2457428  25.6819572
  59.1823997 198.2831116  24.6140442  58.3744583 198.8538513  25.0718498
  60.3192596 199.2583160  24.3503265  60.9118080 199.4366150  25.2476521
  60.9814072 198.6918640  23.6954975  59.8057289 200.5801697  23.6980877
  59.1622581 200.2984467  22.8646145  59.1020164 201.0746765  24.3676815
  60.9758759 201.4173889  23.1075363  61.6690254 201.7885284  23.8624496
  61.5355225 200.6853638  22.5252724  60.5737267 202.6449738  22.2211437
  61.3189201 202.7425385  21.4316711  59.5940475 202.4933472  21.7679996
  60.4944611 203.8696442  23.0376625  61.3915367 204.1462097  23.4103184
  60.2111168 204.6564331  22.4712772  59.8810730 203.8584595  23.8399963
  58.6620674 197.6642761  23.3140526  57.6032753 198.0621185  22.8480206
  59.2594261 196.5774841  22.7688541  60.1010323 196.2114258  23.1905117
  58.7359695 195.8607330  21.5695362  58.4914818 196.5246277  20.7403374
  59.8294334 194.8758545  21.1419926  60.7580261 195.3590088  20.8380547
  60.1757355 194.3020477  22.0015984  59.5764313 193.7741241  20.1008072
  59.5670357 194.1728058  18.7454491  59.8357735 195.1850433  18.4817066
  59.1801491 193.2235413  17.8061314  59.1883354 193.4252625  16.7451630
  58.6196213 191.9727936  18.1939373  58.0770035 191.1287079  17.2619228
  57.5938988 191.6072693  16.5842800  58.5790977 191.5812988  19.5595341
  58.0593452 190.6834412  19.8597126  59.1252747 192.4958954  20.4734573
  59.1247406 192.2334747  21.5210876  57.4877548 195.0363312  21.9905338
  56.5247803 195.1913757  21.2384167  57.4699402 194.3491516  23.1286545
  58.3334389 194.2661438  23.6459370  56.2221489 193.7871094  23.7695389
  55.7725868 193.0824127  23.0699749  56.6774101 192.9207764  24.9656181
  57.3662605 192.1554718  24.6080151  57.2791748 193.5492554  25.6221218
  55.5434799 192.2851410  25.8294773  54.7706337 193.0041046  26.1013317
  55.0576363 191.4644012  25.3018131  56.0899467 191.8508148  27.1941929
  56.6811943 190.8178711  27.3804111  55.8657265 192.6797791  28.2053032
  56.3050575 192.5374298  29.1035385  55.2271767 193.4501190  28.0677357
  55.1547356 194.8708649  24.0998192  54.0157089 194.5995941  23.6756687
  55.5406189 195.9902649  24.7018414  56.4970894 196.0289307  25.0239677
  54.5759583 197.0809479  25.0873280  53.8105888 196.5387115  25.6425743
  55.2376480 198.1468811  25.9626541  55.6301231 197.6830292  26.8675900
  56.0371857 198.5904694  25.3693008  54.3059502 199.3018646  26.3970356
  53.8880501 199.7539520  25.4975471  53.4791374 198.9192047  26.9954052
  55.0209541 200.3476868  27.2657795  55.4458199 199.8324738  28.1272583
  55.7547379 200.9091034  26.6874313  53.9192734 201.3131866  27.7068024
  53.5464668 201.8512268  26.8352299  53.1102982 200.8075714  28.2340641
  54.5067482 202.2966614  28.6104374  55.2114029 202.8424072  28.1353378
  53.6937714 202.7870178  28.9549847  54.9612427 201.9432220  29.4402676
  53.9787102 197.6723938  23.8253040  52.8293571 198.0474091  23.8857059
  54.6903496 197.7890625  22.6828327  55.6425591 197.4542389  22.7187672
  54.2618713 198.4705200  21.4090557  53.6396904 199.3177185  21.6975918
  55.5750084 199.0275726  20.7485046  55.9554787 199.7061157  21.5120010
  56.3371048 198.2699890  20.5658112  55.2150078 199.8471527  19.4717941
  54.6989899 199.1736450  18.7875233  54.6108208 200.6705017  19.8527813
  56.4165001 200.3954315  18.7460423  57.1336441 199.5768127  18.6853580
  56.0873528 200.6728363  17.7446404  57.0962524 201.5800018  19.3808155
  56.7575340 201.8324127  20.2982349  57.9317741 202.4302216  18.7384758
  58.3730316 202.0541382  17.5703259  58.0925980 201.2272949  17.0626163
  58.8021545 202.7361145  16.9613304  58.2345619 203.6246033  19.1643696
  57.8906212 203.9329529  20.0625496  58.9268837 204.1685181  18.6694527
  53.4159126 197.5712128  20.4775066  52.4205589 198.0919952  19.9202518
  53.8911171 196.3080444  20.3504753  54.7518578 196.0095520  20.7865162
  53.2192726 195.3035889  19.4753208  52.9833221 195.8115997  18.5402527
  54.2522163 194.2193756  19.0527210  55.0845985 194.7640991  18.6071644
  54.6047897 193.7001190  19.9438820  53.7121353 193.2900696  17.9856968
  52.8553162 192.7725830  18.4171715  53.3741875 193.7927094  17.0794773
  54.8746414 192.3453064  17.5060844  55.6865387 192.9668274  17.1284122
  55.2359924 192.0145874  18.4798126  54.5265999 191.1182861  16.6531658
  55.3526497 190.4120789  16.5694275  53.7664795 190.5094452  17.1426735
  53.9003754 191.5926514  15.3645678  54.5776062 192.1777649  14.8964796
  53.7400398 190.7678223  14.8041620  53.0257149 192.0805511  15.4950562
  51.9478989 194.7526093  20.0562077  50.9388161 194.8117523  19.3734951
  52.0348549 194.2873840  21.3158264  52.8908768 194.3591766  21.8470268
  50.8825798 193.6474915  21.9434643  50.2554932 193.2518158  21.1445236
  51.2860909 192.4351196  22.8590145  51.8251114 192.8461761  23.7125874
  50.3955612 191.8967743  23.1834087  52.2213593 191.5385437  22.0444260
  51.8049622 190.9485931  20.8386040  50.8415756 191.2449646  20.4507256
  52.7321281 190.1561127  20.1602211  52.4139442 189.6838226  19.2425594
  54.0349350 189.8531189  20.6564426  54.6693420 189.1734161  20.1069736
  54.4081802 190.4668121  21.8508625  55.4419556 190.3834534  22.1521149
  53.5279541 191.3057098  22.5202579  53.8630219 191.8117065  23.4136295
  50.0348740 194.6125946  22.7294922  49.2198143 194.1941681  23.4779606
  50.1088562 195.9014893  22.5223560  50.7586250 196.1598206  21.7935448
  49.2216339 196.9179840  23.1352444  49.3517265 196.8647461  24.2161427
  49.6984634 198.2816620  22.5930939  50.5973167 198.5092773  23.1661167
  49.9397240 198.2208557  21.5318680  48.7549744 199.4050446  22.7811966
  48.5921783 200.1651764  23.9520454  47.5573463 200.9785767  23.7232761
  47.1435051 201.7111816  24.4003582  46.9964447 200.7567902  22.4807549
  46.2971916 201.3359680  22.0383663  47.7458878 199.7385559  21.8857803
  47.5523720 199.2865448  20.9242001  47.7274399 196.6499023  22.8452568
  46.9100952 196.8008575  23.8275509  47.3642693 196.2433929  21.6252022
  48.1285210 196.1404877  20.9729481  46.0228233 195.8915558  21.1549416
  45.3059082 196.5758667  21.6086369  45.9861107 195.9729919  19.6417885
  46.7820549 195.3732605  19.2003155  45.0561790 195.5466003  19.2655964
  46.1116829 197.6761475  19.0027161  44.8616409 198.1448822  19.0535755
  45.5000343 194.5113068  21.6153049  44.3982887 194.0706177  21.3537884
  46.2363205 193.8635864  22.5048466  47.0102997 194.3978424  22.8731365
  45.7538223 192.7397308  23.3634930  45.4342003 191.8801270  22.7744007
  46.9744148 192.3578796  24.2566032  47.3038788 193.2177887  24.8397903
  46.7068634 191.6179352  25.0109215  47.7242546 191.9354553  23.5877209
  44.5089607 193.1928711  24.2019062  43.6084137 192.4012756  24.4584370
  44.3967667 194.4830627  24.5495300  44.9906158 195.1937408  24.1465645
  43.1788559 195.0290833  25.2173805  43.2830009 194.6647339  26.2393913
  43.1945801 196.5669403  25.2827606  42.2964668 196.8495026  25.8319931
  44.0972977 196.9223938  25.7796021  43.1253700 197.0496063  23.9473343
  43.1616211 198.0067444  24.0120506  41.8110046 194.5546417  24.6849041
  40.8874054 194.5732880  25.4728146  41.7167282 194.3649292  23.3651543
  42.5555611 194.4872742  22.8160725  40.4550552 194.0889740  22.7003441
  39.6302719 194.5699310  23.2261982  40.5396538 194.6204681  21.3007927
  41.1596107 193.9840393  20.6693459  39.5907669 194.5113983  20.7756081
  41.0478363 196.0158997  21.0413990  42.0969734 196.0231476  21.3369656
  40.9137421 196.4346008  19.5955811  39.8707542 196.3439331  19.2921524
  41.1862030 197.4808960  19.4572353  41.5596123 195.7319031  19.0691185
  40.1889801 197.0231018  21.7798347  40.4765472 196.8590088  22.8183346
  40.5365677 198.0270233  21.5360947  39.1180916 196.8617249  21.6563206
  40.0324326 192.5932007  22.8441830  38.8290672 192.2313538  22.8740196
  41.0173759 191.7344360  23.2231789  41.9609299 192.0682831  23.3586769
  40.8414612 190.3227081  23.6548634  39.8448257 189.9401398  23.4347439
  41.8572998 189.3122711  23.0285397  41.5335808 188.3060608  23.2947407
  41.9797401 189.3366852  21.5791950  42.3394699 190.3268890  21.2995396
  42.5987587 188.5550842  21.1387386  40.9916649 189.3017426  21.1202946
  43.0952492 189.4327393  23.6218166  43.7193451 188.8608856  23.1689587
  40.9156952 190.1862488  25.1932716  41.1154137 191.1704712  25.9391174
  40.6166992 188.9714355  25.7008686  40.5337029 188.1801605  25.0786934
  40.5225868 188.7116089  27.1346283  40.1991348 189.6550751  27.5743523
  39.3076477 187.8202057  27.4546375  39.1561127 187.7772064  28.5331974
  38.4043884 188.1658630  26.9519081  39.4818764 186.4418488  27.1002045
  38.5835495 186.1190796  27.2023678  41.8647919 188.3392029  27.8665466
  41.8297081 188.1776428  29.1184216  42.9143486 188.1941833  27.1262875
  42.7986374 188.3642578  26.1374588  44.2895432 187.8494110  27.5493126
  44.2242279 187.4456787  28.5596733  44.9650307 186.8411865  26.5280037
  45.0814667 187.2479706  25.5234756  45.9844437 186.7217560  26.8949280
  44.1583672 185.5516510  26.4855213  43.4399567 185.1253967  25.4354858
  43.3263817 185.6430817  24.4944744  42.8083344 183.9382019  25.7721710
  42.2614098 183.3895874  25.1240959  43.1114693 183.5202026  27.1025410
  42.8360519 182.3477478  27.8573914  42.1796913 181.5537872  27.5330200
  43.5514412 182.1273041  29.0305824  43.4072304 181.1581421  29.4848270
  44.4329376 183.1401062  29.5168934  44.9651909 182.9485168  30.4368935
  44.6545372 184.3498993  28.8242989  45.4127541 184.9757843  29.2712708
  44.0253334 184.5453644  27.5646362  45.1707726 189.1474457  27.5820904
  44.9722977 190.0742950  26.7248421  46.2824860 189.1411896  28.3674908
  46.5223846 188.1438904  29.4060001  46.6814423 187.1596375  28.9654846
  45.6887741 188.0543671  30.1025448  47.8236580 188.5145416  30.1341496
  48.7595901 188.1402893  29.7193470  47.6414261 188.2502899  31.1758118
  47.7217293 190.0221405  29.9937325  48.7226219 190.4306946  30.1330509
  47.0150375 190.3819885  30.7415295  47.2326851 190.2043304  28.5137424
  46.6348801 191.1080017  28.3949928  48.3346443 190.3583069  27.4478264
  48.6742439 189.3862000  26.7897778  49.0349388 191.5415039  27.3969479
  48.5650291 192.8313141  27.9343662  48.7412491 192.9320984  29.0052967
  47.5222549 193.0823059  27.7401237  49.3549576 193.9190674  27.3158398
  49.5817337 194.6261749  28.1137543  48.8165627 194.3669739  26.4806099
  50.5613632 193.2771149  26.6724377  51.3674927 193.2123108  27.4032269
  50.9069710 193.7630310  25.7599983  50.0615730 191.8243256  26.3424149
  49.6482811 191.7670898  25.3354340  51.1914101 190.7410583  26.2904110
  51.7542953 190.4500580  25.2417793  51.4968567 190.0934296  27.4107018
  51.1149902 190.5410614  28.2316170  52.5831947 189.1469421  27.5168095
  53.4057541 189.6241150  26.9840755  53.1345520 189.1124725  28.9959621
  53.8619576 188.3053741  29.0830307  53.7057419 190.0202637  29.1902714
  52.1661186 188.9736023  30.1698818  51.8160057 189.9597931  31.0758839
  52.1437683 190.9878998  31.0316486  50.9655838 189.4663391  31.9851856
  50.6543274 190.0296173  32.7636108  50.6944695 188.1081696  31.7525520
  49.8713760 187.1878357  32.3979225  49.2706261 187.5666809  33.2115440
  49.7336006 185.8964844  31.9185829  48.9595909 185.2835999  32.3564072
  50.5560150 185.4309540  30.8456993  50.5298767 184.4427032  30.4108524
  51.3748131 186.4276428  30.1603661  51.9780159 186.0985565  29.3271446
  51.4301910 187.7688141  30.5980721  52.3244133 187.7203369  26.9825954
  53.2951965 187.0020752  26.7727718  51.0307693 187.3110352  26.8541126
  50.2914314 187.9850922  26.9924679  50.6147003 185.9544220  26.4242229
  50.9694710 185.2345886  27.1618576  49.0705643 185.7953644  26.4164391
  48.6462059 185.9859772  27.4021816  48.6672821 186.5481567  25.7391109
  48.6937714 184.3661346  26.0340919  49.2337341 184.0993958  25.1255798
  48.9815025 183.3190918  27.1280022  48.2925491 183.4515839  27.9622021
  48.7259140 182.3037567  26.8249054  50.0036049 183.3421478  27.5059910
  47.2115326 184.2132111  25.6050549  46.8981895 185.0681458  25.0058842
  47.1978493 183.3726807  24.9112072  46.5941849 184.0795898  26.4933853
  51.2306290 185.7303009  25.0396194  51.9226723 184.8280640  24.7420120
  51.0427971 186.7115936  24.1752663  50.4803848 187.5169067  24.4103680
  51.4957619 186.5988312  22.7849064  51.1381569 185.6617279  22.3582439
  50.8626289 187.7732391  21.9936142  51.2783127 188.7372894  22.2867203
  51.1745796 187.5988770  20.9638634  49.3506088 187.7658081  22.0402908
  48.5947571 186.6744843  21.5026798  49.0396500 185.7884521  21.0744076
  47.1900711 186.5927734  21.7090168  46.6626892 185.7219086  21.3486290
  46.5520020 187.6076355  22.3822536  45.2387390 187.5081635  22.6887321
  44.7832184 186.8775787  22.1261921  47.3009720 188.7280884  22.8277779
  46.7846184 189.4943695  23.3868771  48.6486015 188.8263092  22.5977039
  49.1410789 189.6514282  23.0906906  53.0199738 186.5986938  22.6631794
  53.4742317 185.9279633  21.7452793  53.8132210 187.1782532  23.5620937
  53.3081169 187.6506958  24.2981377  55.3087082 186.9445801  23.6006222
  55.7168312 187.4944305  22.7525635  55.9906044 187.6357727  24.7860832
  55.6848755 187.2080536  25.7409058  57.0690155 187.4982910  24.7070904
  55.6039085 189.0570679  24.6950951  56.1550293 189.6459656  25.2157307
  55.7460556 185.4900665  23.6643829  56.8032227 185.1734467  23.1350517
  54.8290100 184.6562500  24.1712646  53.9433136 185.0547943  24.4484024
  54.8871727 183.2059631  24.2846565  55.9368858 182.9378967  24.4044189
  54.1529503 182.7135925  25.5781174  53.1041031 182.7403412  25.2826385
  54.3967247 181.6679993  25.7663002  54.4151459 183.4741058  26.8603783
  54.1870728 184.5142059  26.6273937  53.4990005 183.0454559  28.0086308
  53.6460571 182.0122223  28.3231430  53.6091347 183.7279968  28.8513088
  52.5184364 183.0728149  27.5333996  55.8550949 183.3327637  27.4150658
  56.4731407 183.9444427  26.7578259  56.0221024 183.5919952  28.4605350
  56.1751709 182.2933350  27.3426170  54.2609253 182.4527740  23.1339874
  54.2707901 181.1984558  23.1748161  53.7215424 183.1558838  22.1694965
  53.8321991 184.1584778  22.2210579  53.2654800 182.5250244  20.9256458
  53.6855431 181.5198822  20.8892212  51.7139587 182.4113770  20.9938316
  51.1517982 183.3228455  21.1970634  51.3713989 182.1150665  20.0023937
  51.2321205 181.2410126  21.8084183  50.8528290 181.5069427  23.1027470
  50.9641495 182.5148773  23.4743252  50.2798080 180.5227966  23.9152489
  49.9913521 180.6830597  24.9435997  49.9107399 179.2786560  23.3819637
  49.3001976 178.2756653  24.1361732  49.5063744 178.4175568  25.0629749
  50.4272690 178.8925323  22.0925426  50.1629372 177.9429474  21.6511707
  50.9931374 179.9218292  21.2786388  51.2124023 179.6732483  20.2507629
  53.9034729 183.2156830  19.6276684  53.7116280 182.6593475  18.5733147
  54.6703033 184.3055420  19.7781010  54.6826668 184.6631622  20.7225857
  55.3322754 185.0314941  18.7391815  54.7271538 185.1556244  17.8411179
  55.5041542 186.4650116  19.3261242  54.5319290 186.9575043  19.3442688
  55.8294296 186.3408508  20.3590240  56.5703545 187.1319885  18.4472218
  56.4032784 187.0937042  17.1833725  57.5355148 187.6475067  19.0546093
  56.5827065 184.3221436  18.2786636  57.4614830 183.9554291  19.0629578
  56.7147827 184.1851654  16.9060574  55.9743156 184.4242096  16.2621136
  57.8240318 183.3888702  16.4000282  57.8696327 182.4399567  16.9344425
  57.7183304 183.1034088  14.8904352  57.7461472 183.9380493  14.1899347
  58.5169907 182.4286194  14.5823994  56.8501892 182.4605713  14.7448654
  59.1850319 184.0678711  16.5896339  60.1936798 183.4587555  16.9259796
  59.2250443 185.4454346  16.4938412  58.3715973 185.9300690  16.2553768
  60.4558907 186.2333374  16.6964207  61.2513161 185.9251251  16.0178928
  60.1630707 187.6500702  16.3140583  59.3255081 188.0685730  16.8721275
  60.9933205 188.2373962  16.7062931  60.0094223 188.0155640  14.8096800
  59.0005836 187.8003998  14.4574652  60.0294495 189.0977936  14.6812792
  61.0285416 187.2913818  13.9097862  62.2772255 187.3937683  14.0719614
  60.5286636 186.5098572  13.0168886  60.9255905 186.2013550  18.1771030
  62.0997047 186.0020142  18.4745636  60.0197754 186.2510376  19.1946049
  59.0475235 186.4687805  19.0290375  60.4309349 186.1865387  20.6504326
  61.2758446 186.8585358  20.8009529  59.3083954 186.6120300  21.6101494
  58.4248390 185.9880066  21.4758778  59.6804276 186.6112061  23.1086140
  60.4185219 187.3878632  23.3089180  58.8705482 186.7934418  23.8150043
  60.0498238 185.6436310  23.4483662  58.9198227 187.9374237  21.2019539
  58.2409248 187.8159485  20.5341663  60.8242111 184.7251129  20.9671383
  61.7672615 184.4035492  21.6061459  60.0183907 183.7882996  20.4142914
  59.2928543 184.0309448  19.7548847  60.3377228 182.3236084  20.5710430
  60.3872147 181.9956665  21.6093597  59.2421341 181.4392395  19.9270935
  59.1145973 181.8070374  18.9089775  59.6186790 180.4179840  19.9850101
  57.8839684 181.4714813  20.6480350  57.5851593 182.4945984  20.8761673
  56.8304100 180.7944031  19.7267265  57.1109200 179.7754669  19.4598846
  55.9067612 180.8122406  20.3052197  56.5840645 181.3231812  18.8059597
  57.9126854 180.5297546  21.8922462  58.4619560 181.0134583  22.6999760
  56.9086838 180.2628632  22.2221565  58.4690056 179.6080780  21.7215977
  61.7632866 181.9695892  20.0143414  62.4748039 181.1506042  20.6093445
  62.1476822 182.4528656  18.8543682  61.4736824 183.0328522  18.3753605
  63.5064392 182.3324890  18.2555790  63.7143669 181.2677917  18.1493931
  63.6958008 183.0373383  16.9492168  63.2178955 184.0169220  16.9377022
  64.7556152 183.1972351  16.7509232  63.2089996 182.1242676  15.8534756
  63.8876038 181.2766571  15.7577295  62.2203445 181.7330322  16.0934849
  63.1071205 182.9755707  14.2754984  64.8881607 183.2287140  13.9419651
  65.4323196 182.2870178  13.8699160  65.0813904 183.7509613  13.0049324
  65.3204041 183.8939362  14.6894608  64.5554886 182.8926392  19.2534752
  65.5638428 182.2425842  19.4535484  64.3278732 184.1292114  19.7814617
  63.4271545 184.5839081  19.7361279  65.3233871 184.7263184  20.6767025
  66.2658768 184.7104034  20.1293774  64.9785538 186.1648560  20.8797836
  64.4839249 186.5292969  19.9794331  64.2418518 186.1610870  21.6831264
  66.1660919 187.1243439  21.3423233  65.8423615 188.0909576  21.7282829
  66.5842133 186.6241302  22.2158527  67.2700195 187.2563019  20.2718220
  66.9290085 187.2859497  19.0656490  68.4794464 187.3842773  20.6222725
  65.5366592 184.0389862  22.0309601  66.6362000 184.0889893  22.6082878
  64.4736633 183.4078827  22.5779667  63.5373955 183.5412750  22.2234097
  64.6692734 182.5883026  23.7637043  65.0902710 183.1125488  24.6216221
  63.3016548 182.1449585  24.2372131  62.7215843 181.7430573  23.4064960
  63.3572426 181.5166473  25.1261673  62.4569473 183.2765808  24.8332367
  62.9489403 183.8142395  25.6437759  62.3168449 183.9977112  24.0279732
  61.1247749 182.7058105  25.3500347  60.5377045 183.5381012  25.7382736
  60.5924911 182.3847198  24.4546661  61.2518997 181.6760101  26.3824368
  62.1381721 181.4640045  26.8179569  60.2138939 181.1759186  27.0640411
  58.9929581 181.2852020  26.6577187  58.8996429 181.7391205  25.7603073
  58.2181358 180.9913177  27.2351227  60.3746643 180.6443024  28.2163486
  61.2753487 180.7760162  28.6539764  59.5676918 180.4609070  28.7953701
  65.6068420 181.3910980  23.4880352  66.4339142 180.9870453  24.3105679
  65.5016479 180.7932434  22.2803783  64.6661530 180.9239655  21.7281418
  66.4107056 179.7443390  21.8569756  66.4981384 179.0172272  22.6643009
  65.7627106 178.9534302  20.6803474  65.6163101 179.5698242  19.7933731
  66.6463242 177.7747650  20.2481003  66.9136505 177.1387787  21.0919914
  66.0643616 177.1898499  19.5358524  67.5267715 178.1040344  19.6962852
  64.3590927 178.2723999  20.9598217  63.6198959 179.0600891  21.1055260
  64.0848083 177.7403259  20.0489140  64.4623642 177.6532288  21.8509216
  67.8978043 180.1885681  21.6214218  68.8505325 179.5605316  22.1169243
  68.0551682 181.3847351  21.0079308  67.2058182 181.8372498  20.7014542
  69.3557358 182.0985107  20.8777809  69.9642258 181.3635254  20.3508625
  69.2446365 183.3807526  20.1058788  68.4110947 183.9423523  20.5276699
  70.1813126 183.9166412  20.2594070  69.0156708 183.1887817  18.6228600
  69.7524567 182.4877472  18.2306957  67.9773560 182.8860474  18.4873734
  69.2034836 184.6286011  18.1396217  68.7798615 185.3730164  18.8137875
  70.2683258 184.8544922  18.0831852  68.5671310 184.8105774  16.7536812
  69.0821075 184.0898132  16.1185322  67.4915161 184.6383209  16.7152805
  68.8701553 186.1668243  16.1397724  69.7884140 186.5443573  16.3251667
  68.7451248 186.1820679  15.1376581  68.3121719 186.9094849  16.5362549
  70.0732880 182.3671112  22.2353649  71.2818451 182.2045746  22.3529606
  69.4015350 182.8401184  23.2491951  68.5937119 183.3881836  22.9900837
  69.9159775 182.9449005  24.6279984  70.8697815 183.4716339  24.5976925
  68.9247513 183.8485260  25.4477768  68.5134735 184.5741577  24.7460518
  68.1100159 183.2050629  25.7798271  69.6733932 184.5964050  26.5634155
  69.9993820 183.8368530  27.2739925  70.4619904 185.1680298  26.0740795
  68.7440033 185.5800018  27.2945690  69.3364334 185.9483185  28.1321087
  68.5200500 186.4236298  26.6417084  67.5196152 184.8685913  27.8456860
  67.6992950 183.9655304  28.2607765  66.3293152 185.3510437  27.9517784
  66.0408478 186.6294250  27.7309933  66.7580414 187.3020325  27.5000763
  65.1006317 186.9481659  27.9167347  65.2955322 184.5833588  28.3452873
  65.5250168 183.6443939  28.6381645  64.3860550 185.0188293  28.4028797
  70.3047791 181.6649628  25.3315697  71.0394516 181.6323700  26.2889481
  69.9729309 180.5371552  24.6683159  69.2319794 180.5170898  23.9822426
  70.5744324 179.2353516  24.8851223  71.1040421 179.2087708  25.8374348
  69.4877167 178.1337280  24.9413452  68.7472839 178.3846588  25.7008781
  69.0451202 177.9721222  23.9584389  70.0820847 176.7564697  25.3888798
  69.3267288 175.9749451  25.3067627  70.8640137 176.4786072  24.6821423
  70.6192169 176.7184753  26.8083248  69.8635101 176.6995544  27.7875061
  71.8802109 176.7277832  27.0503731  72.1646957 176.7156525  28.0194035
  72.5494385 176.5572968  26.3133755  71.7132797 178.9527283  23.8671780
  72.7875977 178.6333771  24.2774944  71.5145569 179.0310516  22.5473099
  70.5770493 179.1945648  22.2089882  72.5206451 178.6042328  21.5346279
  72.6964951 177.5374146  21.6727848  72.0730362 178.8027344  20.0268497
  71.8556900 179.8568420  19.8543816  72.8550720 178.5382385  19.3151169
  70.8318558 177.9887848  19.7667522  70.0498657 178.0933533  20.5188560
  70.2155991 178.3433838  18.4234982  70.8667297 178.3002319  17.5504169
  69.3593140 177.6996613  18.2222958  69.7207413 179.3145599  18.4171925
  71.0681915 176.4620209  19.6173553  71.4015198 175.9726410  20.5325031
  70.1304474 175.9594269  19.3804302  71.7413483 176.1874084  18.8052349
  73.8672333 179.3807983  21.7375832  74.8921585 178.7424927  21.5316944
  73.8194580 180.7010651  22.0700741  72.8939819 181.0975189  22.1502266
  75.0257874 181.5322113  22.3417168  75.6057663 181.4448242  21.4229736
  74.7052078 183.0156250  22.5103531  73.7435608 183.1060944  23.0154686
  75.4881439 183.4476624  23.1336231  74.5901489 183.8000488  21.2943668
  75.6563263 184.5278168  20.8033695  75.1776276 185.1309814  19.6582317
  75.7103806 185.8867035  19.1001549  73.8831329 184.7562866  19.4603405
  73.3297729 184.9748840  18.6441879  73.5078812 183.9205627  20.4698925
  72.5231857 183.5648956  20.7349796  75.9285812 180.9775391  23.4607582
  77.1771927 181.1519928  23.3413792  75.3791122 180.4300385  24.5400257
  74.3835907 180.3127747  24.6636982  76.1795197 179.7919464  25.5558987
  76.9378128 180.5271149  25.8254147  75.3790817 179.3168335  26.8044434
  74.5617981 178.6600189  26.5065365  76.0277710 178.8327484  27.5344868
  74.6368103 180.3687286  27.6318493  74.0818100 180.9628448  26.9058437
  73.9570236 179.8388672  28.2991161  75.5657349 181.2025909  28.5697403
  76.6005325 181.7542267  28.1163712  75.2000427 181.4869232  29.7154064
  76.8742142 178.5532074  24.9883118  78.0066833 178.2575684  25.3556023
  76.2436066 177.6958618  24.1944962  75.3138123 177.9210358  23.8706322
  76.9268646 176.5083618  23.5781918  77.5122757 176.0164032  24.3549633
  75.8576813 175.5064392  23.0640545  75.2092743 175.9875641  22.3318081
  76.3843689 174.7136230  22.5328751  74.9519958 174.8454895  24.1183453
  75.2704773 174.4853516  25.3885632  76.2005463 174.6592255  25.9092827
  74.1535110 173.8655853  25.9496212  74.2216721 173.3670197  26.8253441
  73.1673965 173.6503754  25.0472603  72.0342636 172.8464508  25.1040840
  71.7258148 172.2377319  25.9411736  71.2347565 172.7412262  23.9530792
  70.3803711 172.0807953  23.9695263  71.6428909 173.3583679  22.7229939
  71.0057526 173.2511292  21.8575745  72.8939209 174.0060272  22.7128143
  73.2354965 174.3426666  21.7451363  73.6367035 174.2735901  23.8999805
  77.8451767 176.9084778  22.4169083  78.5780716 176.0258484  21.9601536
  77.9365616 178.2046509  22.0386829  77.3509293 178.8101349  22.5959206
  78.7805023 178.7496948  20.9734364  79.6579742 178.1047821  20.9261303
  78.2146988 178.4859619  19.6196060  77.6792984 177.5371552  19.6541901
  77.5274887 179.2866974  19.3463192  79.3241272 178.4637909  18.5457363
  80.4622574 178.9437561  18.7623463  79.0651474 177.9305420  17.4505539
  79.3142700 180.1625366  21.1461086  78.9190750 181.0826416  20.4790897
  80.3121643 180.3038177  22.0086212  80.5445023 179.4773560  22.5406685
  81.0383301 181.4923096  22.5215588  80.2488098 182.0673065  23.0054359
  82.0886002 181.1731262  23.6170197  82.9242935 180.5780029  23.2488575
  82.5467072 182.1277924  23.8755836  81.5561829 180.5587616  24.9155235
  82.3131256 180.7959290  25.6631145  80.5794449 180.9649353  25.1783962
  81.4127274 178.9752655  24.9215870  81.0228119 178.4100952  23.8994846
  81.7996902 178.4127350  25.9733219  81.6353302 182.3592072  21.3716068
  82.1219482 183.4593048  21.5995140  81.6172943 181.8524017  20.1498737
  81.1185837 180.9778442  20.0690708  82.1235352 182.5312195  18.9810944
  82.2811127 183.5777435  19.2419796  83.4808197 181.9340210  18.5544796
  83.2333374 180.8932037  18.3457527  83.7918091 182.3962250  17.6175919
  84.4914093 181.9536743  19.6645775  84.5753250 180.9766235  20.3886738
  85.3679276 182.9403839  19.6872864  86.1607590 182.8424988  20.3052979
  85.3922195 183.6896057  19.0103951  81.0381775 182.6355438  17.8750153
  81.4147491 183.0122681  16.7333698  79.7781525 182.1995544  18.0279331
  79.6052246 181.7309113  18.9057560  78.7195358 182.4337463  17.0474815
  79.1981430 182.0791931  16.1346169  77.5785294 181.5464783  17.4258595
  77.9932709 180.5384674  17.4265823  77.2214127 181.8504944  18.4098034
  76.4539108 181.5089874  16.2741299  76.8998413 181.7661133  15.3133287
  75.7836456 180.1329041  16.1180820  75.0402069 179.9439087  16.8924770
  75.1990280 180.1548157  15.1983833  76.5711975 179.3793640  16.1115513
  75.3236237 182.3992920  16.6226826  75.5945740 183.4519501  16.5414314
  74.5315170 182.1489868  15.9169827  74.8795547 182.2535400  17.6073952
  78.3879776 183.9148560  16.8179588  78.0622864 184.6718445  17.7228374
  78.3004990 184.2997894  15.5359459  78.6556091 183.6636658  14.8364220
  77.6094131 185.4611816  14.9330673  77.4382858 186.2287750  15.6877956
  78.5198593 186.1670074  13.9235916  78.9715424 185.3790894  13.3208771
  77.8738861 186.7695312  13.2850094  79.5491791 187.0405273  14.6112375
  78.9746552 187.8176727  15.1152811  80.0465240 186.5587463  15.4530506
  80.5259247 187.6410980  13.6195364  81.2277756 188.2989655  14.1321058
  81.0793610 186.7917786  13.2189846  80.0099640 188.3347168  12.3369379
  80.8831406 188.6273041  11.7537956  79.5207596 187.5545502  11.7537565
  79.1036911 189.4754486  12.5509319  79.5532227 190.3469391  12.7928448
  78.5298004 189.6341095  11.7351046  78.4866867 189.3261719  13.3365011
  76.3114243 185.0786896  14.2675295  76.1931763 183.9730988  13.6935291
  75.3399200 185.9618530  14.3112803  75.4694595 186.8632812  14.7480154
  73.9585953 185.7689972  13.7798071  73.6291275 184.8246155  14.2130661
  72.9622803 186.7358551  14.4361830  73.4341812 187.7183228  14.4234114
  72.0366364 186.8142090  13.8659811  72.5584564 186.4200439  15.9340649
  73.2596359 185.5898132  16.5413799  71.4891281 186.9327698  16.4019756
  73.8465042 185.6778717  12.2742414  72.7121429 185.4190063  11.8425789
  74.9745941 185.8173523  11.5547094  75.8313065 186.0307007  12.0452518
  75.0400543 185.5824280  10.1218243  74.2345428 186.1003876   9.6012897
  76.3636856 186.1236420   9.5317736  77.0411072 185.2726135   9.6020403
  76.2474136 186.2575836   8.4563007  77.0236740 187.3429565  10.1801558
  77.3949661 187.1954346  11.1942978  77.9749451 187.5443420   9.6875858
  76.2345123 188.6781158  10.0649862  75.4241028 188.8315582   9.1085215
  76.3418121 189.5194092  10.9831200  74.8698959 184.0760498   9.6734056
  74.4242096 183.7699127   8.5734768  75.1860199 183.0907898  10.5571079
  75.6619034 183.2820587  11.4271917  75.1633072 181.6325989  10.2587881
  75.3663712 181.4267120   9.2078466  76.1997147 180.9115601  11.1181078
  76.5037231 179.9381866  10.7331276  77.1504822 181.4445801  11.1107483
  75.7724838 180.7979279  12.4520473  76.1713409 180.0465393  12.8969288
  73.7650604 180.9895172  10.5245056  73.5146408 179.9870911   9.8543453
  72.9777145 181.4442444  11.4411926  73.2675247 182.2430267  11.9871426
  71.6398163 180.9188690  11.6446180  71.5277939 179.8388672  11.5490332
  71.3063049 181.2926331  13.0802708  71.3735046 182.3798218  13.0402956
  70.2705536 181.0685272  13.3354359  72.2305374 180.7107086  14.1791811
  73.2552719 181.0016022  13.9481144  71.8358994 181.2305145  15.6315603
  70.8178787 180.8717651  15.7832928  72.5237122 180.9053650  16.4121323
  71.7159576 182.3138275  15.6438379  72.0522232 179.2031860  14.2640257
  72.2129517 178.8269653  13.2537155  72.8664474 178.8384094  14.8901987
  71.0945740 178.8711548  14.6649837  70.6107483 181.5399628  10.6321774
  70.7923508 182.6881714  10.2172518  69.5370407 180.7962646  10.2597694
  69.3905258 179.3614960  10.4094496  69.0756378 179.1405792  11.4293270
  70.3515091 178.9189301  10.1472425  68.3468704 179.0099182   9.3391924
  67.8333511 178.0850983   9.6020575  68.8286057 178.9331360   8.3644428
  67.4030838 180.2263489   9.3928452  66.7193298 180.2338257  10.2416821
  66.8276520 180.1740570   8.4685926  68.4354248 181.3452148   9.4836702
  68.7295227 181.6791992   8.4886522  67.7789459 182.6322632  10.1345243
  67.4408646 182.6215057  11.3085022  67.5015793 183.7001648   9.3675728
  67.8765564 183.8193970   8.4373713  66.4571381 184.7106781   9.7432833
  66.6891022 185.0852966  10.7402620  66.4796906 185.9305725   8.8262138
  65.5848236 186.5214081   9.0217352  67.7109146 186.7485199   9.2194080
  68.6731110 186.2520294   9.0938377  67.8395081 187.6476593   8.6168194
  67.6618881 187.1432648  10.2342377  66.6003799 185.5970001   7.4398551
  66.4530869 186.4343414   6.9940314  65.0247574 184.1811676   9.8190603
  64.1580658 184.6532135  10.5824242  64.6974106 183.0556946   9.1616316
  65.3044891 182.5705414   8.5165005  63.3517876 182.5255127   9.0305147
  62.6659470 183.3726349   9.0416203  63.2705650 181.9136810   7.5652127
  63.7734756 182.5394897   6.8279614  63.8473320 180.9934082   7.6575937
  61.8544846 181.7920380   7.1110158  61.1840172 182.7717133   7.0674262
  61.4486732 180.5317993   6.7207184  60.5433388 180.4536438   6.2798557
  62.0755539 179.7428436   6.6524215  63.0384483 181.5003815  10.1386862
  63.8915596 180.6072388  10.2807932  61.8675385 181.5127869  10.8697062
  60.7131004 182.4367676  10.6737671  60.4839745 182.5331726   9.6124897
  60.9891434 183.4195862  11.0558233  59.5392952 181.8355255  11.4605074
  58.8739471 181.1761627  10.9031391  58.9271431 182.6605682  11.8247318
  60.2298508 181.1128235  12.5987120  59.5436096 180.4073639  13.0672245
  60.4970207 181.7938080  13.4067907  61.5439186 180.5812225  11.9502525
  62.3466682 180.5788422  12.6876020  61.4051018 179.1137695  11.4798555
  61.9513130 178.2271271  12.1805391  60.8883781 178.8598938  10.2665272
  60.5340767 179.6014709   9.6794720  60.6450119 177.4377289   9.7732687
  60.0603485 176.9463654  10.5509806  59.8747406 177.4929199   8.4400702
  60.4789124 178.1092834   7.7743688  59.8817863 176.1542664   7.6741929
  59.4310608 175.4207916   8.3427677  59.3827095 176.0387573   6.7120690
  60.9214478 175.8867645   7.4853883  58.4539528 177.9522247   8.6949463
  57.7965927 177.3224487   8.0954800  58.2408066 177.8215790   9.7558908
  58.2034073 179.3624878   8.1316662  58.3328896 179.3901215   7.0497355
  57.1485825 179.6268768   8.2061329  58.7680969 180.1467133   8.6358671
  61.9785385 176.7235718   9.7284527  62.1765594 175.8104095  10.4673719
  62.9547005 177.3746185   9.1116400  62.7525406 178.1841736   8.5425673
  64.2780304 176.8054504   9.0114431  64.2005463 175.7686615   8.6840591
  65.0884399 177.5296936   7.9059896  65.1936798 178.5467682   8.2835979
  66.1047363 177.1505280   7.7989373  64.3088760 177.7441864   6.5773168
  63.5048943 178.6629028   6.4849520  64.7489166 177.0635376   5.5692048
  65.1205978 176.8228149  10.2988024  65.8792725 175.8660431  10.5065804
  64.9520035 177.8014679  11.1863842  64.4290009 178.6117249  10.8863068
  65.4985809 177.9128113  12.5392780  66.5771866 177.8429260  12.3984976
  65.2076035 179.3015900  13.1404123  65.4653397 180.0226135  12.3646564
  64.1376114 179.5086670  13.1584349  65.8260117 179.6626129  14.4780960
  65.3212662 179.0326691  15.6086302  64.4726334 178.3729401  15.5037374
  65.8892593 179.2721863  16.9054947  65.4802246 178.8279724  17.8009148
  67.0197525 180.1579895  17.0353127  67.5178299 180.2879181  17.9847527
  67.5503616 180.7121735  15.8494301  68.4821320 181.2478790  15.9554605
  67.0428009 180.3806915  14.5976543  67.5976868 180.7705231  13.7570982
  65.1286850 176.7617493  13.4449024  65.9503021 176.0793610  14.0629492
  63.8122711 176.4176941  13.4454441  63.0921936 176.9178467  12.9440050
  63.2928505 175.3569946  14.2677956  63.8992653 175.4952240  15.1629219
  61.8235359 175.5545044  14.6219349  61.6040802 174.8043365  15.3816681
  61.6865044 176.5826263  14.9570131  61.0148354 175.3622437  13.4363871
  61.1181374 176.1757355  12.9372339  63.6033974 174.0153351  13.6497259
  63.7633476 173.0657349  14.3872223  63.7279358 173.9523315  12.2991734
  63.3839035 174.7219391  11.7428923  64.2343063 172.7497101  11.6131458
  63.7040749 171.9113922  12.0650358  63.9293823 172.7997589  10.1394730
  64.2732697 173.7596893   9.7542801  64.6310654 172.0693207   9.7367439
  62.5343895 172.3933563   9.7095766  61.8454514 171.2794189  10.3248281
  62.3138657 170.6604767  11.0757589  60.6527367 170.8822174   9.7928410
  60.1088257 170.0337372  10.1809616  60.0851860 171.5984192   8.7237215
  58.8025932 171.2048798   8.2412767  58.4838028 171.7803345   7.5421286
  60.6939774 172.7588196   8.1587286  60.1570091 173.3117981   7.4022331
  61.9161606 173.1161499   8.6954260  62.4479790 173.9835663   8.3332710
  65.7355652 172.5570984  11.9521427  66.1022949 171.4067841  12.2791195
  66.6107559 173.5338745  12.0818014  66.2242584 174.4472046  11.8906288
  67.9989700 173.4082031  12.4969158  68.4474411 172.6076813  11.9085655
  68.6630096 174.7558594  12.3208437  68.5461578 175.1172333  11.2991486
  68.1853104 175.4819489  12.9786406  70.1154175 174.7918701  12.7017841
  70.4406281 175.8299255  12.6326208  70.2881851 174.4145508  13.7096920
  70.8775635 173.9957581  11.6619635  71.9199142 173.8870697  11.9616032
  70.4096909 173.0379028  11.4345999  70.9835281 174.8066711  10.4511805
  70.4995193 174.3748322   9.6770039  71.9886322 175.6403351  10.1056747
  72.9154205 176.0656891  11.0163918  72.9540329 175.7877655  11.9866323
  73.6835632 176.5989532  10.6346941  72.1095047 176.0399170   8.8846874
  71.6394653 175.4982452   8.1735249  72.7865906 176.7452393   8.6313467
  67.9929504 173.0081024  13.9974861  68.6475449 172.0583191  14.3972149
  67.2842102 173.6729431  14.8756351  66.7729340 174.4772491  14.5412998
  67.3009415 173.3175201  16.3018932  68.3092728 173.2993011  16.7154636
  66.4506683 174.2956085  17.1226940  65.5171051 174.4594269  16.5844364
  66.2665176 173.8546600  18.5793781  67.2517624 173.7084656  19.0221062
  65.6649246 174.6307373  19.0525551  65.7258224 172.9118195  18.6619720
  67.1691818 175.6754761  17.1777554  67.4192352 175.9720306  16.1591129
  66.5564804 176.4870148  17.5703144  68.1217117 175.6198425  17.7047100
  66.7432022 171.8736267  16.4868011  67.4066086 171.0675201  17.1740913
  65.6123657 171.4545135  15.8401480  65.1208954 172.1230469  15.2642794
  65.1163330 170.0726776  15.8336639  64.8653564 169.7161102  16.8326454
  63.8363838 170.0020599  14.9498911  64.0752869 170.4898834  14.0048742
  63.5990715 168.9471893  14.8120413  63.0074730 170.4952393  15.4576168
  66.1665344 169.0223541  15.3891916  66.2644424 167.9874268  16.0049744
  66.9917831 169.3012848  14.3585320  66.8812332 170.1754303  13.8648233
  68.0665665 168.4625092  13.8789330  67.6128159 167.5681610  13.4518852
  68.7413254 169.2198029  12.6752005  69.3387299 170.0953979  12.9292564
  69.4316483 168.5908508  12.1130791  67.9317169 169.4018402  11.9684525
  69.0650101 168.1790009  14.9934340  69.6073380 167.0465698  15.0828438
  69.5211029 169.1755676  15.7661829  68.9693985 170.0207214  15.7282343
  70.6981506 169.1806183  16.5859528  71.2754517 168.3270721  16.2305813
  71.5986252 170.3959656  16.2683907  72.5936279 170.2626343  16.6930027
  71.7419662 170.4516907  15.1892948  70.8682556 171.9343872  16.8096561
  69.8869781 171.9891510  15.9046707  70.4207993 168.8994293  18.0380688
  71.3475723 169.0693359  18.8020306  69.1140900 168.6285248  18.4068222
  68.4206314 168.6168976  17.6725998  68.6884308 168.3873596  19.8078785
  69.2298355 169.1352386  20.3872433  67.2166595 168.7177277  19.9274464
  66.7462387 168.6280518  18.9482822  66.7685547 168.0471802  20.6606979
  66.9462280 170.1630554  20.2960835  67.6089096 170.8121490  19.7236919
  65.4640579 170.5667877  20.1490059  64.8009720 169.9001617  20.7003956
  65.3732910 171.5308228  20.6495113  65.1436462 170.7227783  19.1189079
  67.4114151 170.4520874  21.7256737  68.4550095 170.2739563  21.9850407
  67.2566910 171.5245819  21.8437366  66.7170868 169.9941101  22.4301300
  68.8989563 166.9309082  20.3770523  68.4718018 165.9190216  19.7688770
  69.4523087 166.8253937  21.5696774  70.2032471 167.8018188  22.3415165
  69.5417938 168.4054718  22.9629517  70.6166611 168.4475861  21.5668201
  71.2626495 167.1158142  23.1945992  70.8513870 167.1130371  24.2040329
  72.1814728 167.6885986  23.0689373  71.2740860 165.6976013  22.6255341
  71.4615860 164.9194031  23.3653526  72.0472260 165.6461639  21.8589191
  69.9255829 165.5041809  21.9763775  70.1731949 164.8088074  21.1743469
  68.9747849 164.7175446  22.8905506  69.2692871 164.4137115  24.0797100
  67.7971954 164.4047546  22.3624821  67.7276459 164.5843506  21.3710136
  66.6943893 163.6741333  22.9718285  66.9765167 163.4817810  24.0069599
  65.4435425 164.5045776  22.8842773  64.6131668 163.8521271  23.1542397
  65.4364471 165.6501465  23.9136829  66.2975464 166.3004761  23.7598572
  64.4220810 166.0437317  23.8484516  65.6207123 165.2389374  24.9061832
  65.1705246 164.9776459  21.4380398  65.6497574 165.9463806  21.2966881
  65.5865173 164.2488556  20.7423935  63.7027740 165.1537018  21.1412201
  63.2583656 165.6399231  22.0096645  63.4929695 165.7673645  20.2651424
  63.2255440 164.1786499  21.0431271  66.5332794 162.2952423  22.4040489
  67.1772385 161.8529510  21.4455242  65.6727219 161.5476532  23.0765934
  65.2252121 161.9980621  23.8620663  65.2659149 160.1812134  22.6902180
  66.1899033 159.6535645  22.4537544  64.7396469 159.4688110  24.0152283
  64.6009521 158.4207611  23.7498131  65.5883026 159.4709625  24.6992493
  63.5059280 160.0946808  24.6477509  63.6542320 160.8767395  25.6216736
  62.4171295 159.7024536  24.2191257  64.2585526 160.1501160  21.5453453
  63.5429878 161.1498718  21.2721844  64.3337860 159.0210571  20.8057079
  64.8656082 158.2492523  21.1819820  63.6388054 158.8450775  19.4919319
  63.8702583 159.7765961  18.9753933  64.0101700 157.6031036  18.6272717
  63.8545876 156.7371826  19.2707767  63.4538727 157.6504974  17.6911163
  65.4751968 157.5858307  18.2261009  66.0472031 158.6895752  18.0120525
  66.1552963 156.5422668  18.2129097  62.0495872 158.9542542  19.6242008
  61.3572998 159.4129333  18.7375183  61.4746628 158.5450592  20.7627411
  61.8941269 158.1826630  21.6070290  60.0380592 158.6024475  20.8807316
  59.6273994 158.2116699  19.9497318  59.5679474 157.7321777  22.0480270
  60.0371552 158.0107117  22.9916172  58.4850807 157.8057861  22.1484451
  59.7017059 156.6692352  21.8471909  59.6316376 160.1109314  21.1206226
  58.4555969 160.4103394  20.8285351  60.5154266 161.0589294  21.5581589
  61.4021759 160.6419525  21.8029060  60.4201813 162.5371552  21.7364826
  59.3628006 162.7762146  21.8500500  61.1664696 162.9119568  22.9729748
  60.8163490 162.2395020  23.7561264  62.2402534 162.7485809  22.8812981
  60.9356728 164.3742523  23.3908882  61.2330360 165.0827637  22.6177826
  59.5355949 164.6679688  23.8499126  59.1850357 163.9595184  24.6004562
  59.4645233 165.6806946  24.2466812  58.9406204 164.5913391  22.9398365
  61.8587646 164.6262665  24.5889320  62.8806763 164.3883820  24.2936363
  61.8291702 165.6844788  24.8485928  61.5063248 164.0163422  25.4207230
  60.7802925 163.2490845  20.4338188  60.0770950 164.2038422  20.1181030
  61.6354637 162.7011566  19.6021080  62.2050667 161.9240570  19.9050579
  61.8206291 163.1567993  18.1849213  61.9269867 164.2369843  18.0849133
  63.0942535 162.4766083  17.6336155  63.2015381 161.4600525  18.0120602
  63.0441208 162.4767151  16.5447693  64.2570343 163.4253387  17.9900265
  64.1851807 164.4095764  17.5271702  64.1270828 163.7060547  19.0352116
  65.6704788 162.8279724  17.8049278  66.3969650 163.4541779  18.3228016
  65.6746750 161.8130035  18.2023029  66.1058807 162.8727875  16.3797607
  65.8812103 161.9978790  15.9279194  66.9245148 163.7907867  15.8514986
  67.3723831 164.8387756  16.5093422  67.1696014 164.9678955  17.4903145
  67.8802414 165.5773468  16.0438404  67.2300644 163.6744385  14.6038170
  66.8319931 162.9796753  13.9882345  68.0319977 164.1997223  14.2858734
  60.6208878 162.9037323  17.2731285  60.3560524 163.8073273  16.4484272
  59.8443108 161.8553619  17.5206451  60.2058449 161.2210999  18.2185688
  58.5178032 161.6871490  16.9382000  58.6894341 161.7360992  15.8629122
  57.9190598 160.2519226  17.1268616  58.0670319 159.9358521  18.1594868
  56.3653336 160.3078766  17.0273590  56.1135941 160.6613617  16.0274715
  55.9636154 159.3022156  17.1513557  55.8781776 160.9096527  17.7945862
  58.4535789 159.3104095  16.0335732  57.8015823 159.2297974  15.1638012
  59.3260803 159.7475433  15.5480194  58.8149261 157.8975677  16.5268745
  57.9274483 157.3351135  16.8169384  59.2681541 157.3424988  15.7055407
  59.5758438 157.9155273  17.3071213  57.6134987 162.8706055  17.3598785
  57.0625267 163.5535583  16.5116386  57.5127144 163.1264038  18.6795330
  58.0613823 162.5911102  19.3372059  56.6094246 164.1802063  19.2104969
  55.6228142 163.8798370  18.8576927  56.6315689 164.3731842  20.7487717
  57.6182709 164.6889038  21.0876541  55.8861771 165.1130371  21.0405045
  56.2215958 163.0189972  21.4650269  56.8644333 162.2167664  21.1026783
  56.2849388 163.1440125  22.5459785  54.8000946 162.4907227  21.1275368
  53.7898216 163.1677246  21.1151791  54.6211357 161.1946716  20.8964138
  53.6489983 160.9300842  20.8253670  55.3810463 160.5298309  20.9215565
  57.0130959 165.5761261  18.6345787  56.1856041 166.4528656  18.6485271
  58.2843781 165.7547913  18.2084980  58.9580307 165.0614777  18.5010529
  58.8135605 166.9177551  17.5521603  58.3623123 167.7514343  18.0901718
  60.2528305 167.0790253  17.8039417  60.4570541 166.8403931  18.8477097
  60.8061028 166.4213257  17.1335564  60.8678284 168.5311279  17.7980423
  60.7627945 168.9134674  16.7827206  60.2004051 169.5656433  18.6833763
  60.2576714 169.2790985  19.7334785  60.6613007 170.5448303  18.5535736
  59.1561165 169.5863800  18.3717117  62.3235397 168.3274231  18.0724564
  62.7571793 167.5496674  17.4438343  62.8291473 169.2904510  18.0015945
  62.4702644 168.0679016  19.1208954  58.5085220 167.0285492  16.0322571
  57.9365082 168.0321350  15.5598192  58.7536964 165.9361725  15.2959242
  59.2744942 165.1592407  15.6770563  58.4788857 165.8111420  13.8594303
  58.9384079 166.6679840  13.3667221  59.0069122 164.4650116  13.3891153
  60.0748825 164.3946991  13.5955067  58.5548668 163.6919861  14.0105572
  58.7214699 163.9579620  11.9371738  57.6477814 163.9390106  11.7502470
  59.3872108 164.7908020  10.9029531  60.4768410 164.7651978  10.8909502
  59.0977478 164.4397583   9.9124603  59.0685692 165.8330841  10.9178467
  59.1821480 162.5179138  11.7809401  58.5137444 161.8564758  12.3321390
  59.1519051 162.1917725  10.7413216  60.1835518 162.3846130  12.1902323
  56.9429817 165.9224548  13.5744791  56.5465736 166.4307556  12.5263500
  56.0847206 165.5023193  14.4587231  56.5002060 165.2299042  15.3380747
  54.5786095 165.5472870  14.4133902  54.2473831 165.0638580  13.4943228
  54.0221138 164.7004852  15.5534582  54.7854767 164.7034912  16.3315105
  53.1721497 165.2422180  15.9684238  53.6713219 163.2405548  15.1970854
  52.8541641 163.2194061  14.4760399  54.5029716 162.7823181  14.6618290
  53.1569176 162.4184418  16.4740601  53.9379501 161.7230072  16.7813892
  53.0606003 163.1908569  17.2370892  51.8080711 161.7202148  16.1147728
  51.0747986 162.3799286  15.6508780  51.9844437 160.9915466  15.3235502
  51.2725487 161.0373383  17.2747269  51.0166550 161.7180328  17.9756393
  50.4311600 160.5762482  16.9591789  51.9308472 160.3569946  17.6266880
  53.8401680 166.9188538  14.3228874  52.6295738 166.9680786  14.0517950
  54.5472298 168.0059967  14.5613537  55.5322151 167.8534241  14.7245207
  53.9842911 169.2979279  14.8829079  53.1092873 169.1659241  15.5193434
  55.1355286 170.0120697  15.6669264  56.0674248 169.9624786  15.1037092
  54.7435989 171.4747009  15.9229507  53.7246323 171.4699097  16.3099670
  55.3288040 171.9664307  16.7000198  54.8738708 172.0484772  15.0053911
  55.3914375 169.4186859  17.0419998  55.8017273 168.4435425  16.7795753
  56.0428505 170.1045532  17.5836105  54.1414795 169.1798859  17.9249935
  53.5823174 168.3594360  17.4751968  54.5526352 168.8810120  18.8892193
  53.5507889 170.0759277  18.1154690  53.5991669 170.1375275  13.6405106
  54.1991081 170.1071930  12.6057901  52.5598755 170.9783478  13.7849932
  52.1589394 170.9998932  14.7117548  51.9471550 171.7878876  12.7289610
  51.8475075 171.0830383  11.9035234  50.9805374 172.1108856  13.1155100
  52.7506981 172.9448547  12.3476400  53.0340767 173.1090088  11.1759968
  53.1778145 173.7751617  13.3157721  52.8742981 173.6214142  14.2667398
  53.8876114 174.9690552  13.0609064  54.0674019 175.0123596  11.9867086
  52.9971046 176.1760406  13.4058905  52.0435982 176.0906982  12.8846941
  52.8101387 176.2213898  14.4787779  53.6582909 177.3789673  13.1014080
  53.0535545 178.1150360  13.2201033  55.2298851 175.0496063  13.7536554
  55.3186989 174.7440948  14.9643021  56.1303749 175.8643188  13.1215029
  55.9024811 176.0839844  12.1623859  57.3014183 176.4078674  13.7150679
  57.9870644 175.5676727  13.8249502  57.9711723 177.3562775  12.7307043
  57.2545509 178.1190186  12.4260960  58.8220100 177.9203644  13.1127968
  58.1551170 176.7985687  11.8124332  57.0495796 176.9839478  15.1325102
  57.9080467 176.8437805  16.0328617  55.9475822 177.7364960  15.3032179
  55.3123779 177.8516235  14.5264559  55.5027580 178.2839813  16.6495266
  56.2840767 178.9580078  17.0007172  54.1398621 179.0763855  16.4752808
  53.4460793 178.4465027  15.9184675  53.4037514 179.2769165  17.8453922
  54.0360374 179.8333588  18.5372639  52.4657593 179.8298340  17.7949162
  53.2823448 178.3047333  18.3231106  54.3063812 180.4863892  15.8611908
  54.7105904 181.1682892  16.6093330  55.0962257 180.3138275  15.1301165
  52.9738617 180.9823151  15.1950035  52.2772560 181.4156494  15.9126854
  53.1928940 181.7612762  14.4647112  52.5874367 180.1466827  14.6114607
  55.4632301 177.1868134  17.7791271  56.1018753 177.3543854  18.7897816
  54.7515335 176.0587006  17.5834293  54.2365456 175.9512024  16.7212620
  54.7058067 174.8914642  18.5434856  54.3207283 175.0521393  19.5504589
  53.7082100 173.9527740  17.9112396  54.0704498 173.7201996  16.9098454
  53.6693344 173.0126343  18.4614391  52.2392082 174.4164276  17.9615936
  51.8895721 174.0577240  18.9296780  52.1782417 175.5045471  17.9417343
  51.3184433 173.9223633  16.8836517  51.6979103 173.3716888  15.8566160
  50.0229416 174.1077423  17.0208817  49.3469086 173.8398438  16.3199425
  49.7691727 174.6743774  17.8175144  56.0174065 174.1281738  18.6344109
  56.3106155 173.5713959  19.6386967  56.8460426 174.2193909  17.6000614
  56.5800171 174.6746674  16.7386341  58.0628967 173.5151367  17.5582752
  57.9167328 172.5021210  17.9331532  58.4339600 173.3162689  16.0661068
  57.5069122 172.8875580  15.6854601  58.6546402 174.2786102  15.6042452
  59.6696625 172.4151917  15.9138021  60.5180092 173.0306549  16.2131538
  59.5490379 171.6649628  16.6952724  59.6589661 171.6753693  14.5408983
  60.5012321 170.9916382  14.4350252  58.8150635 170.9962311  14.4196463
  59.8094482 172.6626434  13.4915123  60.5109177 173.3661041  13.6736355
  59.0829086 172.7983398  12.3944893  58.0881195 172.0095062  11.9764252
  57.6733971 171.3069611  12.5718575  57.7159767 172.1789246  11.0528955
  59.4319839 173.7965851  11.6343174  60.2145348 174.3331757  11.9804249
  58.8217545 174.0376892  10.8664694  59.0477867 174.2608185  18.4738140
  59.7451591 173.5692749  19.1956539  59.0932121 175.5883026  18.3910580
  58.4904442 176.0133972  17.7010803  59.8021965 176.4548798  19.3569908
  60.8385925 176.1319885  19.4556274  59.7182617 177.8608398  18.8036518
  58.6717873 178.1011963  18.6159840  60.2266273 178.4676514  19.5529480
  60.4128685 178.0386353  17.4351063  60.2357979 177.1889648  16.7757092
  59.8630409 179.2437744  16.7284565  60.0289230 180.1107483  17.3679390
  60.4391289 179.3784180  15.8129787  58.8045120 179.0729980  16.5323906
  61.9544296 178.1909027  17.4974365  62.2909050 177.2741852  17.9817009
  62.3304482 178.2956390  16.4797211  62.3264771 179.0781708  18.0097351
  59.3254585 176.4353485  20.8310661  60.1037636 176.2204132  21.7503300
  57.9905472 176.3229218  21.0758247  57.3451233 176.4982300  20.3189907
  57.4538651 175.9943237  22.4415245  57.8113289 176.7311554  23.1608295
  55.9248695 176.0385132  22.4282951  55.4691238 175.3968964  21.6741543
  55.5876160 175.6558838  23.3915997  55.3879585 177.4964600  22.2523727
  55.8223648 178.1643982  22.9961815  55.7261276 177.8962555  21.2963829
  53.8726234 177.5336456  22.3199253  53.5046539 178.5590363  22.3554440
  53.6416130 177.0652924  21.3631668  53.2651215 176.7467346  23.4953156
  53.2728767 175.7368164  23.5051422  52.8301888 177.2496948  24.6388149
  52.9841461 178.5084839  25.0059052  53.4638367 179.1708679  24.4132385
  52.3881073 178.8640594  25.7396698  52.3654060 176.4008026  25.5411377
  52.0992737 175.4660034  25.2665119  52.1618996 176.7278748  26.4747887
  57.9562683 174.6122437  22.8669262  58.6133690 174.5421600  23.9162464
  57.7387848 173.6055908  22.0336876  57.0192108 173.7650146  21.3431091
  58.1652069 172.2882385  22.5153522  57.7033806 172.1120148  23.4868279
  57.7443581 171.1959686  21.4935913  56.6856232 171.3096466  21.2606373
  58.3410606 171.3735809  20.5988846  58.1427383 169.5172882  22.0781174
  57.7971802 169.7466736  23.3481045  59.6951332 172.2479858  22.7189827
  60.0991478 171.7989197  23.8386478  60.4491196 172.8866730  21.8450623
  60.0901299 173.2254333  20.9638901  61.8750000 173.0053711  22.0534534
  62.3059235 172.0043793  22.0735035  62.5186043 173.8176727  20.8844738
  61.8803825 174.6508789  20.5903168  63.5293770 174.0676117  21.2069073
  62.6798019 172.8738708  19.6569214  63.4472198 172.1256104  19.8551121
  61.7782860 172.2752075  19.5266533  62.9407082 173.5753326  18.3105145
  62.7810516 174.8351898  18.1717548  63.4018250 172.8081818  17.4301319
  62.2134209 173.7180939  23.3658543  63.1692352 173.3412170  24.0488968
  61.5518303 174.7956848  23.6616402  60.7978516 175.0561066  23.0421257
  61.8686409 175.7024689  24.7874660  62.9329185 175.9237671  24.7071934
  61.0598984 177.0504456  24.6772823  60.0676765 176.7815552  24.3149376
  61.0300865 177.5357056  25.6528530  61.8887634 178.0417023  23.7967110
  62.2259064 177.4770203  22.9274807  61.0095444 179.1406097  23.3430557
  60.5036926 179.7009430  24.1293354  61.5175171 179.8804779  22.7244663
  60.2716713 178.6724243  22.6915588  63.0855484 178.6461792  24.5389404
  63.7573433 177.8877716  24.9409618  63.7307854 179.1907806  23.8496094
  62.6762657 179.2675171  25.3355083  61.5478783 175.0553741  26.1379013
  62.1955261 175.3663788  27.1336384  60.6006317 174.0823364  26.0650463
  60.1232834 173.9013367  25.1935673  60.2686310 173.1601410  27.1330490
  60.2045555 173.6829987  28.0873146  58.9128113 172.5312347  26.7668552
  58.3928299 173.2139130  26.0948009  59.1225052 171.6203461  26.2061291
  58.0270081 172.1143036  27.9082317  57.6093140 172.9789886  28.7606964
  57.7261772 170.9004211  28.0918617  61.4521484 172.1658478  27.3159161
  62.0670586 172.1558380  28.3479176  61.8054314 171.4281464  26.2842979
  61.2256432 171.4116669  25.4574509  62.9558868 170.4852753  26.2353706
  62.7382736 169.6692505  26.9244804  63.0001450 169.8039246  24.8373184
  62.9817810 170.5994415  24.0923939  64.3069229 169.0910492  24.7021503
  64.3307495 168.2627411  25.4102707  64.3997269 168.7187195  23.6819248
  65.1681976 169.7431488  24.8473396  61.7959824 168.8368683  24.6121845
  61.9472313 168.0446625  25.3454113  60.9052010 169.4289246  24.8221416
  61.7287407 168.2625732  23.1303043  62.5870285 167.6834412  22.7896442
  60.8504295 167.6424561  22.9510975  61.6850090 169.1544495  22.5051994
  64.2427216 171.1727600  26.7131844  64.9312363 170.5649414  27.5274277
  64.6565399 172.3528748  26.3162556  64.0494614 172.8421631  25.6742611
  65.8744125 172.9896545  26.8189335  66.6581879 172.2337799  26.7695084
  66.3782806 174.1790009  25.9192238  65.6670837 175.0038605  25.8756332
  67.2485046 174.6341095  26.3921852  66.7213287 173.8199768  24.4167976
  67.5789490 173.1539001  24.3223248  65.8394318 173.2468719  24.1306133
  66.9644928 175.3246155  23.3703270  67.8362732 174.5081024  22.0209980
  67.0905151 173.8882751  21.5232506  68.2840652 175.2791138  21.3939915
  68.5539551 173.8133392  22.4572811  65.7720413 173.5304260  28.2590485
  66.8190231 173.6815796  28.8813515  64.6025009 173.7876587  28.8046227
  63.7746849 173.9748077  28.2570934  64.4392166 174.0807953  30.2662449
  65.2482605 174.7400055  30.5808640  63.1006775 174.8216248  30.6220493
  62.1855888 174.3171539  30.3118515  63.0370598 174.7941895  31.7098465
  63.2002144 176.3614197  30.3035946  64.1981735 176.9006653  29.8673439
  62.1734695 177.0474701  30.5787010  62.2109413 178.0318451  30.3557110
  61.3726845 176.5422974  30.9303246  64.5541992 172.8167877  31.1094646
  65.2547531 172.8409119  32.1087646  63.8426666 171.7154999  30.6859264
  63.2849922 171.8443451  29.8537617  63.5980415 170.5334778  31.5246582
  63.5920258 170.8775635  32.5589027  62.2237244 169.9625702  31.0710964
  62.2661362 169.8814545  29.9849453  62.0314026 168.9585876  31.4494324
  61.1355209 170.9356995  31.5282326  61.0198364 170.9128571  32.6118355
  61.3117752 171.9642792  31.2135086  59.7850266 170.5952606  30.8203030
  59.6698227 171.0254822  29.8254471  59.6933441 169.5113220  30.7512245
  58.6444283 171.2070160  31.6664906  58.7522812 170.7162781  32.6337776
  58.8108597 172.2722626  31.8267345  57.3034134 170.9773865  31.0471745
  56.9187546 170.0653381  31.2479134  56.6203232 171.6015930  31.4519939
  57.3582344 171.1940002  30.0621986  64.6720734 169.4232025  31.3565350
  64.7528610 168.5352478  32.1981926  65.4594650 169.4271240  30.3108063
  65.4032059 170.2384491  29.7119007  66.7391357 168.7225494  30.2070370
  66.5905304 167.7080841  30.5770302  67.2068253 168.8906097  28.7551460
  66.4258423 168.4701233  28.1216068  67.4176254 169.9501801  28.6103535
  68.7732315 168.1313477  28.4423542  69.0144501 168.5761566  27.2058887
  67.8459320 169.2716827  31.1700325  67.9490280 170.4834747  31.3277435
  68.7350388 168.4051971  31.7673435  68.7985535 167.4170532  31.5682354
  69.7493134 168.7872314  32.7840118  70.1726227 169.7265015  32.4280968
  69.1152802 168.8890076  34.2280922  69.9291611 168.7829742  34.9453468
  68.3772812 170.2104187  34.5390396  67.4390411 170.1716766  33.9855766
  68.3606339 170.2631683  35.6276360  68.9682083 171.0665894  34.2136650
  68.2164612 167.7974091  34.4073944  68.1199951 167.6598511  35.3525772
  70.9058456 167.7806396  32.8592644  72.1024780 168.1817627  32.7313652
  70.6515732 166.4833679  32.9443092  69.6796417 166.2206879  33.0246353
  71.6207199 165.3526611  33.1110878  72.6362991 165.7460632  33.0670547
  71.4917831 164.7613678  34.5351257  71.9541321 165.4066620  35.2820702
  70.4603577 164.4962463  34.7674370  72.2353668 163.5058594  34.6327057
  71.8655014 163.1573792  35.4471741  71.4395370 164.2880096  31.9462814
  70.2797470 163.9839783  31.6661282  72.4953461 163.6871643  31.5183773
  73.3770599 164.0869751  31.8061886  72.5169373 162.6731720  30.3935509
  71.4915466 162.4094391  30.1344948  73.1382828 163.3411713  29.1420097
  74.1426163 163.6658325  29.4140396  73.4166718 162.6708679  28.3288174
  72.3699188 164.5108795  28.4917088  71.8452530 165.1546936  29.1976261
  73.3283768 165.4219055  27.7134914  73.9720306 164.9103851  26.9978466
  72.7904053 166.1001740  27.0511951  74.0192032 165.9603729  28.3622818
  71.3599167 164.0671692  27.4450932  70.6709518 163.3917389  27.9522743
  70.8806839 164.9421234  27.0059147  71.8671875 163.5812531  26.6116276
  73.1039581 161.3653717  30.7674713  74.2609482 161.2583771  31.1812000
  72.3065414 160.3008118  30.7280674  71.3526230 160.5071106  30.4680882
  72.6912079 158.9749298  31.3057232  73.7096939 159.0707397  31.6820297
  71.6500702 158.6693420  32.3573341  70.7158890 158.6182556  31.7980518
  71.8290100 157.6529236  32.7080002  71.6751404 159.8617859  33.7036819
  70.5140076 159.4888916  34.2492371  72.6900635 157.8703918  30.2390041
  72.1749115 158.0111237  29.1128483  73.3627396 156.7531891  30.5115299
  73.7725296 156.6973877  31.4329758  73.5372772 155.5979919  29.5135860
  73.6857147 156.0871429  28.5508823  74.8385544 154.7989655  29.8358631
  75.6565781 155.4729767  29.5815964  74.8866348 154.4810181  30.8773479
  74.9807434 153.3273315  28.7635460  74.0774307 152.6171570  29.4451313
  72.1906815 154.7664490  29.5200062  71.5118790 154.5931091  30.5372791
  71.7621384 154.2484589  28.3584137  72.3242874 154.4398651  27.5414352
  70.4158783 153.7207489  28.1424351  69.6939926 154.3334351  28.6824188
  70.1363602 153.6618195  26.5581818  70.0935287 154.6627197  26.1287117
  70.9937592 153.1152802  26.1653919  68.7656250 152.9477386  26.1439896
  69.0647659 151.9308624  26.3981133  67.9262238 153.3653412  26.6999664
  68.5320511 153.1208954  24.5990353  69.5405884 152.9446869  24.2250042
  67.8959198 152.2951660  24.2802448  68.0116959 154.4835358  24.1271267
  67.1412506 154.6817932  24.7525196  68.7570572 155.2521362  24.3315544
  67.6370697 154.4984589  22.7000313  67.0465927 153.7007141  22.5128555
  67.0999832 155.3102722  22.4305687  68.4208908 154.4717407  22.0636234
  70.2229919 152.4005737  28.8875980  69.3193665 152.2732086  29.7256947
  71.2105103 151.4919739  28.7311096  71.9501114 151.6965179  28.0744114
  71.2292328 150.1204224  29.3757858  70.3205948 149.6381378  29.0154171
  72.3769379 149.3465118  28.7945576  72.3533478 149.3906097  27.7057056
  73.3515015 149.7458496  29.0753765  72.4528580 147.8338318  29.2344284
  72.6264648 147.9003448  30.3084564  71.5136108 147.3186493  29.0331650
  73.4926147 146.9591217  28.4695148  74.2326889 147.4136200  27.5964298
  73.5307388 145.7430267  28.8355389  74.3167572 145.1679993  28.5679379
  72.9324570 145.3681030  29.5577526  71.2599030 150.1300812  30.9184246
  70.9261703 149.1724243  31.6234360  71.7589569 151.2390594  31.5014820
  72.2566071 151.8796082  30.8997002  71.6583862 151.5833893  32.9479256
  71.7365341 150.6284180  33.4675522  72.8893814 152.5280151  33.3028412
  72.6176224 153.5204926  32.9433632  73.0232544 152.6266022  34.3800888
  74.4441452 152.0473633  32.5040398  74.4182358 150.7220154  32.6704063
  70.3507538 152.2710266  33.3653412  69.8729095 152.1657715  34.5498009
  69.9651413 153.2294617  32.4857712  70.4391632 153.1780396  31.5953999
  69.0414047 154.4520874  32.6707611  69.0092773 155.0169983  31.7391300
  67.6177521 153.9871368  33.0877190  67.6738739 153.6712341  34.1294289
  66.9655609 154.8594360  33.0446815  67.0573273 152.9099426  32.1734009
  67.2313232 153.1213531  31.1183510  67.5112534 151.9491272  32.4160843
  65.5386734 152.7613525  32.3438950  64.7338257 153.5165253  31.8279972
  64.9913177 151.8407440  33.0873756  63.9919815 151.9135437  33.2143631
  65.5455856 151.2041626  33.6420403  69.5412445 155.4631653  33.6803818
  69.3495178 156.6519623  33.4459114  70.2431946 154.9957123  34.7127457
  70.2942429 153.9891205  34.7781219  70.5412064 155.8319702  35.8846855
  69.9477844 156.7449341  35.8351021  70.1475754 155.0460510  37.1692543
  70.2248459 155.7457428  38.0014648  69.1154556 154.7040253  37.0928879
  71.0246353 153.8520966  37.6486816  71.9033127 153.3346863  36.9182777
  70.8871078 153.4194183  38.8138733  71.9731064 156.3973389  36.0176468
  72.2562790 157.3496552  36.7635078  72.9678726 155.8309479  35.3391266
  72.8226852 155.0244446  34.7487297  74.3734055 156.2153625  35.4642372
  74.6242752 156.5293579  36.4774323  75.2986832 155.0557098  34.9976807
  75.0214233 154.8084717  33.9729385  76.7004623 155.5344086  35.0421295
  77.0705948 155.6987457  36.0541039  77.2549438 154.7116547  34.5907784
  76.8579102 156.4210510  34.4279785  75.2721710 153.8802185  35.7929802
  75.4136276 154.1083679  36.7146835  74.5941544 157.4296112  34.5136108
  74.4748001 157.4094543  33.2877502  75.0146179 158.5774994  35.1206894
  75.1145630 158.4767761  36.1206741  75.2060394 159.8946075  34.4882431
  74.4121857 160.0058899  33.7496567  75.0959854 161.0173492  35.5166054
  74.1338654 161.0848846  36.0244102  75.7483902 160.6931458  36.3273811
  75.5670929 162.4135284  35.0515671  76.5319519 162.2536163  34.5703468
  74.9090195 162.7445374  34.2481499  75.9082870 163.3772736  36.2136765
  76.2490997 162.9884338  37.3284492  75.8571014 164.6120453  35.9732513
  76.5150528 159.9220123  33.7314835  77.5474777 159.7471313  34.3173599
  76.4565048 160.2256317  32.4251900  75.5769577 160.5449829  32.0450592
  77.6795044 160.2772675  31.5995941  78.4906387 159.8221130  32.1679077
  77.4384842 159.3895264  30.3451385  76.3700027 159.4033661  30.1300373
  78.1570969 159.9209595  29.1491165  79.2069473 160.1385651  29.3455029
  78.0635910 159.3030243  28.2560806  77.6599731 160.8497009  28.8690720
  77.8718719 157.9704132  30.5175381  77.6308899 157.3758392  29.6363449
  78.9543304 157.9737854  30.6455326  77.2556992 157.1502686  31.6954460
  76.1756058 157.0315704  31.6093884  77.7627182 156.1853638  31.6958904
  77.4288406 157.6783752  32.6331215  78.0855865 161.7377319  31.3924065
  79.2940521 162.0185547  31.4938812  77.1310806 162.6078796  31.1669788
  76.2002487 162.2760010  30.9584274  77.3870773 164.1304932  31.0933323
  78.1296005 164.3591156  31.8578587  77.9657135 164.4775543  29.6541195
  78.8895950 163.9364014  29.4499092  77.0148010 164.1827393  28.4795437
  76.3242340 165.0096283  28.3137646  77.6773911 164.0302734  27.6275921
  76.4276505 163.2778778  28.6362762  78.3158722 165.8395844  29.4842873
  79.2085648 166.0004578  29.7986355  76.1805954 165.0766449  31.3726597
  75.0193710 164.7152405  31.5452595  76.4237900 166.3971710  31.4362278
  77.2760696 166.7125092  30.9954491  75.5301743 167.4790802  31.8867607
  74.5402527 167.0472107  31.7396431  75.7240295 167.9004364  33.3348808
  75.4630127 167.0891418  34.0144157  77.0389709 168.4858093  33.7294273
  77.1003036 169.4145660  33.1621971  77.0340118 168.5938110  34.8140488
  77.8276291 167.7864075  33.4519882  74.7661591 168.9229126  33.6205788
  74.2111664 168.5640411  34.3168449  75.5120850 168.6714325  30.9284706
  76.5011520 169.0044708  30.2330627  74.3353653 169.2544098  30.8451252
  73.6221313 168.7984314  31.3960228  73.9620895 170.3512726  29.9512482
  73.8880463 169.9348907  28.9466343  72.5402527 170.9019775  30.3447266
  71.7996597 170.1036377  30.2971287  72.5550537 171.2486877  31.3780136
  72.1314850 172.0757446  29.4883175  72.8383102 172.8774872  29.7021065
  72.1506805 171.7944031  28.4354248  70.7297287 172.5369720  29.7232075
  70.0890198 171.7396240  29.3466091  70.6268921 172.5588684  30.8081226
  70.4850388 173.9451752  29.0667725  71.3845139 174.5135040  29.3035221
  70.4126816 173.8434448  27.9839439  69.3122025 174.6534424  29.6531200
  69.4066086 174.9159851  30.6238174  69.1682053 175.5142822  29.1448631
  68.4547272 174.1316376  29.5410385  75.0280304 171.5153503  29.8491421
  75.2865524 172.0173798  28.7200813  75.7428284 171.8536224  30.9145374
  75.3163300 171.4605408  31.7413902  76.7845306 172.8909149  30.9275227
  76.3066177 173.7459412  30.4493637  77.1276855 173.3080444  32.3015327
  77.4877701 172.4371796  32.8493042  77.9167099 174.0596161  32.2756882
  75.9824829 173.9532776  33.0699539  75.5089264 175.0444031  32.7624397
  75.5329285 173.2970734  34.0916519  74.7487335 173.7247925  34.5630379
  75.7863998 172.3422241  34.3017044  78.0931396 172.4907227  30.1281109
  78.7949219 173.3252258  29.5699081  78.3166885 171.1959229  29.9451580
  77.6680679 170.5330658  30.3451710  79.4188843 170.6384430  29.1477108
  80.2634201 171.3209229  29.2430401  79.8615723 169.2041016  29.5542889
  79.1485443 168.5190582  29.0955982  80.8100433 169.0146637  29.0516758
  80.0268555 168.9911194  31.0099354  79.0369949 169.0169525  31.4655838
  80.4328003 167.9897003  31.1530018  80.9951630 169.9698029  31.6786556
  81.8921432 170.5994568  31.1038246  80.9084854 170.1427002  32.9325905
  79.0692902 170.5171356  27.6678486  79.8864212 170.1276550  26.8404026
  77.8696365 170.8458252  27.2705536  77.1384964 171.1884308  27.8773098
  77.4336853 170.7507019  25.8571815  77.9182129 169.8587952  25.4599190
  75.9046783 170.5858612  25.6964874  75.4302292 171.4379730  26.1832294
  75.5252228 170.6722717  24.2191467  76.1170349 169.9843597  23.6152878
  74.4706116 170.4973755  24.0062695  75.6815872 171.7050476  23.9076881
  75.4236832 169.2445374  26.3494205  75.9461212 168.4216919  25.8614559
  75.6310806 169.3412170  27.4151306  73.9344559 169.0651550  26.1860943
  73.7298355 168.8184967  25.1442757  73.5891342 168.1801758  26.7205696
  73.3301544 169.8989716  26.5434170  78.0137177 171.9293213  25.0437737
  77.8110657 173.0792999  25.4249191  78.6612015 171.7139130  23.9272003
  78.6197128 170.7410583  23.6589947  79.2066193 172.7436371  23.0271397
  78.5852585 173.6195068  23.2138519  80.6163177 173.0841827  23.4241085
  80.8066330 174.1485748  23.2865257  80.7648849 172.8161316  24.4701366
  81.6825943 172.2780914  22.7718029  81.8575287 170.9601440  23.0487690
  81.2447128 170.4044189  23.7430496  82.7738113 170.1293793  22.2829876
  82.8710861 169.0782623  22.5112286  83.5452881 170.7221222  21.3459568
  84.3183441 170.2319794  20.7727661  83.4087906 172.1016998  21.0480862
  84.1082840 172.6476440  20.4324131  82.4656754 172.8268585  21.7747593
  82.3312531 173.8807220  21.5805969  78.9712448 172.4022827  21.5357399
  78.6128235 171.3104858  21.1926327  79.0599136 173.5065308  20.7429810
  79.2055893 174.3650360  21.2547112  78.8729324 173.4000244  19.2675915
  78.4214630 172.4395905  19.0189037  77.9539032 174.4122772  18.8369217
  78.4321671 175.3669128  19.0561180  77.8447418 174.2752228  17.7610970
  76.6303787 174.2894897  19.3777199  76.2067337 175.1499481  19.4194279
  80.2545319 173.4127960  18.4959126  80.7346725 174.4445038  18.0720272
  80.8841248 172.2396851  18.3757458  80.3782806 171.4204254  18.6807709
  82.0118561 172.1271515  17.4212570  82.7544632 172.8965302  17.6327000
  82.6576843 170.7896576  17.7298126  82.7230148 170.6500397  18.8088589
  81.9764862 170.0639648  17.2854595  84.0248947 170.4816284  17.1224766
  83.9412155 170.2915649  16.0524445  85.1179657 171.5617523  17.2840233
  85.3515778 171.6229553  18.3469391  85.9686661 171.2707214  16.6678181
  84.7466431 172.5295715  16.9470577  84.5371704 169.1418152  17.6555653
  83.9458618 168.3018341  17.2910194  85.5497284 169.0170898  17.2718067
  84.5717316 169.1430054  18.7450161  81.6147614 172.2121277  15.9375763
  82.4610443 172.3706512  15.0668278  80.3049622 172.3208771  15.6308842
  79.6026077 172.3248291  16.3566875  79.8231506 172.3644257  14.2809515
  80.6329346 172.4374695  13.5549927  79.0767136 171.0250854  14.0515537
  79.6850281 170.1223755  14.1079226  78.2433701 170.9146881  14.7454176
  78.5571747 170.9781647  12.7581949  78.2783890 170.0854645  12.5414839
  78.8892517 173.5572357  14.0477114  78.1506424 173.9283752  14.9339924
  78.8771591 174.1121674  12.8119583  79.4491348 173.7204285  12.0774584
  77.8486328 174.9286957  12.2340269  77.8457642 175.9034882  12.7217350
  78.0657501 175.3664856  10.7528563  78.2420731 174.5153198  10.0951948
  77.1005936 175.7123260  10.3827438  79.0964050 176.4413910  10.3970013
  80.0536575 176.0981598  10.7893744  79.2403946 176.6425476   8.8399582
  78.2689514 176.8069611   8.3737326  80.0342407 177.3540955   8.6127920
  79.6066818 175.7218323   8.3858347  78.7712250 177.8240356  11.0436001
  78.6968384 177.7505493  12.1285734  79.5046005 178.5917816  10.7969799
  77.8196793 178.1763763  10.6454391  76.3772354 174.4298706  12.3796244
  75.4433136 175.2432098  12.5345125  76.1886749 173.1242065  12.5303926
  76.9919510 172.5201874  12.4303379  74.8707657 172.5292969  12.9239740
  74.1642609 173.0184479  12.2533827  74.8053665 171.0481720  12.6239176
  75.4774399 170.5676575  13.3349295  73.8523788 170.6454620  12.9670429
  75.2489166 170.7011871  10.8810644  75.4492645 169.3852692  10.9956388
  74.2763290 172.8541260  14.2579489  73.0797348 172.6951904  14.4424210
  75.1188354 173.1990662  15.2322388  76.0927505 173.3691559  15.0257254
  74.8225632 173.2478180  16.7031841  75.2540970 174.1558990  17.1242085
  73.7598038 173.3177643  16.9350357  75.4711761 172.0953064  17.4123898
  76.4076691 171.4987488  16.8112450  75.0889435 171.6548309  18.6304245
  73.9074402 172.0783539  19.2724724  73.0602951 171.9434967  18.5999699
  73.9029160 173.1350098  19.5399723  73.8012695 171.1856537  20.4915161
  73.4175415 170.2128296  20.1841602  73.2422943 171.6174316  21.3217010
  75.2347031 170.9847412  20.8814964  75.3007050 170.1073914  21.5249348
  75.7000351 171.8218079  21.4019394  75.8593750 170.7464600  19.4928818
  76.8984604 171.0572205  19.6016922  75.8416443 169.2624969  18.9720535
  76.2690506 168.3606873  19.6670170  75.1822815 168.9474182  17.8778610
  74.7406693 169.6938477  17.3602448  74.9960175 167.6020050  17.3801003
  76.0006714 167.2241211  17.5697594  73.9576721 166.8990936  18.2601147
  74.4200974 166.8722992  19.2467976  73.0302124 167.4638062  18.1650429
  73.6127319 165.4087067  18.0263996  73.4977341 165.2613220  16.9525471
  74.3585434 164.7576447  18.4824810  72.0425720 165.1445312  18.8582039
  70.9654770 165.1004333  17.4877930  71.3485107 164.2724609  16.8912659
  69.9530487 164.8846588  17.8291607  70.9849854 166.0072174  16.8832684
  74.7476730 167.5494843  15.8602304  74.2578583 168.5124512  15.2501698
  75.2782822 166.4831848  15.2465353  75.8447342 165.8455353  15.7874947
  75.1139526 166.2192230  13.8348389  74.2174301 166.6491699  13.3881950
  76.3028412 166.8906708  13.1664228  77.2257080 166.5001678  13.5952797
  76.3574448 166.6421204  12.1065464  76.2300797 167.9641724  13.3407745
  75.0104599 164.6659393  13.6494207  74.9321594 163.9233246  14.5991869
  74.9997482 164.2184906  12.3862410  75.3326111 164.8126068  11.6403704
  74.8813934 162.8027191  11.9518366  74.8396912 162.1874695  12.8506241
  73.4965744 162.7805939  11.2299004  73.5022736 163.3682251  10.3118839
  73.2531967 161.7457123  10.9892759  72.7349167 163.1361847  11.9238195
  76.1102600 162.4589539  11.0286674  76.3724747 163.2738037  10.1102743
  76.7679977 161.3560486  11.1520100  76.6211319 160.7553406  11.9505663
  77.9556503 161.0413208  10.4070663  78.0835190 161.5210266   9.4366856
  79.1818161 161.5257263  11.2416410  79.3354568 160.7618408  12.0038624
  80.0734177 161.4597015  10.6181040  79.2506332 162.9618073  11.7882729
  79.5971222 164.0143280  10.9292841  79.8844376 163.7447357   9.9237137
  79.6950150 165.3166656  11.4350567  79.8857117 166.1463928  10.7705355
  79.5074921 165.5716858  12.7889156  79.6287308 166.8212738  13.2632780
  79.7563171 167.4093933  12.5153160  79.0515823 164.5115814  13.6174126
  78.8735580 164.6739807  14.6701870  78.9617233 163.1907654  13.1097269
  78.8064804 162.3610229  13.7833872  78.0459290 159.4860535  10.2284069
  77.2106552 158.8024139  10.7623549  79.0581741 158.9011688   9.5408163
  79.7916336 159.4819336   9.1602182  79.1159363 157.4122314   9.4162178
  78.5432129 156.9321747  10.2097120  78.5285873 156.8314514   8.0963297
  78.5125198 155.7489166   8.2227125  77.0973816 157.1841583   7.9234042
  76.9943008 158.2681122   7.9735641  76.6296539 156.7295532   7.0500913
  76.5607071 156.8801880   8.8221235  79.4123306 157.3054810   6.9260511
  80.3997192 156.8449402   6.9588161  78.8412704 157.0855560   6.0240393
  79.5894089 158.3776398   7.0110211  80.5339966 156.8091278   9.5743065
  81.5265732 157.3372192   9.0793591  80.5837250 155.5706787  10.1453428
  79.7280121 155.1049347  10.4116955  81.7641983 154.7038879  10.0208635
  82.6292114 155.3646240  10.0780411  81.8221970 153.8343048  11.2494564
  82.8581696 153.6056824  11.4996462  81.3598328 154.4185181  12.0450850
  80.9565048 152.5764465  11.1652803  79.9072647 152.5718994  10.5276251
  81.4403915 151.4176025  11.5897913  80.9498520 150.6004486  11.2555304
  82.3755112 151.3546600  11.9662161  81.8483887 154.1093292   8.6113081
  80.8432999 154.1058502   7.8564143  82.9878616 153.3788452   8.2053852
  84.1489868 153.1412201   9.0435619  83.9845200 152.3076172   9.7263088
  84.3848953 154.0658264   9.5704117  85.2671890 152.6647797   8.0844793
  85.8616867 151.8432159   8.4841394  85.9868011 153.4085541   7.7423410
  84.5221634 152.1005402   6.8583298  84.3647232 151.0314941   7.0013194
  85.1190948 152.2917328   5.9665756  83.1936111 152.8336334   6.8833146
  83.1849365 153.7063293   6.2302947  82.1599274 151.8065948   6.4282937
  81.7211990 151.6804962   5.2768641  81.7023544 151.0340881   7.3398261
  82.2126923 151.0908203   8.2095594  80.6210327 150.0335388   7.3350992
  80.6597061 149.5290222   6.3696604  80.8604279 149.1347046   8.5092793
  80.4704895 149.6707306   9.3745661  80.3142776 148.2165375   8.2929449
  82.2460327 148.8441620   8.9693098  83.0882339 149.7594757   9.5676298
  84.2063522 149.1189117   9.8870249  85.0131378 149.5960693  10.4235144
  84.1108856 147.8247070   9.4181356  84.8524094 147.1620636   9.5946112
  82.8385773 147.6100616   8.9224977  82.5310211 146.7102203   8.4105320
  79.2037582 150.6237183   7.3853350  78.2425919 149.9089813   7.7221341
  79.0066681 151.8712158   6.9240589  79.8289642 152.4075317   6.6868062
  77.7152328 152.4618378   6.6199250  77.9471893 153.4200592   6.1550345
  77.1889877 151.9197540   5.8342385  76.7689743 152.7731323   7.7701635
  75.9482956 153.6527405   7.5648832  76.9266357 152.2378235   9.0429077
  77.6635361 151.5844879   9.2670450  75.9542160 152.5074005  10.1273136
  74.9566803 152.2531128   9.7690458  76.3294601 151.7020874  11.3808422
  76.4481506 150.6881409  10.9988289  77.3314590 151.9468079  11.7332716
  75.3289795 151.7997894  12.5228758  74.1855698 151.0206757  12.4896412
  74.0781326 150.2738342  11.7169323  73.1829224 151.1856384  13.4956217
  72.2586212 150.6272583  13.5119047  73.4989166 151.9729919  14.6107845
  72.5434113 152.1570435  15.5911760  71.9229965 151.4340363  15.7093220
  74.6591110 152.7461700  14.6212263  74.7663116 153.4257660  15.4537277
  75.5298691 152.7441254  13.5328636  76.3716660 153.4207153  13.5328846
  76.0926132 153.9862061  10.4791746  77.1520996 154.6356049  10.5281610
  74.9096756 154.6133118  10.7181444  74.0333633 154.1164551  10.6452103
  74.8300858 156.0381775  10.9990406  75.6382599 156.4944916  10.4274273
  73.5967636 156.7660522  10.4073315  72.6606522 156.3425446  10.7712555
  73.6794434 158.3269958  10.8332081  74.6074448 158.8222351  10.5474615
  73.0078583 158.9213104  10.2136374  73.3621445 158.5117188  11.8595123
  73.6222000 156.5679321   8.8758831  74.0192413 157.4600830   8.3916073
  74.2207870 155.6885529   8.6382132  72.2761612 156.3636932   8.2373714
  71.7694397 157.3252563   8.3195276  72.3714752 156.0724335   7.1913395
  71.6414261 155.6433716   8.7534533  75.0110855 156.2105408  12.5328732
  74.2080612 155.6921692  13.3034115  76.0131531 156.9974518  12.9037600
  76.6056061 157.3787384  12.1800709  76.1858521 157.4723969  14.2935581
  75.5702591 156.9287109  15.0101919  77.6249466 157.3217773  14.6427269
  78.2147827 157.8732758  13.9105721  77.8120728 157.7429657  15.6305008
  77.9846115 155.9056091  14.7384357  77.8315582 155.1035461  15.8973570
  78.3542862 153.9297180  15.5488863  78.3125610 152.9937286  16.0860786
  78.9369736 153.9860535  14.2760248  79.5352631 153.2792969  13.8727417
  78.6741638 155.2472992  13.7312689  78.9158936 155.6119385  12.7438412
  75.7867966 158.9563904  14.3568287  76.3388214 159.7291565  13.5890102
  74.9057159 159.3619232  15.2592287  74.3336868 158.6889954  15.7491741
  74.5683746 160.7600098  15.6518545  74.9302444 161.4754181  14.9133835
  73.0766602 160.9779968  15.8735552  72.6329117 160.2965240  16.5993500
  72.9357376 161.9766541  16.2869949  72.3366852 161.1072083  14.5418148
  72.8895035 161.7705383  13.8766241  72.2486649 160.0696411  14.2196007
  70.8547974 161.6207275  14.7195272  70.1670609 161.1157074  15.6633329
  70.3845139 162.5729370  14.0170755  75.3235092 161.0239716  16.9599323
  75.1007156 160.2796478  17.9112320  76.2494049 161.9873505  16.9751110
  76.2562943 162.6299896  16.1959629  77.1040955 162.2084351  18.1495838
  76.8124619 161.4619446  18.8883667  78.5716782 161.9248810  17.8617249
  79.1748047 162.1230469  18.7477608  78.7762299 160.4666748  17.4452591
  78.4384003 160.3105927  16.4207516  79.8512268 160.3004913  17.3755417
  78.3521729 159.6777496  18.0664406  78.9918671 162.6338806  16.7204704
  79.8568497 162.2850800  16.4929981  76.9670563 163.5779114  18.7650166
  77.0409470 164.5986328  18.0503216  76.6156769 163.6971436  20.0376339
  76.5281372 162.8524628  20.5844078  76.5838547 164.9564667  20.8085613
  76.1323776 165.7874756  20.2666321  75.8974304 164.6975708  22.1496658
  74.8834915 164.4326477  21.8499565  76.3645477 163.8498383  22.6508999
  75.7533493 165.8682709  23.1259937  76.7920456 166.1551666  23.2900181
  74.9187775 167.0317841  22.6376343  74.1771545 166.7438660  21.8925247
  74.4778748 167.6387177  23.4284286  75.5781937 167.7536316  22.1557388
  75.1275558 165.2807007  24.4277859  75.7160950 164.4725952  24.8621712
  74.9169159 166.1037598  25.1106586  74.1940689 164.7915802  24.1494713
  78.0641022 165.3414917  21.0918636  78.8048019 164.5667267  21.7184162
  78.3902359 166.6101379  20.7791080  77.7468567 167.2370453  20.3174286
  79.6849518 167.1739349  21.2229519  80.3620453 166.3206940  21.2632046
  80.2840805 168.1590424  20.1202946  81.2169647 168.5137024  20.5585098
  80.5798721 167.4177704  18.8401337  79.6264420 167.2758331  18.3312931
  81.2755508 168.0029755  18.2387619  81.1576157 166.5056610  18.9897194
  79.5359039 169.2946625  19.7173233  79.5195847 170.0168152  20.3496456
  79.6635513 167.7735138  22.6221943  78.8360596 168.6305542  22.8924675
  80.4775772 167.3303833  23.5663280  81.0615845 166.5119019  23.4707890
  80.6538010 167.8065948  24.9691257  80.2547760 168.8175201  25.0522614
  79.9018402 166.9127808  26.0151119  80.0022659 167.3666992  27.0009995
  78.4330368 166.7682953  25.6051102  78.3335648 166.1660919  24.7020226
  77.8304825 166.3668060  26.4198761  78.0386887 167.7557526  25.3652725
  80.3888550 165.4304962  26.2317867  81.4130707 165.4226685  26.6046581
  79.6992569 164.9420624  26.9202538  80.2803192 164.7802887  25.3637161
  82.1172104 167.9799194  25.3234711  82.9131851 167.0686951  24.9426594
  82.4808350 169.0357819  26.0637379  81.8054810 169.7478180  26.3025093
  83.9104843 169.2197266  26.5368938  84.5431213 169.1600647  25.6512756
  84.0804901 170.5595551  27.2494202  83.4467926 170.6145020  28.1345863
  85.1161652 170.6232452  27.5832081  83.8672638 171.7626495  26.3528328
  84.6844788 172.0032654  25.2541943  85.3483353 171.2006836  24.9685955
  84.5333633 173.1576385  24.4598866  85.1788559 173.3981323  23.6280785
  83.6030960 174.0923767  24.8267765  83.5695724 175.2710876  24.1429539
  84.1351547 175.2521210  23.3674812  82.7897034 173.8920288  25.9897346
  82.1690063 174.7081604  26.3289356  82.9594955 172.7451630  26.7597427
  82.3649750 172.5499268  27.6399879  84.2640762 168.0980988  27.4745216
  85.4860687 167.8475800  27.5892467  83.3692780 167.4898529  28.1858196
  82.3986435 167.6908264  27.9919682  83.6309891 166.6837921  29.3479214
  84.5951691 166.1866455  29.2416458  83.7499084 167.6416168  30.5702839
  84.3239899 168.5123901  30.2536011  82.7740479 168.0563812  30.8228111
  84.4495316 167.0545197  31.7866821  83.9503708 166.1274872  32.0687256
  85.5085220 166.8486633  31.6309452  84.4383163 168.1252136  32.9318428
  85.0360031 168.9915161  32.6482773  83.4175262 168.4902039  33.0453186
  84.7432938 167.4804688  34.3582115  84.6479568 168.2520294  35.1222305
  83.8971939 166.8121490  34.5180664  86.1002731 166.9120636  34.5484123
  86.7693710 167.5321045  34.1148682  86.2986908 166.8650818  35.5376205
  86.1277771 165.9892426  34.1388359  82.5811005 165.5782013  29.5008793
  81.3962936 165.8289795  29.4336510  83.0076828 164.4466095  29.9207954
  84.0029602 164.2927094  29.9972725  82.1577835 163.3434448  30.4137402
  81.1761780 163.7205353  30.7007027  81.8383484 162.4444733  29.1903934
  82.7988739 162.1533356  28.7652817  81.1996613 161.6047974  29.4644661
  81.2329254 163.1126709  28.5779591  82.7841873 162.5577698  31.5705738
  84.0066681 162.4258118  31.7096443  81.9329987 162.0064240  32.4858704
  80.9320374 162.1183777  32.4107437  82.3884125 161.5795441  33.8101463
  83.3950882 161.9974060  33.8190002  81.5964355 162.2621613  34.9075050
  80.5511627 161.9545746  34.8774796  82.0088882 162.0514679  35.8942108
  81.6377792 164.0602417  34.7485352  82.7125702 164.2468109  35.5198479
  82.4978333 160.0984344  33.9654427  83.5631866 159.6370392  34.5035210
  81.4519424 159.3321991  33.8366890  80.6566849 159.7104797  33.3421402
  81.4620209 157.8925934  34.1164131  82.3305130 157.6332550  34.7218590
  80.1486969 157.5116272  34.8092957  79.2839050 157.8668365  34.2488708
  80.1918411 156.4378357  34.9915276  80.0613556 158.1245117  36.2029877
  80.6599426 157.6437073  37.1749458  79.2964096 159.1414185  36.4132080
  79.3546906 159.6255951  37.2976685  78.6693497 159.3929596  35.6624603
  81.6081314 157.0617523  32.7629852  80.6891022 156.2602844  32.3603363
  82.8067780 157.2185516  32.1344490  83.4214478 157.9467926  32.4690399
  83.2313919 156.4655609  30.9269695  82.5008392 155.6686554  30.7878723
  83.2691193 157.3787537  29.6752377  84.0335312 158.1556244  29.6905785
  83.5174789 156.7503815  28.8199177  81.8564453 157.9727325  29.3197536
  81.4990005 158.4748077  30.2187901  82.0308914 159.0184784  28.2498341
  82.4729538 158.5705109  27.3598804  81.1184158 159.5005798  27.8990498
  82.7942810 159.7449799  28.5282536  80.9770584 156.8841705  28.6797905
  80.6521149 156.1485596  29.4155788  80.0664139 157.3519287  28.3055611
  81.4269791 156.3212433  27.8620052  84.6027451 155.7986450  31.1828537
  85.5346069 156.3557892  31.8202953  84.7610931 154.5523224  30.6652908
  83.9397507 154.2694397  30.1500568  86.0258713 153.8460999  30.4248810
  86.7940903 154.2107697  31.1067524  85.9296188 152.3309479  30.7826653
  85.1291504 151.8795319  30.1965065  86.8478699 151.8518982  30.4429264
  85.6725388 152.1139984  32.2338600  85.1330185 152.9786072  32.9437027
  85.9966507 150.9489288  32.7265968  85.6950302 150.6945038  33.6563225
  86.4924393 150.3121338  32.1193199  86.5074081 154.0905609  28.9817085
  85.6933899 154.2398376  28.0362320  87.8394928 154.0666046  28.7946758
  88.4074860 153.8249054  29.5940933  88.5486069 154.0710754  27.5148335
  87.8941193 154.4734650  26.7416439  89.7813110 155.0228729  27.5396347
  90.4549713 154.6074066  28.2890778  90.3180542 154.9938354  26.5913925
  89.4796066 156.4530334  27.8882484  89.0757065 156.4927063  28.8998775
  90.8373718 157.1607819  27.7576237  91.2678833 157.0188446  26.7663574
  90.7390518 158.2330170  27.9272137  91.5615234 156.8620911  28.5155659
  88.5751495 157.0534668  26.7662926  87.6519318 156.4907837  26.6278572
  88.3495941 158.1126099  26.8905582  89.1905746 157.0862732  25.8672485
  88.9137573 152.6587982  27.1005363  89.3202896 151.8429108  28.0013123
  88.7163544 152.3200836  25.8486729  88.1983948 152.9787598  25.2847805
  89.1825104 151.0754852  25.2439785  90.0051346 150.7373962  25.8741226
  88.1698380 149.9462433  25.3157749  88.6084976 149.0275116  24.9263725
  87.8742523 149.9013214  26.3639717  87.0026932 150.2784424  24.6310863
  86.2866135 149.8013306  25.0567532  89.8724670 151.2356567  23.8337650
  89.5853500 152.1880035  23.1169548  90.7737198 150.3098602  23.4301395
  91.0889816 149.6268311  24.1040859  91.5705338 150.4168549  22.2780781
  91.9025040 149.4356232  21.9388294  90.9045410 150.7987518  21.5043182
  92.7663574 151.3464813  22.3925400  93.2505264 151.5919342  23.4803886
  93.2198410 151.8967438  21.2357597  92.7897873 151.6386414  20.3590984
  94.0870209 153.0625153  21.1868973  94.0819626 153.5508118  22.1613979
  95.5627594 152.6999664  20.7448235  95.5582886 152.1257782  19.8183308
  96.1883087 153.5296021  20.4154243  96.3566284 151.8299561  21.6679554
  95.6579132 150.9996796  21.7706757  97.2051544 151.5151062  21.0605240
  96.8857269 152.4030151  22.9960613  97.4662399 153.3128052  22.8430824
  96.0134201 152.7529449  23.5480747  97.5332336 151.3260651  23.7404156
  98.5103455 151.1725616  23.5359859  97.0260696 150.5468292  24.6929436
  95.7980804 150.5708008  25.0388794  95.1991653 151.1634369  24.4819412
  95.4510269 149.8563690  25.6627865  97.7418289 149.5985413  25.2044926
  98.7247238 149.4946136  24.9965916  97.3009338 148.8895416  25.7728443
  93.5119324 154.1975250  20.2965775  92.5752640 153.9158325  19.4804363
  94.0165253 155.4430084  20.4621525  95.1209641 155.9274292  21.3543301
  96.0795212 155.6665802  20.9057293  95.0177231 155.4732361  22.3398018
  95.0570679 157.4627228  21.4041767  95.9903870 158.0092010  21.5397797
  94.3261719 157.6567078  22.1891956  94.3462830 157.7783813  20.0511608
  95.1220398 157.9450226  19.3038101  93.6843262 158.6314850  20.1998730
  93.5995712 156.4607086  19.5669785  92.5272522 156.5969238  19.7072487
  93.8874817 156.2047119  18.0632038  94.9699020 155.7211304  17.6355743
  92.9403534 156.4387970  17.1698933  91.9788666 156.4107819  17.4778881
  93.1059418 156.3150635  15.7058392  94.1466217 156.2184906  15.3964024
  92.3394699 155.0481110  15.1997347  92.6093826 154.2447357  15.8851900
  91.2665558 155.2357635  15.2415428  92.6600723 154.7060089  13.8765736
  92.0380402 154.0184174  13.6278229  92.6664658 157.5667267  15.0062943
  91.8418274 158.3138580  15.5548735  93.2521667 157.9124756  13.8592587
  94.0910797 157.4287872  13.5722694  92.7473602 158.9804840  12.9910936
  92.1710587 159.7555389  13.4963331  94.0100098 159.7466736  12.4200420
  93.6633301 160.5340271  11.7507238  94.7922592 160.4249573  13.5277958
  95.4573059 159.6952515  13.9896955  95.3554916 161.2674408  13.1264563
  94.1334610 160.8061981  14.3080168  94.8028564 158.7682495  11.8414364
  95.2189484 159.1230164  11.0523758  91.9201508 158.3950043  11.8460388
  91.3621140 159.1902618  11.0623522  91.9223862 157.0725555  11.6510134
  92.2170715 156.3725433  12.3167686  91.3085251 156.5161133  10.4550943
  91.8247147 157.0135345   9.6339779  91.5303040 154.9849701  10.4158115
  91.0462418 154.5966492  11.3119049  90.9486923 154.5772400   9.5890217
  92.9963226 154.4970398  10.2141380  93.5324173 154.8253174  11.1046124
  92.9730988 153.4073181  10.2223082  93.6429825 154.9791718   8.9190950
  92.9958572 155.2456055   7.8800292  94.8797150 155.0975800   8.9142609
  89.7735138 156.8314819  10.4142408  89.0396881 156.5920410  11.3764887
  89.4021683 157.3666382   9.2862883  90.0636063 157.5539093   8.5463371
  88.0229111 157.6740265   8.9942827  87.9995270 158.0170898   7.9599447
  87.2459030 156.3107910   8.9112625  88.0006027 155.5658722   8.6590366
  86.8559570 156.0483856   9.8947220  86.1686401 156.2570953   7.8810339
  84.8231888 156.6159363   8.0746193  84.2234573 156.3250122   6.9128904
  83.1591034 156.3680573   6.7348199  85.1314545 155.8844299   5.9930859
  84.8544617 155.6192169   5.0587239  86.2972031 155.7991791   6.6293807
  87.2195053 155.3733826   6.2626982  87.4093933 158.7196808   9.9802351
  86.1944656 158.9110565  10.1483917  88.2556686 159.5344238  10.6900206
  89.2516022 159.4743347  10.5331450  87.7341537 160.2849579  11.8486166
  87.1851349 159.6279144  12.5231371  89.0321884 160.8122253  12.5097466
  89.6978149 159.9840546  12.7530117  89.5451431 161.5247345  11.8637333
  88.6416702 161.5738373  13.6632433  89.3982315 162.0684052  13.9866943
  86.8590469 161.5182648  11.3873034  87.1688232 162.1610260  10.3997288
  85.7650452 161.7997284  12.0340939  85.6256866 161.4415283  12.9681015
  84.7538834 162.7694092  11.6008549  84.5598068 162.6334076  10.5369310
  83.4177628 162.3311005  12.2427511  83.4858093 162.3880157  13.3291359
  82.6266861 163.0302124  11.9715328  82.8774490 161.0165100  11.8851986
  83.0536423 160.3348694  10.8084126  83.5450745 160.7278748   9.9306602
  82.3846436 159.0998230  10.9056025  82.3563232 158.4501343  10.1328259
  81.9560089 158.8407745  12.1489038  81.3476486 157.8102722  12.7979956
  81.0672607 156.8890839  12.3089247  81.0496902 157.9226685  14.1891108
  80.8879547 156.9838867  14.6979446  81.2643051 159.1034088  14.9230490
  81.1716537 159.0928955  15.9990158  81.8241272 160.1865234  14.1970291
  82.0698166 161.0919952  14.7319822  82.2524033 160.0475616  12.8345060
  84.9931412 164.2535858  11.8985586  84.2527008 165.0582275  11.3135757
  85.9928207 164.5708618  12.6881771  86.5599670 163.8019257  13.0155525
  86.4561539 165.9459686  13.0758533  85.9252167 166.7293396  12.5349808
  86.2504959 166.1089630  14.5527735  86.7114182 165.3207092  15.1480217
  86.6818161 167.0639648  14.8528042  84.7628021 166.2418365  14.9079294
  84.0484848 167.4613800  14.6914148  84.6427002 168.2803040  14.3137064
  82.7064362 167.6106415  14.9399853  82.2183304 168.5359802  14.6718006
  82.0683899 166.5239410  15.4812956  81.0385971 166.6629486  15.7755919
  82.6769714 165.2969208  15.6541967  82.0620499 164.4855042  16.0145721
  84.0150146 165.1414948  15.4113121  84.5436630 164.2212524  15.6115294
  88.0304947 166.0760345  12.7773352  88.8323364 165.4776001  13.5312672
  88.4073486 166.8625031  11.6777916  87.6236801 167.5671844  10.6744480
  87.4117508 168.5868378  10.9961166  86.6969681 167.0232849  10.4914446
  88.4076691 167.5932159   9.3283577  88.0486374 168.4172058   8.7117176
  88.1901093 166.6293182   8.8682871  89.8830185 167.5923462   9.8086329
  90.2104187 168.6266785   9.9138079  90.4696884 167.1495361   9.0037479
  89.7975922 166.8068542  11.1553192  89.8738480 165.7524872  10.8896036
  90.8476791 167.1644135  12.1636095  90.9237061 168.2764740  12.7412014
  91.8573151 166.2766724  12.3856058  91.8130341 165.3500671  11.9861593
  92.9888535 166.4739227  13.2326365  93.7769623 165.7467194  13.0372944
  93.3732452 167.4903107  13.1472483  92.7713776 166.2156677  14.6937723
  93.4231262 166.8449097  15.5000734  91.8581085 165.3078766  15.0245695
  91.2241287 164.9510193  14.3239851  91.6466293 164.6709747  16.3174725
  92.5018311 164.9953613  16.9103546  90.3808517 165.1452484  17.0342216
  89.5542221 164.9260864  16.3583984  90.2648315 164.4957428  17.9018478
  90.3079376 166.5956879  17.4533157  90.4564590 166.8444977  18.8303661
  90.5241470 166.0397949  19.5474911  90.4164200 168.1570282  19.2931309
  90.5049667 168.4001312  20.3416824  90.1346817 169.1710815  18.4043999
  90.0643616 170.4315338  18.8531818  90.3075790 170.4729614  19.7809372
  89.9246292 168.9172668  17.0796280  89.6907501 169.7705078  16.4602089
  90.0260468 167.5858917  16.5503635  89.8316193 167.2984161  15.5276423
  91.7156754 163.1862030  16.2017117  91.0916367 162.5995026  15.3606300
  92.4245682 162.5448303  17.1307945  92.9697495 163.0309448  17.8283463
  92.3875504 161.1198425  17.2691555  92.2098694 160.6337891  16.3098373
  93.7216797 160.6284485  17.8449554  93.9239044 161.0716095  18.8200550
  93.6494827 159.5651398  18.0735989  94.5188828 160.8268890  17.1285839
  91.2652893 160.6618500  18.1874733  91.0671921 161.0994720  19.3260841
  90.3666153 159.7628021  17.6225224  90.5537720 159.4108734  16.6945076
  89.2846451 159.0961761  18.3427887  88.8402405 159.9090881  18.9170589
  88.2018967 158.7188873  17.3408165  87.3410034 158.4505615  17.9531631
  87.8725128 159.6298981  16.8411655  88.4474869 157.7342834  16.2839775
  88.5651550 158.0311432  14.9860678  88.6461716 159.0288239  14.5805254
  88.7437973 156.9000397  14.2511663  88.9057007 156.8781128  13.2544680
  88.5864944 155.7497711  14.9811859  88.6379089 154.3832397  14.6886845
  88.7233124 154.0119781  13.6781092  88.5064392 153.4673920  15.7588415
  88.5889130 152.4202576  15.5076199  88.3167572 153.9900360  17.0704937
  88.3256531 153.3794098  17.9612541  88.3154526 155.3277893  17.3012924
  88.2847366 155.6792755  18.3220310  88.4444733 156.2668610  16.3029499
  89.6961670 157.9186249  19.2241383  90.4891739 157.0983734  18.7507668
  89.2084198 157.7387543  20.4098740  88.6376266 158.5339813  20.6586761
  89.5934906 156.6425934  21.3342266  89.8651047 155.7902069  20.7115078
  90.8050613 156.9563293  22.2153816  91.6588364 157.1047211  21.5542088
  90.8465195 158.2017822  23.0557175  90.0654755 158.0954742  23.8085575
  91.8156509 158.1927643  23.5545311  90.7166672 159.1825714  22.5982189
  91.0015488 155.8661194  23.0580463  91.8048706 155.9663544  23.5740185
  88.3028717 156.2827301  22.0464039  87.5381622 157.1631622  22.4805565
  87.8651276 155.0188751  21.9603519  88.6077728 154.3343506  21.9586868
  86.4991074 154.5565338  22.1977501  85.8455811 155.1062622  21.5203991
  86.5154190 153.0743103  21.9251900  87.2886353 152.6544342  22.5685692
  85.0737152 152.4278412  22.2069645  84.2642441 152.7629395  21.5584507
  85.2521591 151.3890839  21.9290428  84.8018188 152.4607239  23.2620010
  86.9414825 152.7291260  20.4293633  86.0451279 152.4679108  19.8668594
  87.3041458 153.6332092  19.9402618  87.8091202 151.4974518  20.1964989
  87.3383102 150.7009430  20.7726841  87.9358368 151.2536469  19.1417007
  88.7929001 151.7051239  20.6174068  86.0044708 154.8159180  23.6503487
  86.6348648 154.3583527  24.5690193  84.8343201 155.4673157  23.7148571
  84.3953857 155.8294373  22.8804073  84.0679245 155.5654449  24.9524879
  84.7478638 155.5860291  25.8041706  83.2521286 156.8821869  24.9072971
  82.5970459 156.7883606  24.0411720  82.5398407 156.8088989  25.7291164
  83.9018097 157.7525330  24.8151512  83.1710129 154.3062897  25.1026211
  82.3595352 153.9690094  24.2268658  83.3505325 153.5620270  26.2491951
  84.1143951 153.7635193  26.8784885  82.2774963 152.7106018  26.8418884
  81.5006485 152.8750763  26.0951900  82.8313141 151.2268677  26.8686676
  83.7483902 151.1469727  27.4523487  82.1045456 150.5706482  27.3474998
  83.1504974 150.5648651  25.4788399  82.2268448 150.5483093  24.9003143
  83.9758987 151.1043396  25.0143070  83.7938538 149.2198029  25.6408310
  84.9452591 148.9590302  25.5689335  83.0008011 148.2212677  26.0368347
  83.4049911 147.3164520  26.2318592  82.0372467 148.3770599  26.2964516
  81.7566452 153.2229614  28.1187649  82.3444061 153.8918457  28.9664421
  80.5134125 152.9093323  28.4313850  79.9651031 152.3929291  27.7584858
  79.9015732 153.1366882  29.7161274  79.7931442 154.2050781  29.9028339
  78.4229431 152.6562958  29.7020855  77.9225998 153.0408325  28.8133240
  78.4734879 151.5681152  29.6644363  77.6371307 153.2825623  31.1998978
  76.3667297 153.0650482  30.8482361  80.6442871 152.4452209  30.9130249
  80.8430710 151.2619324  30.9127903  80.9832764 153.1708069  31.9691677
  80.7889099 154.1523895  31.8319492  81.7168350 152.7557678  33.1388206
  82.6473541 152.2476654  32.8856735  82.1334457 153.8815765  33.9559479
  82.8943329 154.4438019  33.4146004  81.2637482 154.4833679  34.2197189
  82.8083649 153.4924011  35.2856255  82.1146545 152.9557190  35.9328079
  83.5600128 152.7248535  35.1012497  83.5089340 154.6735840  35.9085083
  82.7788773 155.4718018  36.0425148  83.9171829 154.4430847  36.8925323
  84.6616669 155.1456146  35.0686836  85.0065613 154.5125275  34.3613205
  85.4963608 156.1785278  35.2947426  85.4221344 156.9832458  36.2943535
  84.6361618 156.8821411  36.9205589  85.9704285 157.8307953  36.3281822
  86.5144272 156.3487549  34.4316978  86.4639130 156.0494385  33.4683914
  87.2352753 157.0419006  34.5732040  81.0014725 151.6203766  33.9188309
  81.6694183 150.7333679  34.4115677  79.6265411 151.6457825  33.9968338
  79.0919952 152.3014984  33.4451294  78.9596710 150.6717377  34.8896561
  79.6276474 150.2967834  35.6651001  77.7971954 151.4630890  35.6634674
  77.1778030 151.9468536  34.9081955  76.8977737 150.6337280  36.4803391
  77.4108887 149.9878082  37.1927986  76.1524734 151.2477417  36.9859009
  76.3654327 149.9112396  35.8616753  78.4152908 152.6929779  36.5215302
  78.7306824 153.4624023  35.8168182  77.5393524 153.1533813  36.9785347
  79.4924469 152.3350067  37.5158882  80.4090500 151.9541931  37.0654221
  79.8230820 153.1656647  38.1393967  79.0829086 151.5722198  38.1781158
  78.4431686 149.3757629  34.2384644  78.3458328 148.3439636  34.9497452
  78.1361237 149.3936310  32.9489822  78.2958450 150.2709045  32.4746475
  77.6161575 148.2136993  32.2027931  77.4831772 147.3611755  32.8688431
  76.1651077 148.5744019  31.7276230  75.7463837 147.6991577  31.2309055
  75.5296478 148.8606567  32.5656776  76.3510895 149.9467621  30.5666542
  75.2119675 149.7449036  29.8984146  78.5080185 147.6985168  31.0436115
  78.2432404 146.6391754  30.4636326  79.5112839 148.4822083  30.6195107
  79.6457138 149.3359528  31.1421413  80.4161987 148.1937561  29.5107822
  81.3294983 148.7681427  29.6659145  80.7334595 147.1544342  29.5959568
  79.8359985 148.4075165  28.0522213  80.4174957 147.8921967  27.0899391
  78.6907272 149.1186523  27.8947792  78.1347122 149.3191681  28.7137680
  78.0749741 149.4933624  26.5779324  77.9205170 148.6188965  25.9458275
  76.6681671 150.0154877  26.8634529  76.1628494 149.2085114  27.3940582
  76.7093582 150.9293518  27.4561195  75.8591843 150.3532410  25.6305275
  75.7920074 149.6142883  24.6574516  75.2523346 151.5110321  25.5961227
  74.9359894 151.7246399  24.6610336  75.2851028 152.2064056  26.3278866
  78.8861923 150.5375519  25.8046265  79.5947952 151.3106079  26.4002609
  78.8506622 150.5251160  24.4807549  78.3798752 149.6980591  24.1424541
  79.4684982 151.4875946  23.5531902  80.5247879 151.6690063  23.7517872
  79.3375092 151.0208282  22.1104946  79.9722595 150.1435394  21.9857445
  78.3246078 150.7357788  21.8260880  79.7485733 152.0219116  21.0679493
  78.9082031 152.3621674  19.9852257  79.5863647 153.4112396  19.4408283
  79.1421738 153.9709320  18.6309891  80.7545471 153.6503296  20.0539646
  81.4767303 154.3204193  19.8314514  80.8761292 152.7750549  21.0822773
  81.6760101 152.7584991  21.8077698  78.7383194 152.8879700  23.6559048
  77.5064850 152.8430481  23.7192383  79.4788055 154.0186920  23.7368145
  80.4792252 153.9306946  23.6295071  78.9478836 155.3250732  24.0429325
  77.8655624 155.2958679  23.9171486  79.1423798 155.6655579  25.5290279
  80.1591034 155.3700104  25.7879257  78.9831161 156.7232666  25.7387238
  78.2126617 154.8695221  26.4823132  78.3194885 153.8012238  26.2941189
  78.5439148 155.0025940  27.5121994  76.4537048 155.1729279  26.2148132
  76.3432693 156.9287415  26.5751553  76.8794327 157.6093750  25.9138393
  75.2807846 157.1716919  26.5897884  76.7571030 157.1399841  27.5611668
  79.4906845 156.3553162  23.0760994  79.1434326 157.5098724  23.2665501
  80.2667465 156.0487823  22.0681934  80.4244308 155.0757294  21.8482285
  80.8250427 156.9811859  21.1150379  80.6248093 156.7081604  20.0789566
  80.3928986 157.9767303  21.2162781  82.3277969 157.0917969  21.3449059
  82.9611511 156.0670776  21.5604382  82.8743744 158.2820740  21.3305874
  82.2318497 159.0380402  21.1414566  84.3508987 158.5155334  21.3368759
  84.9242477 157.7556152  21.8677959  84.8748932 158.4899902  19.8548203
  84.3916473 159.3248138  19.3472500  85.9409561 158.7083435  19.9175625
  84.6291809 157.2481537  19.1117554  85.4752274 156.1949463  19.0962105
  86.4723053 156.1713257  19.5105400  84.9556274 155.1638794  18.4190350
  85.5045624 154.3460846  18.1954746  83.6617737 155.3960114  18.1173115
  82.7142944 154.5762939  17.5258675  82.9402466 153.5410309  17.3171196
  81.4659729 155.1736755  17.1644592  80.7042313 154.5605011  16.7060204
  81.1712646 156.5348053  17.4285049  80.1945877 156.9675903  17.2697430
  82.1748810 157.3251495  18.0739708  82.0315018 158.3842926  18.2291336
  83.4353180 156.7929535  18.4147892  84.7690582 159.7860413  22.0179710
  84.2818604 160.9021149  21.7956409  85.8733597 159.6283875  22.7510395
  86.3184204 158.7556305  22.9966812  86.7491837 160.8091125  23.1582642
  86.1969757 161.6949005  23.4722080  87.7205048 160.2843018  24.2821312
  87.2109375 160.0125580  25.2065678  88.2858734 159.4290161  23.9120712
  88.7063751 161.3561096  24.7233772  89.4926682 161.4990845  23.9821606
  88.1862946 162.3002014  24.8855305  89.3413239 161.0316162  26.1127243
  88.5875397 160.9694519  26.8976097  89.8485794 160.0751495  25.9863873
  90.2671661 162.2108917  26.4925671  91.1249847 162.2829437  25.8239307
  89.7351227 163.1454926  26.3149490  90.7775192 162.0039215  27.8556767
  91.3249359 161.1592255  27.9389038  91.5374451 162.6342926  28.0683670
  90.0830307 161.9542542  28.5873356  87.6250305 161.1128235  21.8853970
  87.9215698 160.2055664  21.1120529  88.0235367 162.3949585  21.8466969
  87.8112335 163.0170441  22.6135235  88.8201904 163.0995941  20.7709637
  89.3703842 162.3981476  20.1437798  87.8755875 163.8946381  19.8878651
  87.2431870 164.4969177  20.5401230  88.4780121 164.4638519  19.1799202
  87.0404816 163.0578766  18.9794636  87.5774231 162.7181244  17.7213631
  88.6268997 162.8348999  17.4947224  86.7383194 162.1339569  16.7599449
  87.1422043 161.8538055  15.7982836  85.3997192 161.8721008  17.0049934
  84.8197556 161.4264832  16.2103386  84.8876648 162.1846466  18.2605209
  83.8383865 161.9773712  18.4103985  85.6587830 162.7569427  19.2563305
  85.1261292 163.0320587  20.1546612  89.8908920 163.9268341  21.4261570
  89.6289215 164.8831177  22.1603146  91.1554565 163.5995026  21.1926060
  91.3640213 162.7957916  20.6175728  92.4033279 164.3148499  21.5816650
  92.0808640 165.0597687  22.3091393  93.3869019 163.4094543  22.4046688
  94.2805023 164.0101929  22.5740681  92.9088745 163.0510101  23.7752934
  91.9965057 162.4743958  23.6228867  93.5559235 162.3410950  24.2905273
  92.6064529 163.9367065  24.3340302  93.7894211 162.1069794  21.8841648
  94.4567795 162.2354279  21.2061253  93.0138474 164.9494629  20.3624935
  93.0474854 164.3192291  19.3476391  93.5610504 166.1526031  20.4730778
  93.5879517 166.7147522  21.3117447  94.1031265 166.7832794  19.3037415
  93.3567581 166.6265717  18.5249786  94.1712646 168.2872314  19.5405560
  94.6768799 168.5146637  20.4790306  94.6378784 168.8248444  18.7151222
  93.1340485 168.6188812  19.4925652  95.4257202 166.1803589  18.8531895
  96.2660751 165.8818970  19.6660748  95.6881256 166.1235657  17.5083218
  94.9808731 166.3351593  16.8190289  97.0203781 165.7292633  17.0304260
  97.4380035 165.0146027  17.7396202  97.0213013 165.0658264  15.6373453
  98.0296326 164.7116699  15.4229746  96.2395706 163.7541504  15.7066145
  95.1682281 163.9549713  15.7092400  96.4433060 163.1503754  14.8222857
  96.5509872 163.2584229  16.6260490  96.5553894 165.8618011  14.5933762
  97.1701431 166.5648956  14.3712482  98.0138245 166.8424530  17.0506954
  99.1348343 166.6920013  17.4882507  97.6455154 168.0423431  16.6321716
  96.7225723 168.2790070  16.2970963  98.4747467 169.2549438  16.7667675
  99.5193558 168.9463196  16.7261200  98.2975464 170.1608276  15.5736341
  97.2503662 170.4551849  15.5038071  98.8334351 171.0984650  15.7211971
  98.6990509 169.5328522  14.1893454  99.7495193 169.2726135  14.3193293
  98.1075897 168.6396790  13.9880285  98.5404892 170.4235382  12.9483795
  99.3343201 171.1704254  12.9383640  98.6571960 169.7545319  12.0957937
  97.1734543 171.1574402  12.8432903  96.4311447 170.5707550  13.3844652
  97.3544006 172.0733185  13.4058971  96.7993774 171.5282288  11.4529829
  96.5842896 170.7118073  10.8986359  95.9531784 172.0776062  11.5004196
  97.5904922 171.9882202  11.0256052  98.3676147 169.9368286  18.0871906
  97.2599792 170.0624542  18.6201515  99.4967346 170.5040894  18.6099892
 100.3502655 170.3268585  18.0999146  99.6470718 171.1227722  19.9551010
  99.2919006 170.3627930  20.6510773 101.1603851 171.1736450  20.2007771
 101.2928314 171.3134460  21.2736301 101.7064285 170.2696381  19.9311161
 101.8672714 172.3795776  19.4735603 101.7868729 172.2708435  18.3919811
 101.4091415 173.3181915  19.7853565 103.3923111 172.4094238  19.8930817
 103.5241165 172.4754333  20.9730682 103.9668884 171.5701904  19.5011158
 103.9935760 173.6804504  19.3583565 103.4395905 174.5329590  19.7513199
 105.0000534 173.6978607  19.7764378 104.1094131 173.6818390  17.8619099
 103.3129349 173.2772980  17.3906670 104.1188126 174.6053772  17.4531631
 104.8909760 173.1315613  17.5356236  99.0536652 172.5277710  20.1902313
  98.9553070 172.9320068  21.3227596  98.7450562 173.3163757  19.1085758
  98.8017578 172.9414520  18.1724567  98.1584702 174.6777039  19.1527042
  98.3262329 175.1663361  20.1124954  98.8669205 175.5718384  18.0598354
  98.4000168 176.5567017  18.0480766  99.9046097 175.8245850  18.2775593
  98.8516998 175.0902252  16.5938492  98.3846512 173.9384613  16.3670025
  99.2320404 175.8543091  15.7549896  96.6415253 174.6903534  18.9706535
  95.9884415 175.7217712  19.1530361  95.9937973 173.5312195  18.7711010
  96.5805130 172.7336273  18.5718269  94.5578766 173.4294128  18.6682281
  94.2011261 174.1964417  17.9808464  94.1666412 172.0588531  18.1154823
  94.6347656 171.2893829  18.7293854  93.0783920 172.0697784  18.1763458
  94.6690369 171.8610535  16.6842175  94.1492615 172.5773163  16.0478878
  95.7546234 171.9541168  16.6535606  94.3134842 170.1386871  15.9842911
  92.5687332 170.3657990  15.7332001  92.3886032 171.0178986  14.8785563
  92.1438599 169.4021454  15.4522123  92.0827789 170.6622467  16.6627541
  93.7916718 173.6195984  19.9562035  94.2634659 173.2237549  21.0405712
  92.6141434 174.1772308  19.8480606  92.3434906 174.5691528  18.9574146
  91.6611328 174.3550110  20.9179020  91.8591385 173.6622314  21.7357979
  91.7203751 175.7667542  21.4305744  92.6232071 175.8717346  22.0322170
  91.6406937 176.4476013  20.5831013  90.5905380 175.9558716  22.2426491
  90.7698746 176.6241608  22.9081020  90.2478180 174.1138000  20.2871723
  89.9535904 174.7194519  19.2306061  89.4042282 173.3020782  20.9948826
  88.0045319 172.9849548  20.6053257  87.8745651 172.6394348  19.5797386
  87.3166733 173.8231354  20.7167091  87.6352768 171.8592682  21.6106110
  88.1423950 170.9266357  21.3633785  86.5531158 171.7599640  21.6952267
  88.3604507 172.2584686  22.8652115  88.6030655 171.4299164  23.5305920
  87.8904114 173.0802460  23.4054432  89.7429504 172.7597809  22.3077316
  90.1960602 173.5285797  22.9336166  90.7557373 171.5875702  22.3472843
  90.8319321 170.8359070  21.3743229  91.6079102 171.4656372  23.3547688
  91.6682281 172.2933960  23.9303265  92.6433640 170.3911896  23.4536343
  93.2420959 170.4968109  22.5489483  93.6166458 170.6626740  24.6495018
  94.2399673 171.5133209  24.3738956  93.0500259 170.9153900  25.5457058
  94.5310593 169.5428162  25.1114235  95.0542450 169.9903107  25.9564762
  93.9998703 168.7006378  25.5549278  95.5427933 169.0256195  24.1069489
  96.0734711 169.7351074  23.2476521  95.9133759 167.7889099  24.2171402
  96.6509933 167.4642944  23.6083298  95.5185394 167.1734619  24.9138699
  92.1248322 168.9035339  23.5095577  92.8588715 167.9674072  23.0743217
  90.8903580 168.7278900  23.9565620  90.3937683 169.5923767  24.1183071
  90.0523071 167.4532013  23.9573746  90.3466339 166.8289490  23.1137009
  90.3477478 166.7552948  25.3205204  89.7877884 165.8212738  25.2741604
  91.3913193 166.4583435  25.2161942  90.0797958 167.5562134  26.5679512
  90.4817886 168.5691376  26.5454044  88.9993286 167.6548157  26.6726246
  90.4970474 166.8458710  27.8776035  89.7673264 167.0986481  28.6468353
  90.5146027 165.7673798  27.7205563  91.8698502 167.2952271  28.3743153
  92.5901413 166.9653168  27.6256886  91.8073349 168.3753052  28.5070553
  92.2838516 166.7155914  29.6955490  92.2179642 165.7248840  29.8806496
  93.2607040 166.9330902  29.8317146  91.7720947 167.2294464  30.3985214
  88.5713882 167.7773438  23.8637905  88.0468826 168.8222809  24.2970505
  87.7488937 166.8253479  23.3214722  88.2442093 165.9950256  23.0294018
  86.3102722 166.7531281  23.5060387  85.9549942 167.1416016  24.4604816
  85.6492386 167.6613312  22.5026360  84.5919342 167.7594757  22.7487755
  86.0672150 168.6639404  22.4122791  85.6342621 167.0348358  21.0583649
  86.6930923 167.3684845  20.2065773  87.5465546 167.9523926  20.5180912
  86.6704941 167.0064850  18.8592949  87.4240189 167.2161560  18.1145515
  85.5614319 166.2709045  18.3922443  85.4914780 165.9526825  17.3625641
  84.4405365 165.9663849  19.1995201  83.5917892 165.4466553  18.7801094
  84.4757309 166.3679199  20.5559025  83.6150436 166.1396179  21.1670418
  85.7731934 165.3110352  23.4874096  86.5175323 164.3687744  23.3651848
  84.5060425 165.1375122  23.6387348  83.9792862 165.9698944  23.8617649
  83.7787552 163.9429016  23.5950489  84.3664856 163.1524506  23.1282921
  83.4641495 163.3360291  24.9227829  82.8071671 164.0459595  25.4252377
  82.8396912 162.4465637  24.8389931  84.5756531 163.0093689  25.8507309
  85.2137146 163.9035645  26.6067028  85.0685043 164.9679565  26.4953423
  85.9838104 163.3800659  27.5546684  86.4886932 163.9487457  28.2193470
  85.8714981 161.9756165  27.5098038  86.2548141 161.0318451  28.4045334
  86.7953568 161.3016205  29.2997684  85.9904022 159.6619568  28.1171436
  86.2058258 158.9257812  28.8774319  85.2970886 159.3256378  26.9450893
  84.9761505 158.3144531  26.7428741  84.7747955 160.3723297  26.1209335
  84.2156830 160.1253357  25.2305470  85.0832672 161.7302551  26.3573971
  82.5292969 163.9714050  22.6573296  81.6591797 164.8432922  22.7594490
  82.5386276 163.1536102  21.6597137  83.2972488 162.4868622  21.6665573
  81.4970474 162.8220673  20.7291050  80.7093353 163.5666504  20.6142483
  81.8907776 162.6328430  19.7304688  80.7616043 161.5053253  21.1444359
  81.1636200 160.4165802  20.8150730  79.6969604 161.6616364  21.9125919
  79.3393936 162.6053314  21.9535522  78.8956299 160.5878296  22.4893436
  79.4951782 159.6805115  22.5629501  78.5043106 160.8980865  23.9369545
  77.7767792 161.7047119  23.8466606  77.9219284 160.0677490  24.3362789
  79.6621399 161.3398438  24.8948383  80.0387802 162.2710114  24.4715691
  78.9800949 161.6711273  26.1831341  78.6684265 160.7314453  26.6391811
  79.7410812 162.2220459  26.7358456  78.1403656 162.3396606  25.9933395
  80.7676620 160.3185577  25.0965023  81.3928299 160.1721344  24.2156963
  81.4133987 160.5813293  25.9344006  80.3365707 159.3374939  25.2960072
  77.6870270 160.2312317  21.6323566  77.1341248 161.2372589  21.1667747
  77.4218521 158.9687805  21.4364185  77.7413864 158.2334137  22.0506153
  76.3225555 158.4766083  20.5371857  76.4778595 159.0762024  19.6402626
  76.5698547 156.9598389  20.0979519  75.6390305 156.5985260  19.6607685
  77.6434402 156.7372589  19.0345688  78.5782089 157.1944427  19.3590546
  77.8978043 155.6927795  18.8543816  77.3071976 157.2284241  18.1214466
  76.9817734 156.1740417  21.1995869  76.2425461 156.0244446  21.7935333
  74.9548111 158.7172852  21.2258034  74.5826874 158.0829620  22.2033806
  74.2200546 159.7433777  20.7047825  74.6707916 160.2294006  19.9427338
  72.9333344 160.2635498  21.2112255  73.1469345 160.4849091  22.2569218
  72.5623169 161.6308746  20.6087036  71.8195953 162.1152496  21.2426167
  73.4965591 162.1879120  20.6793633  72.0536499 161.5442200  19.1626396
  72.7025757 162.1648102  18.5446854  72.1607056 160.5051270  18.8513317
  70.6402740 161.9804993  18.9611073  70.4540482 162.9782410  19.3585091
  70.4801712 161.9599457  17.8831253  69.6806335 161.0972443  19.6593437
  69.3454666 161.3221436  20.5851879  68.9109039 160.2385254  18.9724865
  68.9996643 159.8592072  17.7372303  69.5714569 160.3425140  17.0593166
  68.1511536 159.4617615  17.3601913  67.9280396 159.7827301  19.6538849
  67.7978516 160.1894379  20.5691681  67.2185287 159.1952972  19.2396164
  71.7590332 159.2516632  21.2598267  70.9134293 159.3210602  22.1411839
  71.8524933 158.2449646  20.3198566  72.4784012 158.4554901  19.5556412
  71.0624924 157.0363159  20.3144703  70.0099792 157.3178711  20.3467560
  71.4420395 156.2725372  19.0523872  70.8824539 155.3552246  18.8693771
  71.2173233 156.8830414  18.1778049  72.7655334 155.7656860  19.0738525
  72.7633133 154.9255219  18.6094055  71.2497711 156.0679169  21.5359211
  70.3199997 155.3488922  21.9078617  72.3621216 156.2235260  22.2651539
  73.0616837 156.8029938  21.8236446  72.7389603 155.5257568  23.5537357
  72.1106339 154.6361237  23.5966034  74.2429047 155.0710297  23.3884888
  74.9028320 155.9354706  23.4615974  74.4757233 154.3819885  24.2003536
  74.4088287 154.6403961  22.4010029  72.4329224 156.3838043  24.8429470
  72.5860672 155.8724060  25.9193363  72.0201492 157.6062775  24.7083416
  71.6930237 158.0088196  23.8417168  71.7415466 158.4182281  25.8964806
  72.1426315 157.9009094  26.7680359  72.5130234 159.7909698  25.7080040
  72.0926285 160.2734680  24.8256474  72.2358475 160.3792114  26.5827904
  74.0070801 159.8584137  25.6150570  74.4438171 159.0828094  24.9859219
  74.4022827 161.2826385  25.1211777  73.7086182 162.0119324  25.5395718
  75.4296112 161.5118866  25.4043007  74.4224396 161.2425385  24.0321026
  74.5497894 159.7789459  26.9945526  74.0859833 159.0041046  27.6049728
  75.6172943 159.5586395  26.9977341  74.4420242 160.7471619  27.4834518
  70.2931137 158.7453308  26.2902927  69.4228592 158.7962341  25.4217052
  70.0563889 158.8340149  27.6147919  70.8497314 158.7990417  28.2388763
  68.7402725 158.9883270  28.2606850  67.9488983 159.2273407  27.5502663
  68.3397522 157.7151337  28.9807739  68.5296631 156.8573914  28.3355579
  69.0879211 157.5534058  29.7567787  66.9254532 157.6287994  29.4742699
  66.7726746 158.5611572  30.0178566  65.9070816 157.4037781  28.3592033
  66.1725540 156.5041046  27.8040409  64.9028549 157.2768402  28.7635651
  65.8414001 158.2794189  27.7134094  66.7497025 156.4550323  30.4595184
  67.4366913 156.6027222  31.2927895  65.6969757 156.4738312  30.7415028
  66.9435654 155.5111847  29.9499531  68.7545547 160.1930847  29.2031250
  69.4309998 160.1805420  30.2038231  68.0143204 161.2853546  28.8802986
  67.3755646 161.6277466  27.6503582  66.3269882 161.3358002  27.7083168
  67.7581253 161.0884247  26.7838192  67.7152405 163.1259613  27.4149780
  66.9369659 163.5087585  26.7547855  68.7358932 163.3209076  27.0857964
  67.6262817 163.6480408  28.8636398  66.5912476 163.9698792  28.9786434
  68.3405151 164.4596252  29.0026684  67.9391327 162.4511414  29.7616138
  68.8967819 162.6141205  30.2560272  66.9268570 162.2375336  30.8980026
  65.8693695 162.8284149  30.9396076  67.2654572 161.3989868  31.8578682
  68.1059723 160.8598938  31.7061539  66.5900574 161.1623993  33.1345406
  65.5268555 160.9795990  32.9786873  67.2653427 159.8800507  33.8143539
  67.1637726 159.0552368  33.1090279  68.3207855 159.9787292  34.0681343
  66.6282730 159.4395599  35.1460190  67.0298004 160.0958405  35.9181442
  65.5527115 159.5976105  35.0667076  66.9663620 158.0460510  35.5569496
  67.9954529 157.8139496  35.2827415  66.8648224 157.8907471  36.6310425
  66.0990829 157.0315704  34.9163780  65.4953079 157.4600067  34.2293587
  65.8259354 155.8603058  35.3550110  66.3235855 155.4655151  36.5146561
  66.9855042 155.9678497  37.0887833  66.0438766 154.6044769  36.9624138
  65.0648270 155.0420990  34.7083168  64.7091293 155.2824249  33.7940826
  64.7766800 154.1886292  35.1651230  66.6388779 162.3668213  34.1022186
  65.5702744 162.8271027  34.5551605  67.7534561 162.8240509  34.4492111
  83.6239090 154.1161957  14.1549778  82.6384354 153.2388000  14.7587223
  83.9319611 152.7366943  14.0287733  82.1181564 151.9500885  15.2638998
  84.0068741 151.4775238  14.1166725  82.9401016 150.8514099  14.8609514
  81.0420151 151.4722137  15.9500895  82.3765488 149.7500763  15.2350283
  80.9798813 150.2898560  15.0907822  81.2786407 150.8526917  17.1645107
  82.2720718 149.4753876  16.5799580  79.8363190 149.5031586  14.7675123
  81.3192139 149.4907074  17.6000309  79.7856827 148.5180511  14.0339947
  85.1856155 155.3683624  11.9134893  84.9266968 155.9693604  12.9657421
  84.0659790 155.4401245  13.9820814  85.5354004 157.2844238  13.1298981
  83.9575806 156.3815460  14.8899956  85.3656006 158.1960449  14.3219233
  84.4394684 157.3882294  15.1113558  85.6214371 159.3633575  14.4080505
  86.0237122 157.6654968  12.3280878  78.7283936 150.1102448  15.2901249
  77.4315033 149.5119476  15.4282570  77.4251862 148.2586060  16.2026920
  76.5746689 150.4842682  16.1444626  76.9605713 149.3473358  14.1170807
  82.4399948 150.0814972  18.0083618  83.2920914 150.1240234  19.1895828
  82.6833725 150.1198273  20.5180206  84.6401291 149.6576385  19.2798862
  83.1572800 149.5336456  21.4901447  85.0345001 149.1118622  20.3542576
  84.2966232 149.0063324  21.3357048
