Cpptraj Generated Restart                                                       
 6188  4.0000001E-01
  90.5274811 180.2960968  24.6070194  91.5035172 180.2906799  24.3473434
  90.4570770 179.3522797  24.9596519  90.3168411 180.8940125  25.3932915
  89.6517944 180.5676270  23.3836346  88.6594315 180.4311829  23.8134098
  89.8048096 182.0502777  22.8512211  90.7851715 182.1299744  22.3815041
  89.1693497 182.2987823  22.0012035  89.5940247 183.1773529  23.8826866
  88.6850891 182.9202271  24.4265804  90.4583893 183.0317383  24.5305882
  89.5553207 184.9457855  23.4428787  87.7101212 185.0406799  23.3281727
  87.4378357 184.9410400  24.3789043  87.3837585 186.0487976  23.0726280
  87.2412872 184.3055573  22.6740513  89.7108154 179.4263611  22.3483601
  90.7484512 178.7797546  22.1157703  88.5648422 178.9665527  21.8014984
  87.7718887 179.5254364  22.0825329  88.4394760 177.9441986  20.6873932
  89.0137177 177.0669250  20.9852734  86.9758530 177.5135193  20.5500565
  86.3371811 178.3949127  20.4921608  86.8612747 176.6567078  19.3206558
  87.3833466 175.7271576  19.5475388  85.8166885 176.3866119  19.1657734
  87.2876205 177.1601257  18.4529610  86.4477005 176.6828308  21.7625141
  85.4705734 176.3002777  21.4675922  87.0127945 175.7532501  21.8306484
  86.2825089 177.4236755  23.0907784  85.5655212 178.2430420  23.0391655
  86.0001373 176.6078339  23.7561722  87.2459030 177.8294373  23.3995552
  89.0801239 178.5390320  19.4287014  89.0413895 179.7171478  19.1525993
  89.7521362 177.7668610  18.6194782  90.0131989 176.8742371  19.0133877
  90.3771133 178.1935425  17.3394260  89.9705353 179.1443939  16.9949112
  91.8863907 178.4789429  17.4939346  92.2430649 178.6816864  16.4840927
  91.9440384 179.3441620  18.1543751  92.7309570 177.2607880  17.9883957
  92.6084747 176.0846863  17.6079559  93.5590134 177.4922333  18.9430466
  94.2518311 176.7808075  19.1274204  93.8179779 178.4011841  19.2991886
  90.1122818 177.2263641  16.2138691  90.4010086 177.6351318  15.1209021
  89.6275940 175.9776611  16.3881912  89.6971436 175.5791473  17.3136406
  89.1643753 175.0165710  15.3760414  90.0003967 174.6872559  14.7590160
  88.5107574 173.8440552  16.0746365  89.2870941 173.2869720  16.5990925
  87.6964417 174.1552887  16.7289429  87.9221878 172.8491974  15.0752869
  88.8174973 171.9249573  14.4802351  89.8880157 171.9820557  14.6110821
  88.3447876 170.9243164  13.6046057  88.9768066 170.2183838  13.0863266
  86.9964142 170.7020721  13.4246502  86.6615372 169.9220581  12.7569485
  86.0855713 171.6075897  14.0412321  85.0268478 171.4432983  13.9051313
  86.5624313 172.6937103  14.8385763  85.9131393 173.4343719  15.2815790
  88.1269989 175.7836304  14.4790974  87.2341232 176.4347229  15.0102940
  88.2559052 175.7269135  13.1550560  89.0680771 175.2588654  12.7790117
  87.2131042 176.1228638  12.1935883  86.8094635 177.1052094  12.4388943
  87.7715149 176.3066254  10.8287210  88.5940704 177.0218048  10.8351622
  88.1166687 175.3258362  10.5015726  86.8227997 176.8442535   9.7577572
  85.6979675 177.3223572  10.1623869  87.2303848 176.8819427   8.5805035
  86.0087509 175.1939697  12.0904675  85.9733276 174.0406036  11.5332937
  84.8574066 175.7469788  12.5614014  84.8302155 176.7180786  12.8376923
  83.5786514 175.0747681  12.7781553  83.7232056 174.1903992  13.3987064
  82.6064072 176.0027771  13.5412188  81.6023407 175.5801239  13.5772152
  83.0891342 176.1896515  14.9568434  84.1455765 176.4360199  14.8504324
  82.5545578 176.9798584  15.4839964  82.9834137 175.2307739  15.4642735
  82.6409302 177.3346863  13.0702200  82.0009842 177.9292450  13.4684410
  82.8538589 174.6611938  11.5389290  81.9179306 173.8834076  11.5239401
  83.3906097 174.9979095  10.3587399  84.1988297 175.6024933  10.3219042
  82.9128799 174.3742523   9.0491323  81.8341904 174.2419891   9.1329937
  83.1285172 175.3528748   7.8568540  82.4947510 175.0272369   7.0319915
  82.8113480 176.3601074   8.1270266  84.4638748 175.3294373   7.4292278
  84.9510040 175.7922668   8.1148567  83.4403839 172.9555511   8.7251387
  82.7935181 172.1781769   8.0866480  84.5777512 172.6102142   9.3323774
  85.0785751 173.3580170   9.7907057  85.2048874 171.3032379   8.9112492
  85.2963562 171.3515625   7.8261652  86.5974274 171.2284546   9.4803638
  86.5843124 171.5259399  10.5289021  86.9996338 170.2157593   9.5085049
  87.6434555 172.2221375   8.8188934  87.3491669 173.2614594   8.9648132
  88.9751740 172.1239777   9.5121565  89.2650986 171.0789948   9.6219101
  89.7334900 172.6542969   8.9361305  88.9118805 172.5786133  10.5007935
  87.7522736 172.0048828   7.2841072  86.8090363 172.1325531   6.7529736
  88.4348221 172.7352142   6.8495655  88.1396713 171.0001984   7.1148562
  84.3887482 169.9422913   9.0863085  84.6622849 168.9116516   8.3857002
  83.4842758 169.8771820  10.0922804  83.4276123 170.7020416  11.2512798
  82.7774429 171.5497437  11.0349627  84.4229813 171.1209564  11.3990889
  82.9598160 169.8735504  12.4277048  82.4912491 170.5148468  13.1742201
  83.7550201 169.2546692  12.8433323  81.9240570 169.0506897  11.6266642
  81.0314713 169.6737366  11.5700197  81.6846237 168.0944061  12.0917358
  82.5408325 168.7841797  10.2530003  83.0389099 167.8147583  10.2681770
  81.4365540 168.7246552   9.1856279  81.1390839 167.6601715   8.6809692
  80.8802948 169.9091644   8.7970858  81.2451859 170.8133240   9.0606422
  79.6408234 170.0412750   7.9972830  79.0337296 169.1925812   8.3123512
  78.7554092 171.3154297   8.2586861  77.8278275 171.1006012   7.7280817
  78.4909286 171.3251801   9.7486439  79.4297485 171.5158234  10.2686262
  77.7483368 172.0986938   9.9444141  78.1518326 170.3302460  10.0370913
  79.4013977 172.5695190   7.8849835  79.6714325 172.4830170   6.9678149
  79.9607849 169.9296570   6.4463959  79.0862808 169.6183319   5.6205311
  81.2709656 170.1329041   6.1219115  81.9216385 170.4566956   6.8232598
  81.7940369 169.8051910   4.7743688  81.0802612 170.2781830   4.0998936
  83.1839447 170.3574219   4.6018186  83.4343796 170.1887970   3.5544667
  83.1079865 171.4328461   4.7624326  84.0928192 169.6763000   5.4436769
  84.9681778 170.0509033   5.3211069  81.7872543 168.2942657   4.5542402
  81.5958328 167.8486023   3.4249954  81.8371811 167.3999786   5.6020474
  81.8196182 167.8648834   6.4985166  81.9515457 165.9456635   5.6583066
  82.1045303 165.6538696   6.6973200  80.6008606 165.2563782   5.3686471
  80.3863602 165.5075073   4.3298883  80.8703003 164.2006378   5.3985882
  79.4459305 165.5587311   6.2963734  79.2086792 164.8612061   7.5091610
  78.0672531 165.4084778   7.9936714  77.5490875 164.9402771   8.8175001
  77.6112061 166.4353027   7.2464709  76.7302322 166.8971710   7.4215951
  78.5013275 166.5388489   6.1727142  78.4500885 167.2615509   5.3717771
  83.1839447 165.3115997   4.9176092  83.0736771 164.2442322   4.2948008
  84.3377228 165.9443817   4.9642854  84.3313141 166.7806854   5.5305328
  85.5571136 165.5615540   4.1802444  85.4529724 165.8753967   3.1416090
  86.7424622 166.3795319   4.7342563  86.6997070 166.4295044   5.8222704
  87.6972351 165.9382782   4.4482226  86.7772141 167.8260651   4.1834455
  86.7041397 167.7910614   3.0964608  85.8661194 168.2425537   4.6130199
  88.1381607 168.8165131   4.8769393  89.6345901 168.3246460   3.9194129
  89.4913864 168.4039764   2.8417771  90.5026398 168.9187927   4.2050228
  89.8002167 167.2787476   4.1777883  85.9923172 164.1040039   4.3396659
  86.5864868 163.5201874   3.3967428  85.7552643 163.4471130   5.4580560
  85.3269730 163.9678802   6.2100296  86.0745468 162.0507812   5.7463083
  87.1567230 162.0185394   5.6199651  85.6577759 161.7138214   7.2310219
  86.0342941 160.7387085   7.5400443  86.0705185 162.4545593   7.9159050
  84.1293869 161.6831818   7.3911347  83.4943466 162.9027100   7.7948723
  84.0739975 163.8040009   7.9294000  82.1124878 162.9800110   8.0276241
  81.7112885 163.9015045   8.4229660  81.2894058 161.9020386   7.7158871
  79.9940338 161.8937988   7.8936825  79.6850815 162.7975464   7.9906268
  81.9035034 160.6768494   7.2328606  81.2946091 159.7993622   7.0726414
  83.3385544 160.5464478   7.1030617  83.7889557 159.6123047   6.8015437
  85.4195709 161.0751648   4.7949748  86.0254974 160.0050659   4.4117498
  84.2100906 161.4514771   4.3073483  83.7688446 162.2933655   4.6488738
  83.3872681 160.6393585   3.3873365  83.3990860 159.5814972   3.6498330
  81.9974289 161.1067352   3.4720116  81.6662674 161.0228271   4.5070939
  82.0414810 162.1824341   3.3015990  81.0453720 160.3665771   2.4885571
  81.5821228 159.8663483   1.6824746  80.2273788 159.3485870   3.2501915
  79.6097870 159.8299408   4.0084596  79.4561539 158.9487152   2.5918505
  80.9191284 158.6009827   3.6383641  80.0440369 161.3307953   1.8851346
  80.5730820 162.1344757   1.3729759  79.4534454 160.8827362   1.0860368
  79.4651260 161.7914124   2.6856315  83.9940872 160.7793579   2.0047181
  84.3865128 159.7342072   1.4009062  84.3270721 161.9402771   1.6169567
  84.1760788 162.7605133   2.1866152  85.2642822 162.1299591   0.5176123
  86.2798538 161.9940491   0.8894252  85.0698395 161.3662262  -0.2353898
  85.2398071 163.5385284  -0.0783179  84.1927719 164.2321014  -0.1152733
  86.3979340 164.0449982  -0.4653197  87.1867676 163.4246216  -0.3513837
  86.4083252 165.2634277  -1.3073595  85.6544647 165.9267120  -0.8832928
  87.8352966 165.8217010  -1.1689483  87.7542419 166.8423767  -1.5427989
  88.2217102 165.8586578  -0.1504116  88.8206711 165.1884918  -1.9308107
  89.6904449 165.3057098  -1.5417616  86.0466690 164.9348145  -2.7987576
  85.9457321 163.7478790  -3.1887021  85.9715118 165.9530945  -3.6322734
  85.9703903 166.8687744  -3.2061064  85.7389145 165.8056335  -5.0972619
  85.4414825 166.7483826  -5.5564508  87.1134186 165.2819672  -5.7485161
  87.8549271 166.0532837  -5.5403414  87.3760605 164.4078979  -5.1525903
  87.1284409 164.9433746  -7.2686934  86.7120667 165.7777710  -8.0807619
  87.6139069 163.8497925  -7.6400099  84.5201569 164.8894958  -5.4468522
  84.6674347 163.8192291  -6.0655999  83.3178711 165.3625336  -5.0964313
  83.2942505 166.2332001  -4.5850763  82.0489731 164.7754364  -5.4612632
  82.2557449 163.7958832  -5.8923359  81.1791153 164.6504364  -4.2105360
  80.9281845 165.6440887  -3.8393412  80.2810898 164.1507874  -4.5738506
  81.9142685 163.8534546  -3.1067226  82.2717590 162.9362183  -3.5746520
  82.7677460 164.4474640  -2.7798536  81.0914154 163.5214539  -1.5836631
  79.7664795 162.3850098  -2.0202641  80.0512314 161.7797852  -2.8809080
  79.4397430 161.7811279  -1.1737020  78.9353485 163.0439758  -2.2714355
  81.3461075 165.5637970  -6.6059446  81.4527817 166.8028107  -6.6461458
  80.5291519 164.8602295  -7.4703655  80.2619476 163.9037323  -7.2864604
  79.6151505 165.4765778  -8.3841610  80.0622787 166.2806091  -8.9687166
  79.0750961 164.3701019  -9.3399162  79.7895584 163.5668640  -9.5200510
  78.2093048 163.8838959  -8.8903484  78.7301636 164.8875122 -10.7510052
  78.0944748 165.7695618 -10.6736240  79.6499786 165.2336578 -11.2223978
  78.0517120 163.7741089 -11.6163273  78.6389771 162.6879425 -11.7612505
  77.0487900 164.0475006 -12.3115377  78.4645309 166.1453705  -7.5264277
  77.8247757 165.5010834  -6.6543608  78.1673660 167.4529114  -7.7635913
  78.5552597 167.8706207  -8.5973530  77.2100677 168.3120422  -7.1316800
  76.8545380 167.8601990  -6.2056470  77.9156342 169.6173096  -6.7259188
  78.6146088 169.9681244  -7.4851704  77.1808472 170.3554840  -6.4045234
  78.8167267 169.3515167  -5.4317579  78.1762161 169.1403656  -4.5754471
  79.4402161 168.4818573  -5.6392975  79.6807785 170.5909576  -5.0574751
  79.5260010 171.7491150  -5.5949292  80.6182632 170.3805084  -4.2998948
  76.0052872 168.7131195  -8.0142069  76.1060715 168.9939728  -9.2002058
  74.8122559 168.8065948  -7.4163404  74.8534851 168.5237427  -6.4476318
  73.4800186 169.1662140  -7.9130688  73.5695419 169.3147736  -8.9891844
  72.4385071 168.0676727  -7.7118254  72.4305344 167.8380127  -6.6463223
  71.4407272 168.3297577  -8.0637455  72.8150330 166.7911987  -8.4277935
  72.5245514 166.6346893  -9.8205080  72.0520096 167.4276428 -10.3811607
  72.6443939 165.4203644 -10.4464903  72.3511887 165.3835907 -11.4852753
  73.2824936 164.3492432  -9.6968851  73.3713608 163.3419952 -10.0763187
  73.6407089 164.5749054  -8.3336563  73.9410706 163.7535248  -7.6999984
  73.3969498 165.7677002  -7.7070704  73.5172043 165.8180237  -6.6349659
  73.0362015 170.4801788  -7.3302999  73.1471558 170.7444000  -6.1321716
  72.4915466 171.2851715  -8.2072687  72.4767685 171.0213928  -9.1821012
  71.9265060 172.6452942  -7.9322824  72.1932678 173.0002441  -6.9368143
  72.5366898 173.5273895  -9.0160837  72.3550186 174.5400696  -8.6561003
  73.6235046 173.4531097  -8.9783478  72.0936966 173.3092499 -10.4731159
  72.4387131 172.2168579 -11.2331333  71.9280701 172.5034943 -12.4623728
  72.0601807 171.8499603 -13.3119774  71.3484802 173.6760559 -12.5259266
  70.9594421 174.0375977 -13.3850145  71.4337616 174.2286530 -11.2709513
  71.0427704 175.2159729 -11.0741987  70.3627014 172.7375793  -8.0544920
  69.7878647 173.5206604  -7.3337274  69.6755753 171.9359589  -8.9488459
  70.2257919 171.2514496  -9.4476566  68.2280426 172.0520020  -9.1756096
  67.8679352 173.0697784  -9.3258095  67.9189987 171.6060333 -10.1209755
  67.3889542 171.4364777  -8.0473099  67.5721512 170.2527771  -7.7839270
  66.4513321 172.1591949  -7.3396635  66.0614929 173.0296936  -7.6718683
  65.6894913 171.5014038  -6.1725760  66.3540955 170.7797089  -5.6976500
  65.4194717 172.6295166  -5.1272225  64.6443787 173.3012543  -5.4961324
  65.0094452 172.1435089  -4.2419133  66.7035904 173.3846588  -4.6962171
  67.3852310 173.6076355  -5.5170369  66.4227295 174.3362427  -4.2448983
  67.4152832 172.6139221  -3.5734477  66.7753906 172.6243439  -2.6911025
  67.5353546 171.5777893  -3.8898244  68.7886276 173.1779633  -3.3306730
  69.5036545 172.6343842  -3.7925858  69.0557175 174.3074951  -2.7262812
  68.1680298 175.0719604  -2.2262347  67.2119141 174.7464905  -2.2235229
  68.3084412 175.9831543  -1.8137587  70.2470245 174.7856750  -2.7180698
  70.9247360 174.1092987  -3.0395052  70.4330444 175.7106781  -2.3576796
  64.4807434 170.6759033  -6.4501143  63.6822739 170.9602356  -7.3457417
  64.2532578 169.6810150  -5.5815725  64.7737503 169.5993042  -4.7198811
  63.0666733 168.7900543  -5.6787562  62.5973969 168.8967896  -6.6567588
  63.5476265 167.2802734  -5.5661654  63.7928848 167.0236206  -4.5355935
  62.4771385 166.2349701  -6.0476079  62.2446022 166.3119202  -7.1097345
  62.8804512 165.2504730  -5.8104835  61.6146469 166.3380585  -5.3891377
  64.7010803 166.9832916  -6.3294764  64.9075165 166.0823669  -6.0700045
  61.9334450 169.1400909  -4.6313252  62.0610657 168.7732391  -3.4714682
  60.8027954 169.6978302  -5.0247393  60.7263527 170.0714569  -5.9599719
  59.6860352 170.0402832  -4.1389060  59.7890434 169.3718872  -3.2840714
  59.7708969 171.5613708  -3.7112739  59.6532097 172.0631104  -4.6717520
  58.9431343 171.9293976  -3.1050758  61.0596352 171.9812317  -3.0046918
  61.9653473 171.5936279  -3.4711173  61.1405067 173.5003204  -2.8828027
  60.2779579 173.9889526  -2.4296679  62.0741730 173.8140259  -2.4159503
  61.1145935 173.9568176  -3.8722677  61.0648727 171.4324341  -1.6018627
  60.9973373 170.3500977  -1.7118206  61.9781876 171.7686462  -1.1110299
  60.2252083 171.8688660  -1.0609359  58.3194084 169.7853394  -4.8497214
  58.1083527 170.2079926  -6.0132608  57.4652405 169.0321045  -4.1472216
  57.7546158 168.7464905  -3.2226741  56.0945702 168.6053925  -4.4743915
  55.9997025 168.4859619  -5.5536733  55.9432945 167.2187347  -3.8520706
  55.8696365 167.2049408  -2.7646496  54.9802094 166.8222504  -4.1735721
  56.8648567 166.1625061  -4.2480798  57.9112892 165.6456604  -3.4420087
  58.5789490 164.7811584  -4.1992636  59.4027252 164.1553955  -3.8890810
  58.0421982 164.6830139  -5.4290686  58.2902489 164.0156403  -6.1454391
  56.9843063 165.5980988  -5.4715891  56.3039207 165.8324127  -6.2769284
  55.0869293 169.6511841  -3.9677472  55.3821373 170.6007843  -3.1858275
  53.8330727 169.5111084  -4.3606009  53.6133003 168.8313141  -5.0745335
  52.7615929 170.2869720  -3.8334150  52.9980125 171.3497925  -3.7823753
  51.5831223 170.0465088  -4.7678561  51.2030907 169.0293579  -4.6726313
  50.7432404 170.6751709  -4.4720559  51.8993034 170.5233765  -6.2063322
  52.0608368 171.7368164  -6.3630471  51.8825684 169.7606659  -7.1672659
  52.4018593 169.8520813  -2.3789320  52.6874886 168.7140198  -1.9493008
  51.8068237 170.7920227  -1.6230932  51.4965057 171.6127472  -2.1233251
  51.3231735 170.4572449  -0.3032275  52.1912155 170.1358185   0.2723402
  50.8475151 171.7485046   0.4025885  50.2437325 172.4142914  -0.2140698
  50.2442780 171.4983826   1.2753116  52.0070114 172.6284485   0.8733816
  53.1170845 172.1246948   1.0602440  51.7682953 173.8497162   0.9689467
  50.2493935 169.3915405  -0.3142119  49.2832336 169.3838806  -1.0819895
  50.3286781 168.4671173   0.6281971  51.1152725 168.5172424   1.2597464
  49.4035339 167.2935791   0.8357481  49.9679565 166.6446381   1.5053817
  48.0621872 167.7971497   1.4042250  47.6998558 168.5448303   0.6986796
  47.3931160 166.9395905   1.4753277  48.1530342 168.4448090   2.7404468
  48.7648392 167.7883911   3.6400666  47.6190681 169.5698242   2.9509373
  49.1641693 166.3821716  -0.4314171  48.1985474 165.6077728  -0.5295561
  50.0225563 166.4508972  -1.4485960  50.8560638 167.0130615  -1.3519810
  50.0530472 165.4916534  -2.5765672  49.0197906 165.3517456  -2.8942204
  50.7978477 166.0874939  -3.7340136  50.7101517 165.4042664  -4.5787625
  50.3292351 167.0541382  -3.9186895  52.1943741 166.1432648  -3.3905041
  52.3979530 166.9396973  -2.8946574  50.5751190 164.0944214  -2.0777752
  51.3259087 164.0428162  -1.1078348  49.9926376 163.0676117  -2.6481674
  49.1759987 163.2192383  -3.2228184  50.3380280 161.6927948  -2.3736625
  50.7263565 161.6792908  -1.3552710  49.1089935 160.7450714  -2.3765624
  48.4148102 161.1394958  -1.6345083  48.6399689 160.7119598  -3.3599350
  49.4040871 159.0925751  -1.7783490  48.4580574 158.5652313  -2.5605445
  51.4621468 161.2568512  -3.2927544  51.3849144 161.4019928  -4.5173106
  52.5764198 160.7859802  -2.6789627  52.4985695 160.7854767  -1.6719676
  53.7581711 160.3647614  -3.4269557  53.4794350 160.3132324  -4.4794536
  54.9246750 161.3332520  -3.1676064  55.1718407 161.2849274  -2.1071002
  55.7576408 160.8532562  -3.6812863  54.6803055 162.8403320  -3.4874232
  53.9002190 163.2008667  -2.8169148  55.5367470 163.4671326  -3.2389395
  54.2444458 163.0511475  -4.9273634  54.5944328 162.2552643  -5.8041940
  53.5240707 164.0773926  -5.3286681  52.9831619 163.9632263  -6.1739392
  53.2385788 164.7578430  -4.6390471  54.2162247 158.9630890  -3.0700464
  53.9975433 158.5416718  -1.9407687  54.8157501 158.2695312  -4.0581403
  54.8371124 158.7120819  -4.9657717  55.5765800 157.0258636  -3.8013284
  55.3569756 156.8371429  -2.7504892  55.1410065 155.8488312  -4.6616950
  54.0627670 155.7715302  -4.5219526  55.3087120 156.0032196  -6.1576562
  56.3645363 156.1459503  -6.3877997  54.8747215 155.1163177  -6.6193485
  54.8357658 156.9344635  -6.4694161  55.9338531 154.5907745  -4.3209124
  55.5587921 154.1698608  -3.3880336  55.6541901 153.7590027  -4.9674802
  57.0130157 154.6768036  -4.4477940  57.0667648 157.2757874  -3.8627973
  57.5271606 157.9007416  -4.8587813  57.7848511 156.8697968  -2.8370395
  57.3095169 156.5986481  -1.9881357  59.2305069 157.1567535  -2.6676488
  59.6694641 157.4254913  -3.6284790  59.3209610 158.4275665  -1.7275691
  59.0159721 158.1112518  -0.7300581  60.7949371 158.8986359  -1.5727602
  61.1759796 159.3967133  -2.4642937  60.8926239 159.6687164  -0.8075638
  61.4484367 158.0433350  -1.4009751  58.4204445 159.5952301  -2.2770262
  58.7043877 159.7275543  -3.3210413  57.4072227 159.2389984  -2.0910614
  58.5178261 160.9603882  -1.5802765  59.3449364 161.5832214  -1.9209648
  57.6413612 161.5937195  -1.7173454  58.5139809 160.8923492  -0.4924081
  59.9624519 155.9544830  -2.1509564  59.5679665 155.3746338  -1.1169728
  61.0648499 155.4889984  -2.8043764  61.7921524 156.0687103  -3.9736247
  62.1274910 157.0729370  -3.7143939  61.1833687 155.9712677  -4.8725057
  63.0429153 155.2389832  -4.2395253  63.9989243 155.7039185  -3.9987557
  63.0108910 154.9184113  -5.2808280  62.7964287 153.9380341  -3.4311194
  63.7074966 153.4299927  -3.1149747  62.2461243 153.2157745  -4.0341077
  61.8980446 154.3966675  -2.2526233  61.1591530 153.6152649  -2.0750401
  62.6940041 154.7430573  -1.0135379  63.2842293 155.8191681  -0.8606216
  62.6372528 153.7473755  -0.1032809  62.2506714 152.8762512  -0.4376203
  63.3017311 153.7468414   1.1728121  63.6379242 154.7233582   1.5213922
  62.4349785 153.1066589   2.3049242  62.2701302 152.0844879   1.9642141
  63.1248627 152.9344635   3.6144550  63.2818375 153.8968811   4.1015000
  62.4879684 152.3221893   4.2528696  64.1384506 152.5344391   3.5876591
  61.1396179 153.9261932   2.4826164  60.7131767 154.2224121   1.5242283
  60.3767548 153.3925018   3.0494535  61.4584312 154.8250885   3.0103142
  64.5988693 152.9797821   1.0052066  64.5204620 151.8384399   0.5574098
  65.6665497 153.4997711   1.5602778  65.7838745 154.4689331   1.8192444
  66.8642120 152.6664581   1.8878442  66.9606094 151.9988556   1.0316237
  68.0939713 153.4992981   2.0372841  67.9156570 154.1835938   2.8667686
  68.8573151 152.8302002   2.4344110  68.7329407 154.2569733   0.8740641
  67.9956665 154.8114166   0.2934372  69.7175293 155.3271179   1.3311275
  70.3082809 154.9788513   2.1783752  70.3548584 155.6091156   0.4930416
  69.2552490 156.2511749   1.6782852  69.4277267 153.2991028  -0.0388775
  68.6783829 152.6564941  -0.5010842  69.9288788 153.8620911  -0.8262711
  70.1308670 152.6743622   0.5119371  66.6735992 151.8154907   3.1957436
  66.4475784 152.3773804   4.2627788  66.8945770 150.5178375   3.1329451
  67.2350693 149.8155975   1.8861214  68.1580200 150.2701111   1.5260112
  66.4373245 149.8731537   1.1455863  67.4487152 148.3157654   2.2903244
  68.5007782 148.1207886   2.4983246  67.1455383 147.5559387   1.5700068
  66.6407547 148.1742554   3.5842800  67.1752243 147.4181519   4.1593843
  65.6246643 147.9262543   3.2774448  66.6945419 149.6222076   4.2436090
  65.7311630 149.8127441   4.7165732  67.7710495 149.7768555   5.3664899
  67.5231247 149.4758301   6.5187731  69.0102310 150.1620331   5.0449452
  69.3175125 150.2638245   4.0882235  70.0226135 150.5344543   6.1097531
  69.8980179 149.9371948   7.0130110  71.3501511 150.1506042   5.5858707
  71.5826111 150.6156769   4.6278629  72.1334076 150.5123291   6.2520304
  71.3843460 148.5954285   5.4525461  70.8238068 147.8179779   4.4681315
  70.6761627 146.5543213   4.9907627  70.1760483 145.7594910   4.4573507
  71.1457901 146.5176849   6.2344551  71.1806564 145.6779327   6.7945538
  71.5166245 147.7847748   6.5742426  71.8868103 148.1177368   7.5326271
  70.0009460 151.9079132   6.7485819  70.7877579 152.1290131   7.7225480
  69.0850449 152.8041534   6.3317995  68.4697037 152.5416718   5.5751276
  68.8515320 154.0791473   7.0583096  69.8096161 154.5265503   7.3228822
  68.2949142 155.1787872   6.1571970  67.3939209 154.7317505   5.7371111
  67.8830032 156.3741913   7.0429344  68.7470627 156.9139709   7.4304104
  67.4007263 157.1061554   6.3950596  67.1397552 156.0438080   7.7685580
  69.2241135 155.5873260   4.9824996  69.6290894 154.7269745   4.4496784
  68.6396866 156.1097107   4.2250948  70.0281525 156.2056274   5.3816471
  67.9801407 153.6888885   8.3201857  66.8736191 153.3221283   8.0544424
  68.5077972 154.0463257   9.5344152  69.4612427 154.3731995   9.5991621
  67.7628632 153.7287292  10.7551231  66.7296448 153.5785828  10.4420662
  68.3311996 152.4349518  11.4078264  69.4209747 152.4325714  11.3857336
  68.0009308 152.2943420  12.4370241  67.9259491 151.2157745  10.5551176
  66.8592072 151.2872314  10.3428555  68.4602432 151.3083191   9.6095638
  68.4521866 149.6490631  11.2265215  67.7698135 148.4269104  10.0863771
  68.0281296 148.6895294   9.0605059  68.1887436 147.4783020  10.4221382
  66.6868973 148.3553009  10.1876965  67.5165710 154.9223175  11.6927605
  67.0431900 154.6804047  12.8243380  67.8163300 156.1584167  11.2806616
  68.0836945 156.2762451  10.3138475  67.7227936 157.3625183  12.1139212
  67.4757233 157.0632172  13.1324835  69.0336227 158.1313934  12.1525145
  68.9250107 158.9866028  12.8195438  70.1953049 157.3257904  12.7313099
  70.6453094 156.5936127  12.0608511  71.0528717 157.8131409  13.1951628
  69.7363358 156.7911682  13.5629539  69.5171509 158.5673218  10.7521973
  68.7391281 159.1516571  10.2609301  70.3593063 159.2456818  10.8890152
  69.8027649 157.6919250  10.1689348  66.5637741 158.2232513  11.6112413
  66.1724548 158.2202301  10.4387627  66.0607681 158.9884796  12.5124054
  66.2251968 158.7928314  13.4895363  65.0379257 159.9585876  12.2408190
  64.3589172 159.5119629  11.5144815  64.2607651 160.2236023  13.4693127
  63.8710403 159.2960663  13.8886995  64.8162231 160.7447052  14.2490683
  63.0943718 161.1137238  13.1195240  63.3531151 162.0825958  12.6923952
  62.4838333 160.6032562  12.3747025  62.0666809 161.5763855  14.5308762
  61.9263916 160.1194153  15.5521584  62.7157478 160.0297852  16.2984753
  61.0150299 160.3575592  16.1006165  61.8851547 159.2058411  14.9590540
  65.6045380 161.3409729  11.7044106  66.1219711 162.1530762  12.4184418
  65.6517944 161.4381409  10.3445587  65.4437180 160.7048340   9.6819353
  66.1524353 162.6886902   9.8139391  67.0724869 162.9050903  10.3568754
  66.4537659 162.4369202   8.2666483  67.2103119 161.6522980   8.2559252
  65.5392685 162.1476135   7.7488651  66.9296646 163.6161041   7.4776931
  66.3319092 164.5012207   7.6953506  68.3765640 163.8298035   7.7674365
  68.8660660 162.8923798   7.5033722  68.7866745 164.6204376   7.1390924
  68.5009995 164.1137695   8.8124161  66.8518143 163.2831116   5.9459329
  65.8159332 163.1103363   5.6540422  67.2222748 164.1478882   5.3954592
  67.4320221 162.3683777   5.8246517  65.1331558 163.8248749   9.9514971
  64.0242157 163.7025604   9.4239340  65.4591064 164.9253387  10.6461878
  66.3339539 164.9433441  11.1505890  64.5871964 166.1411896  10.6256895
  63.5300331 165.8817749  10.5689621  64.7712708 166.9726105  11.9089508
  65.7294388 167.4703674  11.7597342  63.7569237 168.1315460  11.9793272
  62.7300835 167.7830658  11.8685846  63.9019890 168.5510254  12.9748659
  63.9315491 168.8803101  11.2067003  64.7504501 166.2827606  13.2661495
  65.6393204 165.6519165  13.2719507  64.8216171 166.9687653  14.1102190
  63.6063004 165.3728180  13.5899067  63.5419426 164.5633850  12.8627405
  63.7017021 164.9470825  14.5887785  62.6610832 165.9136353  13.5429783
  64.9734497 167.0262756   9.4095621  66.1851807 167.0953522   9.1541309
  64.0397949 167.6511536   8.6930418  62.6112137 167.3857269   8.7563982
  62.2275734 167.8499756   9.6649122  62.4145393 166.3157196   8.6894398
  62.0751114 168.0445862   7.4872775  61.0539780 168.3959198   7.6354918
  62.0994453 167.3244781   6.6693826  63.0070457 169.2202301   7.2900901
  62.6732864 170.0622864   7.8964438  63.0428658 169.5914307   6.2658682
  64.3750000 168.6596069   7.6868887  64.7073441 168.1217041   6.7990193
  65.3471375 169.7163086   8.1037140  65.6040802 169.9251099   9.3134155
  66.0066376 170.3694916   7.0971870  65.6832275 170.2291718   6.1507125
  67.2465210 171.2367554   7.2442017  67.3443680 171.8481750   6.3471556
  66.9927444 171.8696136   8.0946045  68.5188980 170.4953003   7.5506496
  69.5641403 171.0021210   7.2258182  68.4856796 169.3145447   8.2231226
  67.5419312 169.0378876   8.4531059  69.6198044 168.4463196   8.6421652
  70.2801666 169.0714417   9.2432051  68.9865952 167.4571075   9.6783934
  68.3157425 168.0367279  10.3125010  68.4058075 166.6917114   9.1636524
  70.0379944 166.7692261  10.6042366  70.7847366 166.3218384   9.9482460
  70.5377045 167.4912872  11.2499914  69.3596191 165.6899109  11.5122643
  68.2046432 165.6946259  11.8437004  70.0878906 164.6468048  11.8315744
  69.9263306 164.1015015  12.6662254  71.0292969 164.4800720  11.5059032
  70.3419952 167.7841644   7.5110264  69.6623764 167.2271729   6.6829967
  71.6948700 167.7872467   7.4729204  72.1888809 168.4165497   8.0893936
  72.5143127 166.9575653   6.5172572  72.1133041 166.9295349   5.5040874
  73.9387894 167.5030518   6.4361777  74.5633926 167.2004700   7.2766671
  74.6823120 167.0606689   5.2134614  74.0749893 167.2970734   4.3397398
  75.6320343 167.5898132   5.1351976  74.8481445 165.9871979   5.3044133
  74.0439301 168.9158630   6.5044866  74.9546280 169.1663361   6.6762352
  72.5584030 165.4358673   6.8712778  72.6971817 165.1040955   8.0107145
  72.5674133 164.5544281   5.8283858  72.3645554 164.9539185   4.9231992
  72.7114258 163.1056671   5.8616638  72.8767776 162.9562531   6.9286385
  71.3971558 162.4964447   5.4951119  70.5981522 162.9555206   6.0772986
  71.2546234 162.7303925   4.4400988  71.3130875 160.9523315   5.5315065
  71.7893906 160.4492493   4.6899958  71.8792953 160.3264160   6.7761860
  71.4925003 160.8865356   7.6275129  71.7107697 159.2572479   6.9049048
  72.9610214 160.4592438   6.7577505  69.8312759 160.6007996   5.5475650
  69.3290482 161.0536194   4.6926832  69.7436218 159.5560455   5.2494006
  69.4739304 160.7624054   6.5645623  73.8907318 162.6424103   4.8902659
  73.7275238 162.5205383   3.6676478  75.0713120 162.3435974   5.4501123
  75.4100189 162.4579163   6.8576865  74.6943893 161.8544312   7.4160700
  75.2210999 163.4906006   7.1508574  76.8243256 162.0225372   7.1292167
  76.8119965 160.9673615   7.4022822  77.3000336 162.7409668   7.7967978
  77.4085999 162.1396790   5.7095900  78.2915421 161.5146332   5.5760140
  77.6013870 163.1924896   5.5033851  76.1857300 161.7252197   4.8386283
  76.3957901 162.0898132   3.8331172  75.9279861 160.2334290   4.8678479
  75.3876419 159.6746979   5.8190169  76.2221298 159.5537109   3.7609625
  76.5259399 160.0377502   2.9281948  75.9497757 158.0936279   3.5138698
  75.8787460 157.6655731   4.5137854  74.5613174 157.8977814   2.8298767
  74.4720993 158.6347656   2.0317509  74.6021347 156.9538574   2.2863262
  73.2738266 157.8984222   3.7215993  73.2146683 158.8113251   4.3142409
  72.0826340 157.8956146   2.7453594  72.2009811 157.0418854   2.0780973
  71.1523666 157.9118042   3.3131959  72.0354996 158.7741241   2.1018636
  73.1879578 156.7027588   4.6338344  73.9468536 156.8572083   5.4008574
  72.1859436 156.6176605   5.0543385  73.4855728 155.7918549   4.1144257
  76.9970322 157.3672485   2.6628191  77.4507523 157.8270721   1.6020710
  77.4710159 156.2103271   3.1120718  77.1525574 155.8971100   4.0179338
  78.2976227 155.3097839   2.2346978  78.3666077 155.7416840   1.2362928
  79.7604141 155.3176270   2.7289281  80.1764755 156.3224335   2.6557360
  79.6915970 155.1839447   3.8085072  80.6472931 154.2512970   2.0488822
  80.1437454 153.2984924   2.2123330  80.7220917 154.4952393   0.9891677
  82.0663223 154.0801849   2.6611674  82.3864365 154.6905975   3.6733060
  82.8841095 153.1963348   2.1417398  83.7837067 152.9728394   2.5428417
  82.6206818 152.6504822   1.3338097  77.5210953 154.0253448   2.0823095
  77.2269363 153.3083801   3.0574455  77.2354050 153.6671448   0.8003046
  77.5987778 154.1999207   0.0229920  76.5184021 152.4594269   0.4440912
  76.2241211 151.9575348   1.3658286  75.2651062 152.9379272  -0.3764603
  75.5479279 153.2055969  -1.3945254  74.6283569 152.0582733  -0.4707730
  74.4536591 154.1117096   0.1799799  75.0639191 154.9915009   0.3840266
  73.4258423 154.6306458  -0.7873069  72.9479828 153.7304230  -1.1737767
  72.7122345 155.2381897  -0.2307595  73.9002762 155.1624908  -1.6120255
  73.7547302 153.8335724   1.4939835  74.4131546 153.3802795   2.2350032
  73.2444382 154.7018280   1.9109067  73.0247574 153.0450897   1.3108791
  77.4194946 151.4932709  -0.3598649  77.8335876 151.9110718  -1.5052419
  77.6251602 150.2363892   0.1337655  77.3258820 150.0323486   1.0765835
  78.4343109 149.1503296  -0.4373291  78.8051605 149.3306427  -1.4463179
  79.6370239 148.8832245   0.5169588  80.3389893 148.1102600   0.2041236
  80.2071991 149.8110962   0.5622506  79.1672211 148.3766022   1.8781526
  78.7422028 149.3301086   2.8553855  78.7932739 150.3620148   2.5407901
  78.2533493 148.8989258   4.0875902  77.8347244 149.6014862   4.7929783
  78.3289261 147.5109863   4.4125347  77.9845276 147.1703339   5.3778071
  78.8051910 146.5868225   3.4664862  78.6542892 145.5351868   3.6605716
  79.0985794 147.0011902   2.1530933  79.4117661 146.3600159   1.3424168
  77.6782532 147.7830658  -0.6629990  78.2421265 146.9220581  -1.3503653
  76.4574585 147.5882263  -0.1187145  76.0759506 148.4186249   0.3114094
  75.6206360 146.4553223  -0.4904762  76.1585770 145.5082550  -0.5329780
  74.4824448 146.2768250   0.4768733  74.0518799 147.2577362   0.6782129
  73.6859894 145.6552887   0.0676812  75.0095596 145.7339478   1.7545919
  75.6843262 144.4972992   1.9334151  75.9683304 144.4399414   3.2575872
  76.7109833 143.7958527   3.7048213  75.4988022 145.5325928   3.8387463
  75.5874710 145.7899323   4.8113813  74.8721390 146.3282928   2.9529245
  74.3439941 147.2533112   3.1312580  74.9603577 146.6673126  -1.8534945
  74.5243607 147.8128052  -2.1544940  74.8527374 145.6123352  -2.7041383
  75.1662979 144.2177734  -2.4436765  74.6676025 143.7825165  -1.5776788
  76.2236633 144.0634003  -2.2286217  74.7094498 143.4991913  -3.7219594
  73.6376114 143.3012085  -3.7300396  75.2769394 142.5972137  -3.9511151
  74.8357697 144.5186157  -4.8325181  74.0443573 144.4213104  -5.5756850
  75.8399887 144.5404816  -5.2558041  74.6268616 145.8573303  -4.1034055
  75.3598633 146.5197754  -4.5638156  73.2978592 146.5045776  -4.4198160
  73.2792358 147.5315094  -5.1494322  72.2240143 145.9415283  -3.8616893
  72.2215347 145.1491699  -3.2353940  70.8905106 146.5022430  -3.9606926
  70.6778412 146.5260162  -5.0294838  69.8234406 145.5900116  -3.3208790
  68.8630066 145.8711395  -3.7528839  70.0584335 144.5879669  -3.6797976
  69.7613525 145.4120789  -1.8301195  69.8155212 146.4135437  -1.4032536
  68.7680359 144.9968719  -1.6597173  70.6925354 144.4137115  -1.1982850
  71.6567688 143.9433899  -1.7876824  70.4595108 144.1580811   0.0558842
  71.2648926 143.7942657   0.5448636  69.6194534 144.5192413   0.4848016
  70.7885742 147.9138947  -3.5450590  70.0156555 148.6936035  -4.1742301
  71.5162430 148.3895264  -2.4864933  72.0694733 147.7083435  -1.9864874
  71.6079178 149.8101196  -2.0334992  70.5942764 150.1883087  -1.9007957
  72.1701660 149.9651794  -0.6040295  73.1825867 149.5883179  -0.4588189
  72.1350555 151.0387573  -0.4188860  71.3351822 149.2309875   0.4753077
  70.3005295 149.2537384   0.1331259  71.7294464 148.2168121   0.5392910
  71.5473785 149.9572754   1.8313767  72.7245407 149.9391937   2.2723136
  70.5557632 150.6013184   2.3295777  72.3859558 150.7689972  -2.9962764
  72.0365524 151.9425812  -3.1926160  73.4439621 150.2588348  -3.6278510
  73.8020172 149.3670197  -3.3171058  74.1069260 151.0306396  -4.6863914
  74.3424683 152.0333557  -4.3297544  75.3618317 150.2453003  -5.0877404
  75.1683044 149.1785126  -5.2000141  76.1431274 150.7544556  -6.2876534
  76.5457535 151.7256927  -6.0001349  76.9397736 150.0324860  -6.4671426
  75.4849777 150.7789001  -7.1561852  76.4262085 150.1265259  -3.9238684
  75.9399338 149.9196777  -2.9705296  77.1431885 149.3225555  -4.0901985
  76.9886322 151.0545959  -3.8215978  73.2249832 151.1792450  -5.9503765
  73.1283569 152.2462616  -6.5660362  72.5353470 150.0737457  -6.3313594
  72.6689224 149.1956635  -5.8504992  71.5914383 150.0880890  -7.5325942
  72.1344223 150.2868805  -8.4565783  70.9134827 148.7298584  -7.7511811
  71.7012177 147.9801941  -7.6765599  70.1829987 148.4663391  -6.9863014
  70.3696060 148.7575836  -9.0482206  70.3021469 147.8638153  -9.3920746
  70.4183273 151.1184235  -7.4473338  70.1472397 151.7946930  -8.4381676
  69.7933578 151.2692413  -6.2259321  70.1363678 150.7251434  -5.4472160
  68.7257843 152.2198334  -5.9254799  67.9502182 152.0307159  -6.6676555
  68.1360779 151.9843292  -4.5181341  68.0531311 150.9066467  -4.3772411
  68.8810196 152.2905884  -3.7837274  66.7358932 152.5452881  -4.2135434
  66.1181717 152.0903168  -4.9878254  66.3257217 152.2456970  -3.2491295
  66.4883423 154.2892151  -4.3203182  67.2501450 154.8565216  -2.7525525
  68.3292160 154.7032928  -2.7676630  67.1065674 155.9149933  -2.5354974
  66.7224503 154.3621216  -1.9369413  69.1314468 153.6634369  -6.1165709
  68.5539627 154.3437653  -6.9980073  70.1564331 154.1714783  -5.4267569
  70.7352219 153.5788422  -4.8489327  70.5245895 155.5605316  -5.6648092
  69.6060104 156.1342163  -5.5415206  71.4903870 156.0532990  -4.6153822
  71.8200989 157.0616455  -4.8656645  70.8941345 155.9429932  -3.2351739
  70.6366730 154.8976898  -3.0644295  71.5480347 156.3339386  -2.4556398
  69.9621964 156.5082245  -3.2246351  72.8005295 155.1834564  -4.6464958
  73.2278290 154.9863739  -5.6296916  73.4682083 155.7266235  -3.9776986
  72.6473312 154.1812744  -4.2461858  71.0816727 155.8499146  -7.0532298
  70.8894577 156.9855042  -7.4994397  71.6469193 154.8768616  -7.7896910
  71.7458649 153.9656372  -7.3654418  72.1023331 154.9605713  -9.1988821
  72.7204590 155.8554535  -9.2711143  72.8916626 153.7413483  -9.6779938
  73.7391968 153.7529907  -8.9926844  72.2001877 152.9035645  -9.5880728
  73.2943497 153.9314117 -11.1142817  72.4775085 154.1582184 -11.7994280
  74.0592422 154.6944733 -11.2584324  73.9234619 152.5736084 -11.5325890
  73.2359543 151.7932434 -11.2063198  73.8883667 152.5035248 -12.6197672
  75.3026657 152.4530029 -10.9916334  75.7794876 153.3157959 -10.7717915
  75.9913406 151.3888397 -10.7409725  75.5105820 150.1978455 -10.8640356
  74.6523590 150.0851440 -11.3844728  76.0263977 149.4093323 -10.5003233
  77.1607056 151.4693604 -10.1528702  77.4011612 152.4048004  -9.8575287
  77.7527390 150.6569977 -10.0545959  70.9241943 155.2631226 -10.1398516
  70.9343262 156.2695160 -10.8346539  69.8670959 154.4675903 -10.0879612
  69.7774200 153.7876740  -9.3464975  68.7555237 154.6000214 -10.9825563
  69.0476379 154.6325531 -12.0321817  67.9238968 153.3003693 -10.7909460
  67.7081909 153.0715027  -9.7473030  66.9675827 153.4415588 -11.2945547
  68.5564499 152.0396729 -11.3375788  69.5004730 151.9839325 -12.1006031
  67.9603043 150.9005280 -10.9761791  68.4150696 150.0626831 -11.3097744
  67.1987457 150.8938446 -10.3127975  67.8395767 155.7926178 -10.5720053
  67.1763458 156.3070068 -11.4919624  67.8526459 156.2097321  -9.2968121
  68.4028397 155.6591034  -8.6532211  67.2821426 157.4544373  -8.8029013
  66.2633209 157.4975891  -9.1879234  67.2767334 157.3484650  -7.1987624
  66.9202728 156.3767242  -6.8570838  68.2803421 157.4053650  -6.7772889
  66.4988327 158.5210876  -6.5513234  66.6518021 159.4650421  -7.0744319
  65.0107422 158.2037964  -6.5984669  64.8200073 157.4236298  -5.8615336
  64.4530563 159.0977173  -6.3191886  64.7005615 157.9378204  -7.6089821
  66.9391251 158.6255035  -5.1056161  68.0089569 158.8273468  -5.1587667
  66.3284607 159.3586121  -4.5785937  66.8452606 157.6828613  -4.5664449
  68.0782852 158.6985474  -9.2619209  67.4278030 159.7454834  -9.5382977
  69.4142456 158.7007904  -9.4801044  69.9405594 157.9047546  -9.1493158
  70.2190933 159.8295898  -9.9681349  69.8228073 160.6847076  -9.4205503
  71.7387085 159.5451660  -9.5888538  71.8450546 158.4957886  -9.3139000
  72.7498398 159.7046661 -10.7916203  72.7145233 160.7209320 -11.1841230
  73.7858276 159.5218658 -10.5062885  72.4990845 158.9860077 -11.5718384
  72.2838898 160.4766235  -8.4859972  73.3305664 160.2369232  -8.2986298
  72.2658157 161.4810791  -8.9088831  71.6084366 160.3361969  -7.0944586
  71.9257202 159.4483643  -6.5474734  71.9320831 161.1923523  -6.5025401
  70.5250320 160.4448547  -7.1448174  69.8610077 160.1911774 -11.4229898
  69.8337479 161.3695374 -11.7857828  69.4749985 159.1534882 -12.1755390
  69.5128098 158.1915436 -11.8700275  68.8751221 159.4136505 -13.5045443
  69.5146484 160.1321869 -14.0171766  68.9626923 158.1164856 -14.4072638
  68.7567291 157.2685394 -13.7540588  68.2153168 158.0780487 -15.1997604
  70.3714600 158.1743317 -15.0821171  70.3675308 157.3521576 -15.7977400
  70.4387589 159.1197662 -15.6203918  71.5661392 158.0406036 -14.2056274
  72.4940948 158.8243561 -14.1837940  71.7197495 156.9358978 -13.4728737
  72.3997726 156.9151917 -12.7263880  71.0673294 156.1667633 -13.4190884
  67.4835892 160.1304474 -13.5262852  66.9930115 160.4469299 -14.6404591
  66.8003311 160.2061920 -12.3706942  67.2369995 160.0124817 -11.4808044
  65.5627441 160.9619141 -12.2414742  65.5813141 161.6977997 -13.0453548
  64.2499924 160.1420746 -12.5035315  63.3279228 160.7205658 -12.4467258
  64.1715393 159.8132019 -13.5397711  64.1403122 158.8065491 -11.6978216
  65.0082626 158.2067871 -11.9717607  64.1034851 159.1234589 -10.6555548
  62.8232956 158.0562744 -11.9649305  62.7433701 157.3119659 -11.1726456
  62.0142250 158.7755737 -11.8379784  62.6769676 157.3065796 -13.3211088
  62.6972885 157.9918365 -14.1685162  63.4652100 156.5806732 -13.5207367
  61.3582954 156.6008759 -13.3187809  60.5802040 157.2312775 -13.1874151
  61.1543655 156.0169525 -14.1172466  61.2277527 155.9277344 -12.5772018
  65.4661865 161.8595886 -10.9743290  66.0366135 162.9548798 -10.9676065
  64.5681000 161.5571747 -10.0607185  64.1308975 160.6511841 -10.1509323
  64.0156784 162.4846039  -9.0238733  63.7667923 163.4102783  -9.5428133
  62.6975327 161.8718414  -8.3997574  62.3920898 161.0134277  -8.9980288
  62.9394379 161.4536285  -7.4226804  61.4444771 162.7509766  -8.4279509
  61.3483467 163.7098236  -9.2405939  60.4415970 162.4959564  -7.7251058
  64.9632416 162.8769073  -7.8662891  64.5989151 163.8381195  -7.1952109
  66.0792694 162.1634521  -7.6021075  66.3376617 161.4933167  -8.3122234
  67.0569611 162.3201141  -6.5029120  67.6433868 161.4103546  -6.6315084
  68.0193710 163.5357513  -6.6174774  67.4428711 164.4410858  -6.8075609
  68.5901871 163.6947632  -5.7026110  68.9231110 163.2988586  -7.7618880
  69.4009094 162.3408813  -7.5567317  68.4372025 163.1495667  -8.7261019
  69.8926315 164.4322815  -8.0450363  70.4474869 164.7098389  -7.1488233
  70.6474609 164.0469055  -8.7304678  69.2857590 165.6564789  -8.5715961
  69.3207779 165.6900787  -9.5804319  69.0853500 166.7154083  -7.8959975
  69.1718750 166.7966766  -6.5912199  69.3922195 165.9425812  -6.0992179
  68.9961548 167.6536713  -6.0864778  68.7338715 167.7926025  -8.5133171
  68.6795502 167.8355865  -9.5209427  68.4048386 168.5861359  -7.9821429
  66.5498123 162.1986084  -5.0501580  67.3903809 162.1933746  -4.1260600
  65.2301178 162.1825104  -4.8034797  64.5882187 162.2609406  -5.5793128
  64.5690994 162.0530396  -3.4471829  65.3726807 162.3328400  -2.7659552
  63.3865433 162.9499817  -3.2680991  63.0250473 162.6608734  -2.2812684
  63.8086281 164.4514313  -3.2924795  64.3901520 164.6499481  -4.1927710
  62.8715248 165.0005798  -3.3839355  64.2708588 164.7156372  -2.3413570
  62.4496765 162.7693329  -4.3296971  61.6544991 163.0541382  -3.8734343
  64.2732010 160.5961456  -2.9722488  63.6331673 159.7881927  -3.6307616
  64.8519440 160.2646790  -1.8008364  65.3403091 160.9869843  -1.2910532
  64.6045914 158.9973450  -1.1474333  63.9295998 158.3790283  -1.7391808
  65.9526062 158.2217560  -1.0263722  65.7845078 157.1705933  -0.7920668
  66.4209824 158.1768036  -2.0095832  66.9455490 158.7470703  -0.0133561
  68.0547638 159.4099121  -0.4817675  68.1289673 159.7106476  -1.5163925
  69.0876083 159.7042542   0.4363221  69.9828033 160.1864014   0.0722266
  68.9385910 159.4553986   1.8161470  69.5906601 159.8188629   2.5965941
  67.8000870 158.7808533   2.2697101  67.8069687 158.4035187   3.2816229
  66.8335037 158.4282837   1.3351659  66.0255127 157.8183441   1.7113603
  63.8992271 159.2187347   0.1863293  63.8965416 160.3216705   0.7410191
  63.1848068 158.2200470   0.7612578  63.1828613 157.3011322   0.3420850
  62.3579674 158.4502106   1.9260960  62.2731819 159.5186157   2.1246681
  60.9103317 157.9475708   1.7548171  61.0508232 156.9938965   1.2460240
  60.3437195 157.8519592   2.6810515  60.4236259 158.6378937   1.0658499
  63.1490822 157.9222260   3.1783879  63.4363899 156.6989136   3.3143673
  63.3472900 158.7178345   4.1773820  63.1673317 159.7052917   4.0650301
  63.6234055 158.3477936   5.6027417  64.1348572 157.3895111   5.6933022
  64.5270691 159.3996735   6.2364392  64.1390381 160.4107208   6.1126823
  64.8332901 159.1514282   7.7126598  65.3366928 158.1855164   7.7539911
  65.5388336 159.8923645   8.0885868  63.9299240 159.2152100   8.3192501
  65.7765808 159.3842926   5.3809986  65.7502518 160.2684784   4.7441292
  66.6149750 159.6555939   6.0225620  65.8990936 158.4070129   4.9140582
  62.3033104 158.2085876   6.3453164  61.4527626 159.0947723   6.3291073
  62.0772057 157.0941467   6.9932623  62.8253860 156.4160309   7.0150051
  60.9617424 156.9371796   7.9969311  60.1043396 157.5051270   7.6358385
  60.6860504 155.4403229   7.9191399  61.6715851 154.9746857   7.9229360
  60.1276627 155.1837158   8.8193941  60.0241470 154.8924713   6.6050797
  60.6092491 154.9889832   5.6905084  59.8531036 153.4663544   6.8498197
  59.2724991 153.1827393   7.7276363  59.2735786 153.0895233   6.0070534
  60.7858810 152.9295807   6.6768703  58.6491318 155.5460205   6.4477320
  58.7708092 156.6262207   6.3672767  58.1695976 155.1054230   5.5736513
  58.0255165 155.2736664   7.2992206  61.3890381 157.3726501   9.4403095
  62.5692520 157.3311615   9.7665434  60.4396286 157.6989746  10.3423223
  59.4907570 157.7737427  10.0044537  60.6332664 157.8703918  11.7483568
  61.7145615 157.8967133  11.8832750  60.0202637 159.2961731  12.0295744
  58.9360008 159.1850433  12.0404568  60.3432274 159.6015320  13.0248404
  60.4318848 159.9687805  11.2770710  60.0800934 156.6783295  12.5682726
  58.9241753 156.6835480  13.0692825  60.8929482 155.6016846  12.4686289
  61.7169037 155.6266479  11.8850393  60.4396515 154.3475494  12.9774723
  59.6450768 154.0370178  12.2990046  61.6463737 153.3949127  12.8824997
  62.5282860 153.8332214  13.3496389  61.3886986 152.4601898  13.3805065
  62.0486908 153.0929565  11.4336834  61.3147278 152.1275330  10.6640568
  60.4287033 151.7167206  11.1251383  61.6538773 151.7367554   9.3702488
  61.0165825 151.0294647   8.8603516  62.7541428 152.3213959   8.7898569
  63.0978928 151.9249573   7.5370288  62.3561859 151.6282654   7.0046282
  63.5401306 153.2111206   9.5366783  64.4391403 153.6269379   9.1062374
  63.2006111 153.6510925  10.8400660  63.8885384 154.3449860  11.3001385
  59.8941116 154.3818207  14.4362736  60.6405754 154.6901550  15.3729429
  58.5683098 154.1655273  14.5862465  58.0728989 153.8867798  13.7513990
  57.7929802 154.0483398  15.8104410  58.0886917 154.9024200  16.4196911
  56.3593521 154.2774048  15.4178400  55.7554092 154.2082062  16.3225842
  56.2201424 155.2736816  14.9981356  55.8962440 153.2752228  14.4525967
  54.9785004 153.5077209  14.2935591  58.1099129 152.7438202  16.5501747
  57.8116226 152.6222839  17.7465305  58.7057076 151.7901917  15.8136492
  58.6886482 151.8445435  14.8052568  59.5782356 150.6799774  16.2757607
  60.0508461 150.9068756  17.2314053  58.6606216 149.5667419  16.6631088
  57.9751511 149.9636688  17.4118900  58.0488358 149.3103027  15.7982016
  59.4018822 148.3849945  17.2897358  60.4514503 147.9197235  16.8338127
  58.9198456 147.8199921  18.3685226  59.4160156 147.0322266  18.7601242
  58.1004562 148.2120514  18.8101025  60.5886955 150.3098755  15.2151051
  60.1159325 150.0272369  14.1191425  61.8754425 150.2589874  15.5078087
  62.1528397 150.5426941  16.4366035  62.9488411 149.9390869  14.4751549
  62.6489296 150.2467804  13.4734163  64.2294083 150.6985626  14.8767700
  63.9749832 151.7476501  15.0277185  64.8309937 150.1685486  16.2001572
  65.1973419 149.1600037  16.0084763  65.6286926 150.8513641  16.4926071
  64.0912933 150.1348724  17.0000420  65.2974091 150.5940552  13.7390757
  64.8609543 151.1383209  12.9015779  66.1608887 151.1795044  14.0549355
  65.4957809 149.5681305  13.4288578  63.1650391 148.4372711  14.2704735
  63.5425987 148.0969238  13.1763306  62.9142609 147.6128540  15.3213215
  62.5985794 148.0644226  16.1678047  62.9573936 146.1568298  15.3413382
  63.9424706 145.8110046  15.0280781  62.7747192 145.6426697  16.7487755
  63.3372154 146.2387238  17.4674072  61.7542763 145.8769226  17.0519619
  63.2234764 144.1428070  16.9171371  62.5547905 143.6309814  16.2250443
  64.2868805 144.0447235  16.6988640  62.9663582 143.6988373  18.3946362
  63.4001846 144.4344025  19.0720024  61.8792419 143.6470032  18.4545975
  63.5827446 142.3352661  18.6147976  64.4360733 142.2388000  19.1464176
  62.9981842 141.2119598  18.3161163  61.8228683 141.1020508  17.7325439
  61.3337898 141.8592987  17.2770386  61.3840218 140.1990662  17.8427734
  63.5765114 140.0853729  18.6766243  64.5075912 140.0800171  19.0679874
  63.1988144 139.2470093  18.2587833  61.9298706 145.5258636  14.3879280
  62.2160034 144.7547150  13.4665155  60.6873894 145.8753357  14.6502008
  60.5045013 146.5191498  15.4066048  59.4995003 145.5091705  13.8993101
  59.7131615 144.4733734  13.6355104  58.2309647 145.5595093  14.7786961
  58.0872650 146.6379700  14.8449001  57.4136162 145.1327057  14.1974106
  58.2442894 144.9168854  16.1646729  58.8912697 145.5323486  16.7897511
  57.3145103 145.0358429  16.7209663  58.6709862 143.3975067  16.2026768
  58.1653709 142.5967102  15.3479061  59.5409431 142.9596558  16.9810104
  59.3903389 146.2830353  12.5623808  58.5616035 145.9050140  11.7409439
  60.1616211 147.3558044  12.2844296  60.9125710 147.5636902  12.9270458
  60.1166420 148.3085175  11.1608362  60.8421516 149.0684509  11.4510860
  60.7626953 147.7489929   9.8474445  60.1127625 147.0665894   9.2997131
  60.9683380 148.5832825   9.1767941  62.0047836 147.0169678  10.1205235
  62.6053314 147.4396515  10.9259987  61.8317451 145.9464569  10.2307768
  62.8795471 147.0828705   8.8523979  63.5988235 146.2656708   8.7983780
  62.2115135 146.9270020   8.0053186  63.5891151 148.3846588   8.7746048
  63.0810051 149.1188049   9.2467861  64.7496033 148.5647278   8.1232557
  65.5519867 147.6022034   7.7689891  65.1915283 146.7138977   8.0869265
  66.3939743 147.8043365   7.2490802  65.2285843 149.7810364   7.9827046
  64.7294464 150.6256714   8.2226162  66.0129166 149.9255371   7.3629971
  58.7883453 149.0693970  10.9853697  58.4664917 149.4445038   9.8266373
  58.0158043 149.1954193  12.0499992  58.4669075 148.9461365  12.9185972
  56.8034821 149.9673157  11.9984407  56.2257538 149.7817841  11.0929508
  55.8922005 149.7145844  13.2338991  56.3519859 149.9606171  14.1910658
  54.9883766 150.3156128  13.1340027  55.4603920 148.2691498  13.3453503
  54.9695549 147.8824310  12.4522562  56.3109818 147.6753998  13.6801071
  54.5090752 148.1352386  14.4780111  54.9851494 147.8886719  15.6221237
  53.2670517 148.1197052  14.2735472  57.1081581 151.4818115  11.9534531
  58.1103935 151.9741516  12.5197840  56.3032875 152.2428894  11.2114811
  55.5389137 151.7902222  10.7309370  56.3535309 153.7499542  11.1856384
  56.5945587 154.0436249  12.2072849  57.5135994 154.2664948  10.2769585
  57.1518822 154.1427155   9.2562027  57.7334862 155.3077698  10.5125332
  58.4256248 153.6858978  10.4155912  55.0829048 154.4848938  10.7385216
  54.3610954 153.9037476   9.9546871  54.7545013 155.6156464  11.3587799
  55.2707367 155.9875793  12.1431675  53.5898438 156.3931885  10.9199696
  53.0369682 155.7354736  10.2492685  52.6612740 156.6207733  12.1285496
  53.1116753 157.5114899  12.5665941  51.6088715 156.8063507  11.9138041
  52.5796509 155.5419464  13.2090540  52.2105560 154.2017822  12.9701767
  52.2744179 153.5233154  14.1195965  52.0906067 152.4595337  14.1510420
  52.6168861 154.4067535  15.1037064  52.7858658 154.0753937  16.0427246
  52.8807182 155.6470337  14.5458612  53.1411285 156.5660706  15.0498257
  53.9160500 157.6973114  10.1597109  53.0155334 158.2912903   9.5585022
  55.1925468 158.0806122  10.0187788  55.8330688 157.4613342  10.4945164
  55.7073860 159.3969116   9.5903149  55.0239182 159.8425293   8.8675461
  55.8182564 160.3779755  10.8034754  56.3330574 159.9376831  11.6574183
  56.3366241 161.2683868  10.4477043  54.4075928 160.8102264  11.2612638
  53.6777115 161.7321472  10.5013571  54.1545563 162.2471008   9.6804743
  52.3848610 162.0762329  10.8833828  51.9269600 162.9076691  10.3681812
  51.8084793 161.5375977  12.0493622  50.7425919 161.6103668  12.2074394
  52.5572624 160.5681152  12.7589436  52.0880852 160.0868073  13.6042919
  53.8490219 160.2145081  12.4448442  54.3469963 159.4952240  13.0781355
  57.1188812 159.3059387   8.8974466  57.8175125 158.3077698   9.1071577
  57.5829697 160.4080505   8.3110838  56.8955345 161.0719452   7.9842925
  58.9860191 160.5433044   7.9854188  59.5073013 160.6462097   8.9371414
  59.3754005 159.6467438   7.5030727  59.3304977 161.8271332   7.1997709
  58.6566124 162.8929901   7.2427268  60.4503174 161.7494659   6.4601064
  60.8147430 160.8079071   6.4324141  61.0783577 162.8855286   5.7911701
  60.3483086 163.6400757   5.4982681  61.9612846 163.6179657   6.7732491
  62.5974884 162.8803253   7.2623620  62.9619255 164.5417938   6.0419679
  62.4062233 165.2963562   5.4852490  63.5539169 165.0629578   6.7943239
  63.6058235 164.1254272   5.2672839  61.1951904 164.3343964   7.7566514
  60.5229263 163.7586975   8.1284466  61.7950096 162.5742188   4.4714561
  62.5523453 161.6101532   4.3316946  61.4725952 163.3342438   3.3875396
  60.7833519 164.0630035   3.5056796  62.0125961 163.1519470   2.0483575
  62.0483170 162.0741882   1.8894398  61.1525497 163.7156982   0.8990116
  61.6269455 163.5117493  -0.0609132  59.7645226 163.1600342   0.7897758
  59.1764488 163.6880341   1.5404310  59.3980484 163.3352509  -0.2217057
  59.7197609 162.0872498   0.9775370  61.0163460 165.0857086   1.0901597
  61.8094749 165.5019836   0.7448190  63.4658852 163.7447357   1.9369619
  63.6624947 164.9415741   1.8359814  64.5524826 162.9113464   1.9084815
  64.2980576 161.9347382   1.9483303  65.9167709 163.4028931   1.6837205
  66.1157303 164.3791504   2.1258142  66.9535370 162.4619446   2.3388095
  67.0314865 161.5084229   1.8165069  67.9252548 162.9511261   2.2712784
  66.6276016 162.2930756   3.3651397  66.1968231 163.5711670   0.1616824
  66.0702972 162.6423035  -0.6414256  66.7166672 164.7440948  -0.2761051
  66.8102417 165.5093536   0.3763656  67.3526001 164.9646454  -1.6063972
  66.9366913 164.2358093  -2.3020372  66.9328156 166.3480225  -2.2087743
  65.8477631 166.4424591  -2.2517488  67.2233963 167.1246796  -1.5013514
  67.4412308 166.6750488  -3.5977664  68.5076904 166.4644775  -3.6779456
  66.9837723 166.0384369  -4.3551025  67.3317108 168.1309814  -4.0580268
  66.3686066 168.8404694  -3.6213276  68.1920929 168.5950623  -4.8357339
  68.8563385 164.7298737  -1.5231652  69.5681076 165.3802795  -0.7583816
  69.4196014 163.9164886  -2.4389491  68.8280563 163.3433838  -3.0235040
  70.8340149 163.7434692  -2.7066607  71.4276810 163.7284241  -1.7926366
  71.1764145 162.4140472  -3.3997643  70.7047348 162.4526367  -4.3816657
  72.6205444 162.3105164  -3.7177439  73.1988983 162.4809265  -2.8096833
  72.9838028 161.4291077  -4.2462029  72.8616714 163.1410828  -4.3811646
  70.6658096 161.2366333  -2.5346522  71.2512283 161.1921539  -1.6162807
  69.6213608 161.4153442  -2.2791243  70.7236557 159.8389587  -3.1443527
  71.7250214 159.4847260  -3.3890748  70.3146286 159.0948029  -2.4609485
  70.1109238 159.8112335  -4.0454044  71.3255463 164.9894562  -3.4330575
  71.0505295 165.1136017  -4.6465049  72.0823746 165.8629608  -2.7399070
  72.1838837 165.7932587  -1.7374418  72.7052231 167.0295868  -3.3981965
  72.1339951 167.2088470  -4.3090544  72.5480347 168.3035431  -2.6274292
  72.8305664 169.1091461  -3.3051291  71.5014267 168.5456238  -2.4427347
  73.3897476 168.3303223  -1.3472799  74.6464157 168.9949646  -1.3323487
  74.9781494 169.5159302  -2.2183173  75.4176102 169.0452423  -0.1680975
  76.3927460 169.5035858  -0.2419144  74.9344482 168.4457703   0.9944510
  75.7078476 168.4186249   2.1276829  76.5101013 168.9290924   1.9957445
  73.6756592 167.9135284   1.0426441  73.2107849 167.6351318   1.9768778
  72.8679123 167.8596191  -0.1176330  71.8495712 167.4999695  -0.1130119
  74.1260986 166.8031158  -3.9383566  74.5996933 167.6357422  -4.7385621
  74.7957611 165.7468109  -3.4173565  74.3061447 165.1887512  -2.7325566
  76.1717453 165.3308563  -3.8194540  76.3119278 165.7870941  -4.7994037
  77.1912842 165.9691010  -2.9135513  76.8369370 165.8642578  -1.8881044
  78.1865692 165.5501251  -3.0617621  77.2811279 167.0427246  -3.0789659
  76.3729477 163.8210144  -3.9004853  75.8167267 163.0540771  -3.0804484
  77.1862106 163.3827667  -4.9001856  77.6277466 164.0817413  -5.4803472
  77.2695389 161.9482117  -5.3393641  77.0031586 161.2561340  -4.5405092
  76.1480331 161.7816162  -6.4085865  75.1788177 162.0857544  -6.0133543
  76.3026276 162.4907532  -7.2217975  76.0304871 160.4456940  -7.0515060
  75.2403641 159.4085236  -6.4496303  74.6620102 159.6214752  -5.5627513
  75.2239456 158.1827698  -7.0901923  74.4818497 157.4419250  -6.8316460
  75.8542862 157.9933777  -8.3641586  75.6475601 156.9040527  -9.1814547
  75.2513809 156.1648865  -8.7142401  76.6136398 159.0281372  -8.8744183
  77.1445999 158.8839417  -9.8037701  76.7845688 160.2522583  -8.2214394
  77.3035126 161.0816803  -8.6787863  78.6691589 161.6174011  -5.8428273
  79.3352661 162.4624634  -6.4251533  79.1448669 160.3931274  -5.6897049
  78.5403366 159.7225037  -5.2370248  80.3770752 159.7713470  -6.2060366
  80.4748154 160.1485291  -7.2240186  81.6385651 160.1595001  -5.3232541
  81.3790436 161.0815277  -4.8030424  81.8141251 159.4674530  -4.4996395
  83.0188904 160.3118591  -5.9539437  83.3146439 159.3778229  -6.4316602
  83.0396652 161.1861267  -6.6045809  84.1141281 160.4530640  -4.9265175
  83.7275696 160.9690094  -4.0476112  84.3245621 159.4631042  -4.5217957
  85.2157669 161.0597076  -5.5097604  85.0393982 161.9561768  -5.9402728
  86.4540863 160.7019653  -5.3615961  86.8983536 159.6883087  -4.7234163
  86.2639694 158.9578400  -4.4334717  87.8846893 159.4761353  -4.7706094
  87.4142609 161.4220276  -5.8026662  87.2307205 162.2878265  -6.2893038
  88.3382263 161.3256226  -5.4063277  80.3606262 158.1869507  -6.3377318
  79.9991684 157.5336609  -5.3451433  80.6095352 157.5610046  -7.4949789
  80.9341507 158.2039032  -8.2030735  80.6931534 156.1091003  -7.6487865
  80.1248627 155.5059509  -6.9407225  80.1013794 155.6657867  -8.9526196
  80.5987930 156.1723633  -9.7797041  80.2606888 154.5960236  -9.0879803
  78.5279694 155.8558197  -9.1130333  77.9588699 155.4471283  -8.2780476
  78.3333206 156.9237061  -9.2121563  78.1071930 155.1193390 -10.4143209
  77.3692780 154.1359711 -10.2112856  78.4473724 155.4355469 -11.5806189
  82.1633987 155.6523590  -7.5857210  83.0077057 156.2394409  -8.2739553
  82.4047852 154.5689087  -6.8435068  81.6284409 154.0639801  -6.4404888
  83.7323380 153.9411926  -6.7101231  84.4267349 154.1194916  -7.5311747
  84.5172501 154.4240417  -5.4803038  83.8389893 154.3250580  -4.6327958
  85.3434143 153.7392731  -5.2888761  84.9698563 155.8935547  -5.7417030
  85.5516739 155.9728241  -6.6600199  84.1372452 156.5889435  -5.8479042
  85.9019623 156.4121094  -4.6462388  87.1271744 156.1355896  -4.6580739
  85.4390564 157.2528839  -3.8110659  83.5966263 152.3651886  -6.7954769
  82.5192337 151.7992401  -6.5397944  84.6385651 151.6714935  -7.1665473
  85.4969864 152.1374969  -7.4235740  84.6904068 150.1947174  -7.3370953
  83.8418655 149.7103577  -6.8539190  84.4812927 149.9861908  -8.8798141
  83.5506516 150.4229431  -9.2420998  85.2366562 150.4998779  -9.4745016
  84.4888687 148.4907227  -9.2569571  85.3285217 147.9067230  -8.8800859
  83.5874710 148.0403900  -8.8412857  84.5913467 148.2729645 -10.7848940
  85.3687744 147.3360138 -11.1597118  83.9463959 149.0856934 -11.6241045
  84.1226425 149.0105286 -12.6157637  83.4399414 149.8897552 -11.2819462
  86.0357666 149.6884003  -6.7217903  87.1296158 149.8342285  -7.3645091
  85.9605484 149.0092316  -5.5734725  85.0597000 148.8212585  -5.1572533
  87.1672516 148.3640289  -4.9587727  87.9467926 148.1466675  -5.6889544
  87.8873138 149.2473450  -3.8517957  87.0956497 149.5459290  -3.1646085
  88.6359482 148.6935120  -3.2853036  88.5047684 150.5172424  -4.4285297
  89.2053070 150.3205109  -5.2400956  87.7157822 151.1552734  -4.8266864
  89.3324661 151.2984467  -3.4176767  88.7132950 152.1164703  -2.7176404
  90.5727539 151.1043091  -3.3595710  86.9928436 146.9317169  -4.3608260
  85.8606110 146.5692902  -4.1253853  88.0520020 146.0986328  -4.1855812
  88.9634552 146.4052887  -4.4943185  87.9692917 144.6861725  -3.6660919
  88.9407349 144.2167816  -3.8212147  87.8234482 144.7347717  -2.1358962
  86.7758255 144.9627686  -1.9394201  87.9218216 143.7271576  -1.7319857
  88.6487732 145.6477203  -1.3048438  89.9806366 145.2811890  -1.0911603
  90.3783340 144.3981781  -1.5691954  90.8721008 146.1534271  -0.4325655
  91.8953629 145.8227692  -0.3325731  90.3681335 147.3847809   0.0908262
  91.2840271 148.2043457   0.7184245  92.2033005 147.9477081   0.6150590
  89.0288544 147.7870026  -0.1409478  88.6576843 148.6860809   0.3283886
  88.1539307 146.8856201  -0.8021667  87.1282349 147.1784515  -0.9713027
  86.9457932 143.7613220  -4.3769388  86.3519516 142.8671875  -3.7990434
  86.6370697 144.0854645  -5.6575885  87.1669159 144.8640137  -6.0226107
  85.6861038 143.3262329  -6.5591435  85.9880066 143.3352966  -7.6064610
  85.6324921 142.2951508  -6.2097416  84.2440338 143.7952423  -6.4419451
  83.3961029 143.0511169  -7.0013642  83.9197540 144.8828735  -5.7437921
  84.6837311 145.3521118  -5.2787633  82.5172424 145.2590637  -5.4583545
  81.8703537 144.5504608  -5.9755821  82.1962204 145.0930634  -3.9056456
  81.1486588 144.8050995  -3.8173933  82.8502655 143.7991943  -3.4063165
  83.9382935 143.7486725  -3.3644090  82.4879150 143.6341858  -2.3916376
  82.4214630 143.0564423  -4.0790319  82.5329208 146.4242859  -3.1159756
  83.5227432 146.7722321  -3.4114206  81.8858261 147.2406921  -3.4366751
  82.3652725 146.3102112  -1.5500984  83.0862503 145.6170959  -1.1166354
  82.4046783 147.2815247  -1.0570579  81.3435974 145.9967346  -1.3355923
  82.1919937 146.6617584  -6.0072813  83.0268173 147.5697784  -6.0243344
  80.9494095 146.9254761  -6.4499040  80.1865463 146.2635651  -6.4514303
  80.4680862 148.3331757  -6.5337186  81.2775955 148.9403076  -6.9389114
  79.3008804 148.4476166  -7.5616884  78.4700317 147.8820038  -7.1399441
  79.0495911 149.4983215  -7.7065773  79.6493073 147.8428802  -8.9098253
  80.5995026 148.2154083  -9.2925129  79.7959290 146.7631531  -8.8811445
  78.5686569 148.1602631 -10.0218945  77.3835220 148.5022888  -9.8362083
  78.9806061 148.2433014 -11.1922026  80.1537323 148.9897461  -5.1993637
  79.6624451 148.3712921  -4.2791815  80.4384842 150.2721863  -5.1287026
  80.8702164 150.7949219  -5.8773413  80.1755295 151.1100311  -3.9133503
  79.2071838 150.7560425  -3.5596621  81.2845383 150.7763672  -2.9355526
  81.1954803 149.7219696  -2.6739545  82.7150040 150.9298401  -3.4902325
  82.7551575 151.8525543  -4.0691028  83.4494476 150.9860382  -2.6867824
  82.9066162 150.0071564  -4.0379953  81.2715378 151.6105652  -1.8489267
  81.7773590 151.2151031  -1.1352359  79.9371185 152.6139374  -4.2558846
  80.3207932 153.0750275  -5.3351283  79.2803879 153.3735504  -3.3881624
  78.9631805 153.0155487  -2.4986010  78.8250198 154.7185974  -3.7610707
  79.6130676 155.1401672  -4.3850613  77.4752426 154.6775055  -4.5899181
  77.5329590 153.9020538  -5.3537641  76.3090363 154.3710632  -3.6981223
  76.1501846 155.1728973  -2.9770699  75.4319382 154.3192139  -4.3431954
  76.5248795 153.3703003  -3.3239443  77.1877441 155.9085846  -5.3500862
  78.0271606 156.0383148  -6.0332017  76.2437134 155.8255463  -5.8886037
  76.9869003 156.7468414  -4.6829495  78.6936569 155.6120911  -2.5613997
  78.1785126 155.1453857  -1.5259727  79.2223358 156.8503265  -2.6282778
  79.5827408 157.0467072  -3.5511222  79.3155746 157.8272247  -1.5031637
  78.9468384 157.3451233  -0.5977800  80.7734222 158.2025452  -1.4163477
  81.1424179 158.7927246  -2.2551723  80.8303986 158.8764343  -0.5615276
  81.7384949 157.0246582  -1.0751235  81.6502838 156.7163391  -0.0333646
  81.5062027 156.1039124  -1.6102570  83.2066803 157.4524536  -1.3032384
  83.3665009 157.7103119  -2.3501701  83.4103165 158.3914795  -0.7885841
  84.2218933 156.3386841  -0.8378405  84.0025177 156.1359558   0.2104338
  84.1259995 155.4933319  -1.5192213  85.6159515 156.8415527  -0.9212583
  85.8341904 157.5002899  -0.1874064  86.2369614 156.0570984  -0.7831707
  85.8790359 157.2051544  -1.8260704  78.3666382 159.0283203  -1.8089697
  78.4387512 159.5788269  -2.9385750  77.4469757 159.3512115  -0.9051511
  77.2912064 158.7840118  -0.0841111  76.4280243 160.3702850  -1.1676142
  76.7611237 161.0166473  -1.9796275  75.1343231 159.7081604  -1.6871611
  74.4886246 160.5144196  -2.0351841  75.4178925 158.7616882  -2.9035094
  75.9645844 157.8959808  -2.5296261  74.5067062 158.4698944  -3.4257150
  76.0530701 159.3221283  -3.5894792  74.3428268 158.9306488  -0.5994483
  73.8758163 159.6108704   0.1128165  73.4433899 158.4975891  -1.0371312
  75.0860977 158.2928467  -0.1210534  76.1218414 161.2607727   0.0446472
  76.2559280 160.8421783   1.1636930  75.6956863 162.4890594  -0.1931324
  75.6068573 162.8089752  -1.1470001  75.2831268 163.3968658   0.7965167
  75.2152100 162.9406738   1.7841258  76.4153061 164.4913940   0.9265370
  76.7173538 164.7464752  -0.0892435  75.9891663 165.3823242   1.3878086
  77.6485367 164.0813904   1.7564869  77.3209839 164.1024933   2.7958925
  77.8512115 163.0329132   1.5380642  78.7928848 165.0915985   1.5459610
  79.5656891 164.8619232   2.2795284  79.1215286 164.8602448   0.5327662
  78.4568100 166.5722961   1.6475774  77.7114944 166.7954102   0.8841491
  77.9579849 166.6549225   2.6132107  79.6788177 167.4886932   1.5442811
  80.0797501 167.3982544   0.6216921  79.3646698 168.4322815   1.7205493
  80.3357773 167.2562256   2.2753451  73.9283752 163.9917755   0.3797727
  73.7685623 164.3864288  -0.8022724  72.9491272 164.0098724   1.2889391
  73.2450104 163.6409607   2.1813831  71.5711594 164.2621002   1.1605181
  71.3667374 164.6813660   0.1753626  70.9462662 162.8558044   1.2174776
  70.8803406 162.3841248   2.1979265  69.9252930 162.9869385   0.8589938
  71.4798355 162.2236786   0.5076602  71.0104141 165.2097473   2.2252011
  71.6986771 165.5079956   3.1887078  69.7800827 165.6955414   2.0582116
  69.2746735 165.5490265   1.1961260  69.2363739 166.6682892   2.9648185
  69.5094604 166.4919281   4.0052142  69.9091110 168.0043335   2.6182411
  70.9540939 167.6959839   2.6502841  69.4513016 168.5276794   1.2675585
  68.4344482 168.9200592   1.2802931  70.1147385 169.2774200   0.8364673
  69.5453796 167.6974640   0.5675752  69.6867752 169.0647736   3.7076209
  68.6330109 169.3336792   3.6343074  69.9444733 168.6734009   4.6917534
  70.4174271 170.4397736   3.5122054  70.0082169 170.8990173   2.6123481
  70.0641937 171.0625458   4.3340912  71.4909744 170.2798157   3.4121544
  67.7126389 166.7209167   2.9897988  67.1046143 166.5280609   1.9681885
  67.1640549 166.8985291   4.1826372  67.7201309 167.0935669   5.0029063
  65.6748047 166.7402496   4.2276006  65.3922958 165.8976898   3.5964200
  65.3939590 166.4805756   5.2482867  64.8707962 167.9384918   3.6912892
  64.7897873 169.0207520   4.3045168  64.1517181 167.6728973   2.6175735
  64.2230148 166.7738647   2.1628666  63.2860184 168.7156677   1.9480689
  63.7713547 169.6837769   2.0718420  63.2109489 168.3389587   0.5075281
  63.0373306 167.2630157   0.5256126  62.4212799 168.7777100  -0.1023970
  64.5353241 168.5613098  -0.3387048  65.3886795 168.1476135   0.1986375
  64.4890518 167.9557800  -1.2438527  64.7652588 170.0545044  -0.7453139
  65.3178329 169.9133301  -1.6742020  63.8347969 170.5889893  -0.9368026
  65.4975281 170.7785492   0.3166827  64.8672791 171.1043549   1.0355278
  66.7587585 171.3047028   0.3321466  67.6413956 170.9825439  -0.6017323
  67.4846649 170.2199707  -1.2451811  68.5645981 171.3876190  -0.6625825
  67.1100693 172.0781555   1.3102490  66.5523834 172.3212738   2.1164680
  68.0472031 172.4545135   1.2947993  61.9611816 168.9366455   2.6664374
  61.5363693 170.0503845   3.0061541  61.1898384 167.8379364   2.8730795
  61.5435410 166.9282074   2.6134861  59.7257347 167.8370514   3.2092755
  59.5748940 168.8342133   3.6228199  58.8789139 167.5458527   1.9253551
  59.0106735 166.4798737   1.7397903  57.8592262 167.8425140   2.1709719
  59.2946129 168.3978729   0.7268731  58.8745613 169.3886719   0.9000027
  60.3671074 168.5900421   0.6964589  58.8332214 167.8365326  -0.5686389
  58.1616936 168.4557953  -1.3484184  59.2360535 166.6235809  -0.9193025
  58.9031181 166.2346649  -1.7899328  59.9637184 166.1638336  -0.3908730
  59.4914551 166.7873230   4.2736907  60.0487709 165.6633606   4.1354885
  58.5863838 166.9419250   5.3147497  58.1062813 167.8282318   5.3785977
  58.0459137 165.9097443   6.1856976  58.8689957 165.2149506   6.3526807
  57.6114731 166.4837036   7.5210252  56.7350006 167.1080170   7.3474536
  57.2443008 165.6744080   8.1521645  58.6483307 167.2522278   8.2677364
  59.5109634 166.6202698   8.4788809  58.9811783 168.1359558   7.7233543
  58.0866585 167.6979675   9.5567436  57.4554710 166.9616089  10.0542278
  58.9085884 167.9759369  10.2164822  57.2090797 168.9257202   9.3999815
  57.5904388 169.6813660   8.8489323  55.9303093 169.1171112   9.8239508
  55.3198967 168.1011505  10.3585272  55.7819023 167.3135071  10.7901144
  54.3533897 168.2630157  10.6029987  55.2381973 170.2291870   9.6584406
  55.7469597 171.0382538   9.3318338  54.3825264 170.3602295  10.1787786
  56.9032249 165.1199799   5.5164981  56.3557930 165.6264954   4.4757271
  56.4669800 164.0093842   6.0740228  56.9624367 163.6467285   6.8759613
  55.3026352 163.2720184   5.5405331  54.4725189 163.9235840   5.2676563
  55.6912880 162.5126495   4.2318215  54.8162613 162.0852203   3.7422123
  56.0196762 163.2377319   3.4871509  56.8350296 161.4118042   4.3789802
  56.5995331 160.2636414   5.1742005  55.6659737 160.1519012   5.7055964
  57.5639153 159.2995911   5.2924242  57.3296356 158.4764557   5.9511924
  58.7732124 159.4239197   4.6086712  59.4938698 158.6212311   4.6611943
  59.0162697 160.5860748   3.7933645  59.8307571 160.5631561   3.0845053
  58.0263901 161.5783691   3.7136941  58.2102280 162.5177460   3.2135277
  54.6247711 162.3137360   6.5449824  55.3639679 161.8106689   7.4181418
  53.2959671 162.0618744   6.4323196  52.8142281 162.5932159   5.7211919
  52.5539284 160.8913422   6.9530048  52.9059677 160.6462555   7.9550586
  51.0997086 161.3307190   6.9607806  50.9950752 162.1095428   7.7161498
  50.7851830 161.7913208   6.0242901  50.0712204 160.2104645   7.2408032
  50.3036385 159.3690491   6.5880332  50.2847176 159.9840393   8.2854328
  48.5341301 160.3880310   7.0886483  48.4157448 160.6046295   6.0269632
  48.1373672 159.4240723   7.4071584  47.8605347 161.4524384   7.9967709
  48.1438866 161.2990417   9.0380573  48.3025131 162.4005280   7.6903629
  46.3781204 161.4882050   7.7691712  45.8223038 160.7113800   8.0973587
  45.9988174 162.3383026   8.1610422  46.2475471 161.6160126   6.7758341
  52.7376366 159.7271271   6.0057507  52.7991943 159.9326477   4.7729168
  52.8814201 158.4949799   6.5323491  52.7484360 158.4188232   7.5306554
  52.8982811 157.1579742   5.8457394  53.3287430 157.2387238   4.8475933
  53.8532829 156.1053314   6.5591617  53.4937515 155.9950256   7.5822291
  53.9218178 154.7115784   5.7854929  54.0505333 154.8891907   4.7177858
  54.8047485 154.1666565   6.1195517  53.0027466 154.1531067   5.9630165
  55.2792015 156.7084808   6.6339555  55.2927818 157.7285614   7.0178256
  55.8313713 156.1454315   7.3864117  55.7984772 156.8418884   5.6849265
  51.4943466 156.6296082   5.7300253  50.6842613 156.7938232   6.6509805
  51.2361450 155.9320374   4.6330781  51.9440346 155.8587646   3.9164035
  50.0108986 155.2749481   4.2702098  49.3002586 155.3614807   5.0921612
  49.3957176 155.9224396   3.0452640  50.0797310 155.7383881   2.2168009
  48.4889679 155.3425446   2.8731284  49.0173798 157.4319305   3.1035767
  49.8848953 158.0356903   3.3699994  48.5467262 157.8670807   1.7146907
  47.6459122 157.3747406   1.3482994  48.3834267 158.9437103   1.7625222
  49.3502426 157.6907196   0.9995973  47.8960114 157.6738892   4.0792971
  48.1319466 157.3979492   5.1070576  47.6018753 158.7228851   4.0448427
  47.0544624 157.0434570   3.7921381  50.1198578 153.7805328   4.0489702
  49.1537552 153.0677795   4.3490496  51.2550812 153.3540192   3.5485060
  52.0336075 153.9804230   3.4014699  51.5529747 151.9784698   3.1785042
  51.4519348 151.2081451   3.9430139  50.6297836 151.5477600   2.0353105
  49.5958252 151.5773315   2.3790495  50.8065681 152.2438507   1.2153587
  50.8044090 150.1409607   1.5029626  51.8251190 149.9631500   1.1643821
  50.4544907 149.4352112   2.2563498  49.8344765 149.9149170   0.3218065
  48.6101685 150.0049591   0.4795481  50.3285294 149.7146759  -0.8014131
  53.0210419 151.8738251   2.7627721  53.6155357 152.8757172   2.4029520
  53.5547981 150.6234283   2.8588729  53.0468979 149.7869720   3.1088405
  54.9453659 150.3336487   2.5144892  55.2180557 151.1327667   1.8251849
  55.8722305 150.4026489   3.7085903  55.6493759 149.5540009   4.3553114
  57.2887077 150.2732239   3.1282291  57.5747566 150.9770966   2.3466759
  57.9793396 150.4163971   3.9592681  57.4122009 149.2863312   2.6822367
  55.8644524 151.6806030   4.5959544  56.6418533 152.3955994   4.3266468
  54.8957634 152.1786804   4.5551476  56.1513023 151.3473816   6.0764227
  57.1410789 150.9026642   6.1797457  56.1323776 152.2253113   6.7221646
  55.4317322 150.6500854   6.5055027  54.9346542 148.9996796   1.7574456
  54.5884285 147.9347992   2.3573055  55.4843216 148.8943481   0.5327841
  55.6982498 149.7742004   0.0853496  55.7543182 147.6519775  -0.2640498
  55.2676048 146.7891846   0.1906876  55.0807953 147.7493744  -1.6196510
  54.0743904 148.1434631  -1.4784312  55.6044426 148.5574646  -2.1304228
  54.9889793 146.4822998  -2.4927440  56.0167542 146.1192932  -2.4930384
  54.3270340 145.7798004  -1.9863799  54.5283089 146.9477386  -3.9042840
  53.4989929 147.2930145  -3.8073068  55.1720924 147.7763519  -4.1992812
  54.6338310 145.7736664  -4.8451519  54.6172333 144.8278351  -4.4912782
  54.6632080 145.8509064  -6.1659994  54.8286629 147.0172882  -6.7135458
  54.6567078 147.8506317  -6.1694379  54.8947983 147.0809784  -7.7193627
  54.5673409 144.7720337  -6.8818588  54.5237770 143.8220520  -6.5416427
  54.8159676 144.8605347  -7.8567700  57.2179222 147.2919617  -0.2148294
  58.0333900 148.1820068  -0.1916078  57.5359268 146.0327911  -0.2628383
  56.8201447 145.3245087  -0.3407658  58.8747864 145.5870056  -0.5224155
  59.6220360 146.3788757  -0.4707495  59.3040504 144.5193481   0.5286247
  58.6243782 143.6672821   0.5172394  60.7708282 144.0733948   0.2699105
  61.4072952 144.7922821  -0.2460559  61.2010155 143.9243469   1.2602754
  60.7552757 143.1817322  -0.3568239  59.2406120 145.1608276   1.7976613
  58.3795128 145.5540771   1.9572033  58.9980316 144.9864502  -1.8818846
  58.1994781 144.0665741  -2.2523997  59.9000053 145.5225525  -2.7246137
  60.4971275 146.2660828  -2.3918896  60.2857208 144.8787079  -3.9718521
  59.4314766 144.3793488  -4.4290214  60.7283325 145.8877563  -5.0433106
  61.4166145 146.6053314  -4.5967011  61.1853485 145.3078003  -5.8451257
  59.6311302 146.6456146  -5.8970008  58.8855858 145.9162903  -6.2137890
  59.1555138 147.2493744  -5.1241064  60.1026726 147.5652466  -7.0185504
  60.2846489 148.7720337  -6.8589177  60.2295609 146.9890747  -8.2237101
  60.6130600 147.6541901  -8.8799524  60.2329483 145.9863586  -8.3447542
  61.2515297 143.7302856  -3.7002118  62.0221024 143.8027802  -2.7320905
  61.2471123 142.7460938  -4.6203527  60.7738686 142.9107513  -5.4972920
  61.8176880 141.3970032  -4.3705869  61.3597298 140.9690399  -3.4788282
  61.5086670 140.3993378  -5.4622359  61.9806976 140.6477814  -6.4127979
  61.9006729 139.4481659  -5.1020904  60.1387825 140.1177673  -5.6939225
  59.9511261 140.6655884  -6.4596109  63.3510208 141.5040588  -4.2482300
  63.9800224 140.6016998  -3.6584723  64.0494614 142.5090027  -4.7781200
  63.4897308 143.2559052  -5.1640477  65.4697113 142.8158569  -4.4981747
  66.1102905 141.9368744  -4.5698633  66.0189667 143.7081451  -5.5814657
  67.0933762 143.8918304  -5.5834155  65.8885727 143.2178650  -6.5462122
  65.3749008 145.0493927  -5.6228776  64.5112305 145.3738861  -4.7708063
  65.6925354 145.7853699  -6.6001124  65.8001633 143.3753510  -3.0822954
  66.9946976 143.5915527  -2.7980154  64.7986755 143.4789124  -2.2302177
  63.9071426 143.3522186  -2.6876307  64.6914291 143.7097931  -0.8219227
  63.7967377 143.1830597  -0.4899868  65.5641708 143.2829590  -0.3277300
  64.4973755 145.1687317  -0.3692521  64.3617706 145.4109192   0.8091194
  64.4586868 146.1391754  -1.3002448  64.6902771 145.8882904  -2.2507837
  64.1695862 147.5407715  -1.0161066  64.7242355 147.8031769  -0.1152125
  64.7992020 148.5375519  -2.0306334  64.6590805 149.5819702  -1.7519652
  66.3516006 148.3749542  -2.1426861  66.5834045 147.3200378  -2.2894115
  66.8086014 148.8170776  -3.0279970  66.9689789 148.6894836  -1.3012463
  64.1212845 148.3202820  -3.4872909  64.9176941 148.3052368  -4.2313399
  63.5026207 147.4248810  -3.4272025  63.2383652 149.5610352  -3.7933810
  63.7975235 150.4934998  -3.8705561  62.7672272 149.3122559  -4.7442951
  62.4319077 149.6708984  -3.0683608  62.7198181 147.8777313  -0.7094257
  61.8805618 147.2684326  -1.2911190  62.4621964 148.8508453   0.1615157
  63.2247696 149.3482361   0.5987537  61.1056290 149.1805115   0.4668226
  60.3982315 148.4604492   0.0554876  60.8736496 149.3034363   1.9262977
  61.4178123 150.1653595   2.3124206  59.8026733 149.2906342   2.1286380
  61.3657570 148.0346985   2.6820817  61.1386108 147.1901855   2.0314720
  62.4382668 148.1829224   2.8080316  60.7158585 147.9314728   4.1214266
  60.9812508 148.7237244   5.0262556  59.8122215 146.9727936   4.2914987
  59.4186096 146.8395081   5.2120447  59.7345390 146.2005310   3.6452320
  60.7273827 150.3985901  -0.3101766  61.5232468 151.2464294  -0.7523410
  59.3987198 150.5204010  -0.5341820  58.8059120 149.7325439  -0.3151857
  58.7808609 151.6034241  -1.2578949  59.4246445 152.4589233  -1.4622179
  58.3149033 151.0039062  -2.5897448  57.8513145 150.0192719  -2.5290654
  57.5601273 151.6960602  -2.9630337  59.4471321 151.0074615  -3.6702821
  60.4495163 151.0064392  -3.2421236  59.4291573 150.0447693  -4.1811476
  59.3908539 152.0978699  -4.7363334  59.2130775 153.2939758  -4.5202050
  59.5947647 151.7670288  -5.9937086  59.5423851 152.5146027  -6.6708188
  59.7974854 150.8117371  -6.2514634  57.5242386 152.0894012  -0.5669308
  56.4666634 151.4381561  -0.5324005  57.6143951 153.2986298   0.0082608
  58.5100098 153.7502441  -0.1101419  56.5301628 153.9151611   0.8276924
  55.9082947 153.1511993   1.2943180  57.2581558 154.6817780   1.9272184
  57.8074493 155.5210724   1.5006469  56.5392189 154.9817810   2.6896000
  58.0445480 154.1245880   2.4363742  55.6391220 154.9101410   0.0103285
  56.0642204 155.8350220  -0.6648515  54.2977142 154.7781677   0.1883506
  54.0051727 154.1721497   0.9415134  53.2734070 155.7547150  -0.2548183
  53.6442871 156.3779907  -1.0685008  51.9992447 155.0872040  -0.6612660
  51.7966537 154.2883759   0.0521262  51.2069359 155.8334503  -0.6022476
  52.0567589 154.5058594  -2.1086879  52.5602188 155.1423492  -2.8363628
  52.5486946 153.5345154  -2.0577254  50.6408005 154.4803162  -2.7160242
  49.9753990 153.9474487  -2.0367615  50.3142014 155.5176697  -2.7888367
  50.5526924 153.9432831  -4.1704116  49.5983200 154.2128601  -4.6227412
  51.2776222 154.5032654  -4.7611766  50.7532845 152.4610443  -4.2452645
  49.8618965 152.0352936  -4.0348849  51.0348625 152.1564331  -5.1661458
  51.4037018 152.1069336  -3.5584879  53.1216393 156.6671448   0.9721329
  52.9296150 156.2354431   2.1249831  53.2227974 157.9878693   0.6785702
  53.4013367 158.2670898  -0.2755052  53.2184258 159.0252380   1.7307715
  52.8313408 158.5219421   2.6167428  54.7362938 159.4102631   2.0306547
  54.6284332 160.0581360   2.9005473  55.6972809 158.2972107   2.4324782
  55.6770287 157.5446777   1.6441979  56.7092056 158.7011261   2.4014065
  55.3947754 157.8814697   3.3935974  55.4078445 160.2174988   0.9247894
  54.8198776 161.0870514   0.6310396  56.3088264 160.6389771   1.3705320
  55.5968323 159.5839691   0.0581713  52.3653831 160.2151184   1.3107940
  52.0393906 160.3825531   0.1665788  51.9687157 161.0759583   2.2718456
  52.2225952 160.8663483   3.2266791  51.4210739 162.4111786   1.9718620
  51.3071861 162.5420837   0.8957586  50.0167961 162.4631042   2.6468189
  49.4191055 161.5883942   2.3904157  50.1306152 162.4540100   3.7308218
  49.3586197 163.8041534   2.3687162  49.9856873 164.6273193   2.7111819
  49.1027260 163.8966980   1.3132249  48.0371094 164.0424652   3.1587408
  47.1658401 163.1858215   3.2648551  47.8100548 165.2049103   3.7427909
  46.9542427 165.3692932   4.2533507  48.5319519 165.9098358   3.7879596
  52.4535637 163.4612885   2.5662541  52.7263603 163.4124451   3.7832263
  52.9376907 164.3897705   1.7803944  52.5407639 164.4153137   0.8520121
  53.8308678 165.4434967   2.1778224  54.6729546 165.0358734   2.7371297
  54.5068321 166.0672760   0.9472626  53.7427025 166.0812073   0.1700776
  54.8457489 167.6133728   1.1274273  55.5221634 167.7690887   1.9678565
  55.3934975 167.9830933   0.2606078  53.9519539 168.2365112   1.1578947
  55.7414360 165.3639069   0.4489556  56.0421257 165.8859863  -0.4594015
  56.5235481 165.6291199   1.1603332  55.6971741 163.8572540   0.1794546
  54.7283211 163.5456238  -0.2107961  56.4006271 163.4854736  -0.5655467
  55.8765030 163.3365936   1.1201197  53.1034737 166.4659424   3.0744526
  52.1281853 167.1257629   2.7133806  53.6220512 166.5807037   4.2880220
  54.5389748 166.1983643   4.4701624  53.1068611 167.4270782   5.3503537
  52.0348473 167.4275055   5.1531596  53.3626900 166.7692108   6.7264476
  54.4041519 166.4602814   6.6369042  53.3178825 167.4863434   7.5460968
  52.4752541 165.6180573   7.1226625  52.3554764 164.9113464   6.3015060
  52.9760933 164.9723511   8.4200773  52.8850288 165.6413574   9.2757902
  52.3557739 164.1107483   8.6669598  53.9802666 164.5778656   8.2647467
  51.0625610 166.0736847   7.4452381  50.4658623 166.4149017   6.5992889
  50.5223846 165.2695007   7.9448328  51.0434456 166.9116058   8.1421080
  53.6891556 168.8206177   5.3522525  54.9040070 169.0476074   5.3999257
  52.7520409 169.8090363   5.3126411  51.3540878 169.6652679   5.0858493
  50.9347382 169.0355377   5.8705158  51.1992836 169.3261566   4.0615697
  50.7372627 171.0252533   5.1756744  50.5682640 171.3186798   6.2117405
  49.8088799 171.0875092   4.6079288  51.8098030 171.8979797   4.5121021
  51.5811501 172.9391632   4.7395678  51.7971764 171.7702637   3.4296825
  53.0931244 171.2080688   5.0851026  53.9309464 171.3927460   4.4127569
  53.4115295 171.9066925   6.4085798  52.8654976 171.6034393   7.4809227
  54.2065735 172.9473877   6.2687640  54.5716019 173.2385712   5.3731794
  54.4670944 173.8955536   7.3328824  54.6950874 173.4098206   8.2816620
  55.7883568 174.6718903   6.9476109  55.7993889 175.0214844   5.9152546
  55.8930054 175.5283813   7.6136198  57.0385971 173.7137146   7.1307182
  56.8818092 172.7661438   6.6153212  57.9415054 174.1500549   6.7035675
  57.2186661 173.4957886   8.6462374  57.7049446 174.4753723   9.2831078
  57.0059319 172.4003143   9.2165422  53.2707787 174.8855133   7.4804873
  52.7648811 175.5466003   6.5776572  52.6700592 174.8834686   8.7139091
  53.0289307 174.3783112   9.5114918  51.6137733 175.8474884   9.0063658
  51.0090790 175.9284210   8.1030951  50.7027702 175.3330078  10.1664133
  51.3005753 175.0422363  11.0302334  50.0442276 176.1728973  10.3877401
  49.9078522 174.0508881   9.6907272  49.5628586 174.1871033   8.6657772
  50.6442719 173.2474060   9.7052250  48.7907944 173.5898438  10.6201372
  48.4199409 172.6874390  10.1340761  49.1411819 173.4017334  11.6350002
  47.7543793 174.6116943  10.6143713  47.9404755 175.4503784  10.0832586
  46.4754486 174.5527954  10.9905024  46.0932655 173.6593628  11.8011293
  46.7896004 173.0243073  12.1643467  45.1455002 173.4848785  12.1034489
  45.6356316 175.4998779  10.6744995  45.9008598 176.2114258  10.0085783
  44.6471024 175.4078369  10.8600893  52.2496567 177.1932983   9.2535372
  52.6289711 177.4135895  10.3861408  52.1881943 178.1391754   8.3356800
  51.9106026 177.8864594   7.3980327  52.6312599 179.5664673   8.5255737
  53.5068665 179.6437683   9.1701164  52.9819603 180.2213593   7.1636753
  52.1761208 180.1948395   6.4301767  53.1843109 181.7495117   7.3326640
  53.7292671 181.9963226   8.2438259  53.6945190 182.1117706   6.4401689
  52.1785278 182.1600189   7.4219842  54.2990570 179.6079865   6.6212478
  54.0580063 178.6704102   6.1203151  54.7146606 180.2757263   5.8665919
  55.0753555 179.5613556   7.3849840  51.4148445 180.2996674   9.1383648
  50.3615799 180.4034119   8.4917793  51.4977722 180.6521301  10.4124708
  52.3766212 180.4492645  10.8669720  50.5088425 181.4920807  11.1225634
  49.5489159 181.3802338  10.6184511  50.2116890 180.9978485  12.5457325
  51.1036072 181.1573944  13.1516457  49.4278069 181.5888519  13.0193768
  49.8025360 179.5283203  12.6345215  50.4954147 178.9199524  12.0532312
  49.7285194 178.9998474  14.0974760  49.1216507 179.6643829  14.7124681
  49.4211235 177.9557190  14.0390577  50.7325287 178.9386292  14.5173807
  48.4410973 179.2797546  11.9962263  48.3744583 179.5718384  10.9482059
  48.3270569 178.2008514  11.8910828  47.6440620 179.8327637  12.4932432
  50.8659515 182.9428253  11.0431671  52.0505409 183.3356934  11.3651381
  49.8825951 183.7739563  10.6240168  48.5528297 183.4936371  10.0620794
  47.9891701 182.8306122  10.7184210  48.5733871 182.9844666   9.0985327
  47.8119125 184.8051605   9.8185406  47.1667709 185.0902100  10.6495867
  47.1436386 184.6979065   8.9641304  48.9883919 185.7484283   9.6871138
  48.6371231 186.7039337  10.0766220  49.3321419 185.7206116   8.6531115
  50.1276894 185.2098846  10.5406513  51.0633469 185.4043274  10.0163965
  50.2247887 185.7777863  11.9631290  49.9057922 185.0364380  12.9227228
  50.5674286 187.0739594  12.1143932  50.8413315 187.5733032  11.2802896
  50.7717018 187.8015289  13.3933020  51.6206818 187.2872314  13.8436737
  51.1298447 189.2846527  13.0579128  52.0061378 189.3454742  12.4125366
  50.3737030 189.7996521  12.4653492  51.3679695 190.0956726  14.1961918
  50.7183151 190.8022614  14.1790981  49.5516701 187.7031708  14.2789049
  48.4532547 187.8906555  13.7523851  49.6543236 187.4802399  15.5946941
  50.5550232 187.3278656  16.0255451  48.4837303 187.1443634  16.4305172
  48.0083275 186.3240356  15.8927870  48.8967934 186.6066742  17.8067284
  48.1725006 186.6945648  18.6165257  49.3874130 185.1357574  17.8608932
  50.1906128 185.0228577  17.1327286  49.7083664 184.9731750  18.8898067
  48.4723587 184.6232758  17.5640030  49.9706535 187.4721985  18.1815948
  50.2284393 187.3794556  19.1016731  47.5851326 188.3278351  16.6378746
  46.3645935 188.1214447  16.7883358  48.0944252 189.5256653  16.4837399
  49.0977859 189.6006470  16.3957176  47.2659187 190.7671814  16.6292725
  46.4473648 190.6266022  17.3351803  48.1191101 191.8746643  17.1992950
  48.9130592 192.0840607  16.4824238  47.4827271 192.7524567  17.3115597
  48.7286720 191.5775909  18.4997444  49.0958366 190.5519104  18.4643612
  49.5705872 192.2512970  18.6591682  47.5995712 191.6198578  19.9281063
  47.7081184 189.9214325  20.4736156  48.6589622 189.7433929  20.9759159
  46.8636436 189.6714325  21.1158543  47.6104164 189.2193146  19.6456108
  46.6214027 191.1259766  15.3193188  45.9001274 192.1194458  15.2781973
  46.9324341 190.4395447  14.1641169  47.4412460 189.5671692  14.1771355
  46.5376472 191.0138245  12.7979021  46.9219322 192.0310059  12.7218838
  47.3040543 190.2537079  11.7156382  47.0811920 190.7167053  10.7543545
  48.3695068 190.4305878  11.8626833  47.0214767 188.8563843  11.5163517
  47.8011742 188.3592682  11.7743187  45.0351334 191.0434265  12.4478617
  44.5691223 191.9854889  11.7484217  44.2694550 190.0994263  13.0366859
  44.7065392 189.3746185  13.5877905  42.7943954 189.9959259  12.9282007
  42.5280609 190.2466583  11.9014072  42.3193550 188.5615387  13.1926823
  42.4079018 188.5596466  14.2790804  41.2708588 188.4480743  12.9172230
  42.9317322 187.7601929  12.7792330  42.0621910 191.0920410  13.7516880
  40.8830833 191.2299500  13.8108702  42.8680115 191.8937073  14.5129251
  43.8679199 191.7975922  14.4078465  42.4132767 192.7885742  15.6257648
  41.3298683 192.6856842  15.5645771  42.8191986 192.1710968  16.9902477
  43.2588921 191.2037201  16.7474270  43.8192978 192.9563904  17.7921314
  43.4509659 193.9519348  18.0397377  44.0367088 192.4291077  18.7210064
  44.7677231 193.0431519  17.2619801  41.6260605 191.8121490  17.8162899
  41.1016960 190.9715424  17.3618355  41.9700851 191.5593719  18.8192139
  40.9253197 192.6449738  17.8752403  42.7776299 194.3010712  15.5308180
  41.9464035 195.1437073  15.8875351  43.9428520 194.6382446  15.0106268
  44.5547638 193.8553467  14.8297005  44.5466118 195.9785919  14.8507280
  44.2932434 196.6005554  15.7092505  46.1459541 195.8385162  14.9531469
  46.5809250 196.8157806  15.1625156  46.3818665 195.1932373  15.7993526
  46.8064156 195.1153107  13.6879492  46.3963127 194.1063385  13.6444597
  46.5021210 195.5223846  12.7236900  48.3442955 195.1149902  13.7380095
  48.9312057 195.5595856  14.6591883  49.0214157 194.6018677  12.7114019
  50.0277977 194.6692200  12.7639151  48.5587273 194.1795654  11.9191427
  44.1405869 196.8139648  13.6858950  44.9023743 197.5762024  13.1611662
  42.8560982 196.6563416  13.2428675  42.3219833 195.9440918  13.7198515
  42.1181564 197.3640900  12.1412601  42.7966232 197.4272766  11.2905016
  40.8369865 196.5872803  11.8067951  40.3067551 196.2307281  12.6898766
  40.1634865 197.2718658  11.2911959  41.1716194 195.3801880  10.9241028
  41.9099350 195.7231293  10.1992683  41.7770615 194.2035370  11.6430902
  41.4115829 194.1327057  12.6675453  41.5197258 193.2306366  11.2243586
  42.8589516 194.3167572  11.7123375  39.8988647 194.8904266  10.2043343
  39.4503212 195.6962738   9.6233721  40.0407562 194.0287476   9.5520439
  39.1716499 194.6047211  10.9643669  41.8084946 198.8101959  12.5034714
  40.6548309 199.2764740  12.6315594  42.8547592 199.5541687  12.7583551
  43.7555733 199.1280060  12.5939684  42.8488045 200.9321136  13.2384958
  41.9977264 201.4879761  12.8450766  42.6905518 200.9515839  14.7918997
  42.9110336 201.9644775  15.1288328  41.6458435 200.8176270  15.0725203
  43.5233612 199.9232635  15.6287260  43.1382599 198.9083557  15.5299101
  44.5699120 199.9511871  15.3253298  43.6053047 200.0318756  17.1402435
  44.3185768 199.3560944  17.7821598  42.8766937 200.9780884  17.6972828
  42.7093391 200.9300537  18.6921616  42.3480949 201.6533813  17.1637287
  44.1686249 201.6388397  12.8344660  45.1771393 200.9537354  12.6684389
  44.2117958 202.9448242  12.7442741  43.3520660 203.4604034  12.8673229
  45.3546944 203.6882019  12.2760191  45.4783020 203.4841614  11.2124510
  45.0009575 205.2061310  12.2349997  45.8550873 205.8009949  11.9114199
  44.1850281 205.3892670  11.5358391  44.6010399 205.5795593  13.6128263
  44.1486092 206.4228516  13.5368376  46.6922073 203.4906769  13.0672407
  47.7846642 203.8438110  12.5588636  46.6444511 202.8616943  14.2443810
  45.7424316 202.6396484  14.6408100  47.8510323 202.4055023  15.0094490
  48.5616684 203.2311401  15.0471811  47.3975677 202.0489807  16.4680557
  46.4778061 201.4656372  16.4251614  48.0913124 201.3441467  16.9263554
  47.2610283 203.2048340  17.4410629  48.2361565 203.6650848  17.6004353
  46.1461716 204.2448120  17.1779003  45.1916199 203.7366333  17.0412025
  46.0779495 204.9867096  17.9735222  46.3974991 204.7618103  16.2518082
  46.7946167 202.4720612  18.7439537  47.4478836 201.6120148  18.8911324
  46.8436966 203.0993958  19.6339741  45.7727394 202.1423950  18.5563736
  48.6429596 201.2372284  14.3343687  49.7996712 200.9510803  14.7514381
  48.1732750 200.5711365  13.2461309  47.2575569 200.8473816  12.9217005
  48.7432060 199.2533112  12.8116322  48.7186661 198.5805664  13.6688957
  47.8054390 198.6381989  11.7088776  48.1775169 197.6493988  11.4406404
  46.8047028 198.4825439  12.1118660  47.6441994 199.5089264  10.5980377
  46.7327652 199.7955780  10.5046492  50.2007065 199.2911377  12.2589397
  51.0508575 198.4378815  12.4343376  50.5164948 200.4749603  11.6833582
  49.7262268 201.0777740  11.5039377  51.7676086 200.9138641  11.0046196
  52.1443138 200.0572357  10.4456940  51.4286728 201.9875793   9.9893055
  52.2813950 202.0826263   9.3170509  50.6547966 201.5148926   9.3845072
  51.0642815 203.3343964  10.5601578  50.2476120 203.1653595  11.2619953
  51.9120979 203.7017365  11.1384068  50.6925087 204.4486694   9.5869751
  51.5062027 204.9966888   9.1119204  50.0888748 203.9318695   8.8408842
  49.8139763 205.4679871  10.1688662  48.8515968 205.4534149   9.8627424
  50.1427994 206.5250092  10.9097977  51.3622971 206.7401733  11.2361193
  52.1430435 206.2563629  10.8160343  51.4613609 207.3687592  12.0204458
  49.2878647 207.4048615  11.3687553  48.2962723 207.2548370  11.2489910
  49.6526451 208.1981201  11.8764687  52.9319382 201.3197937  11.9379416
  53.9051895 201.9310913  11.4703999  52.8620720 200.9662781  13.2285919
  52.1777916 200.2712708  13.4909363  54.0195045 201.1696167  14.1515884
  54.5055313 202.1074371  13.8825588  53.4774857 201.3670502  15.6070280
  53.0253639 200.4241028  15.9145269  54.3653564 201.5193787  16.2206955
  52.4891739 202.5802917  15.8380985  53.0162811 203.5093689  15.6211128
  51.6782150 202.5690765  15.1098671  51.9866638 202.7414093  17.2892246
  51.2181015 203.5133209  17.2493649  51.5904274 201.7835693  17.6263123
  52.9970894 203.1963959  18.3095341  53.4376831 204.0640869  18.0391541
  52.9384613 202.9250031  19.5938721  52.0576859 202.1143494  20.1560783
  51.4847870 201.5611115  19.5349350  51.9341393 202.0113068  21.1531830
  53.6832542 203.6113434  20.4520206  54.4528236 204.1682739  20.1089478
  53.5292587 203.4865265  21.4423752  55.1403389 200.0827637  13.9984560
  55.2348175 199.1604767  14.7979488  55.8945312 200.2071381  12.8775873
  55.7172050 201.0034027  12.2820845  56.8130226 199.2289581  12.2792978
  56.3575554 198.2428284  12.3699217  56.8301048 199.4809723  10.7422218
  55.9359055 199.9466553  10.3279171  57.7027969 200.0938263  10.5165415
  56.9746475 198.2107697   9.9152861  58.0025787 197.7958374   9.0797558
  57.6851234 196.6012726   8.6419277  58.1793365 196.0567017   7.8509798
  56.4891357 196.2503052   9.1014929  56.0286217 195.3677521   8.9307728
  56.0297203 197.2329559   9.9213457  55.0463409 197.2001648  10.3666430
  58.1380272 199.0552368  12.9293356  58.6447906 199.8824768  13.6901627
  58.8182640 197.9362946  12.6067944  58.4473572 197.3434601  11.8780537
  60.0084114 197.3943176  13.2765789  59.8475266 197.6219635  14.3303299
  60.0532608 195.8537292  13.1745358  61.0635719 195.6125793  13.5050230
  58.9669762 195.1291199  13.9901247  58.0454216 195.1032562  13.4085960
  59.3491745 194.1167755  14.1212492  58.8711891 195.5928650  14.9718866
  59.9553261 195.3970795  11.7125711  58.9501839 195.5792847  11.3323250
  60.6502075 196.0328217  11.1638708  60.5235901 193.9587860  11.5022058
  59.8381653 193.2347107  11.9426851  60.6450157 193.9454498  10.4190712
  61.5084343 193.8813171  11.9628334  61.3582993 198.1045532  12.9925547
  61.4549255 198.8675995  12.0168686  62.5038528 197.9464111  13.6642599
  63.1775627 198.6438599  13.3817930  63.0893211 196.8371735  14.4940090
  64.0716476 197.1887360  14.8094969  62.3124847 196.7156525  15.7923403
  61.3766441 196.1702423  15.6705904  62.9370422 196.0282440  16.3628635
  62.0735016 198.0172272  16.5817337  63.0826302 198.9284210  16.8299484
  64.1021423 198.6931305  16.5622959  62.9077377 200.1209412  17.5439854
  63.6702080 200.8267212  17.8387833  61.5984268 200.3740082  18.0609837
  61.4328308 201.2467957  18.6751556  60.5247383 199.4912872  17.8348904
  59.5333214 199.7022247  18.2077255  60.7455673 198.2747955  17.0974064
  59.8634262 197.6767120  16.9226856  63.5400734 195.5298004  13.6806316
  63.8015022 195.5927887  12.4749479  63.7994118 194.4190063  14.4251366
  62.8185081 193.7135010  15.2043962  61.8080215 193.9629059  14.8806505
  62.9452858 193.8647461  16.2763824  63.0135155 192.2118378  14.9130974
  62.5696602 191.9967957  13.9410658  62.6384392 191.6116943  15.7420940
  64.5213242 192.0564880  14.7763767  64.7606430 191.3409424  13.9897184
  65.0154877 191.6781769  15.6712446  64.9578018 193.4641418  14.3069658
  65.6801300 193.8068085  15.0478554  65.6075668 193.4083557  12.9475813
  64.8903732 193.0149231  11.9802179  66.8876648 193.6698761  12.8036604
  67.1810608 193.6067200  11.8392763  67.8837662 194.2188110  13.8120070
  68.8006287 194.4733582  13.2803354  68.2743454 193.1126556  14.8237562
  69.0286560 193.5164337  15.4990921  67.4159546 192.8320618  15.4341097
  68.6628876 191.9047394  14.2311678  69.6038513 191.8623810  14.0457058
  67.4780350 195.5129700  14.5924473  66.3730392 196.0375671  14.4902620
  68.4340897 196.0955811  15.3609486  69.3336868 195.6440125  15.4441013
  68.0739594 197.0986481  16.3971634  67.3419418 197.7806244  15.9645681
  67.3123779 196.3999481  17.5630169  66.6827393 195.7302551  16.9772148
  68.0184250 195.7602997  18.0925922  66.4686661 197.1875916  18.4058685
  67.0218887 197.5337372  19.1099472  69.1702499 198.0723419  16.9463100
  69.1569824 198.3848114  18.1265602  70.2813416 198.4157715  16.2659760
  70.7534637 199.1779785  16.7310047  70.9426880 198.0188751  15.0411062
  71.8632812 198.6013794  15.0052595  70.0177612 198.4471588  13.8863678
  69.0231476 198.0179138  14.0071507  69.8914795 199.5249786  13.9886646
  70.4584656 198.1500702  12.3820143  70.1971588 197.1121368  12.1758051
  69.7685776 198.7703094  11.8097744  72.0051193 198.3979340  12.0476370
  72.5844727 198.3618317  12.9702158  72.4336395 197.5950317  11.4477758
  72.3375702 199.7355499  11.3255930  71.8120041 200.5011444  11.8963327
  73.4109955 199.9237976  11.3050318  71.8798676 199.6615295   9.9076891
  70.8783035 199.5425873   9.8545017  72.1454926 200.4827881   9.3832283
  72.3226089 198.8802032   9.4454899  71.5058212 196.6113281  15.0414619
  71.2786255 195.9009247  14.0675125  72.2241974 196.2021790  16.0929012
  72.0276794 196.3537140  17.5189686  70.9919281 196.1596832  17.7976761
  72.3133926 197.4008026  17.6192894  72.9414902 195.3137512  18.2607956
  72.2882996 194.7724915  18.9452496  73.7757187 195.9115601  18.6279202
  73.3868179 194.4319763  17.1634560  74.3838272 194.0229034  17.3269386
  72.6789856 193.6090698  17.0639648  73.3023834 195.2423553  15.8562965
  73.0913391 194.5264282  15.0619221  74.6537247 195.9675446  15.6002607
  75.6410217 195.2613831  15.3638363  74.7201233 197.2494812  15.9631166
  73.8726425 197.7427368  16.2051411  75.9827728 197.9635925  16.0738468
  76.6165466 197.8006897  15.2021313  75.6675568 199.4384613  15.9716005
  75.1558151 199.5922089  15.0215569  75.0230179 199.8268433  16.7601585
  76.8615265 200.3974609  16.0164738  77.3692245 200.2075043  16.9621277
  77.5076981 200.1811066  15.1657314  76.4422760 201.8660126  16.0336361
  75.8632584 202.0487213  16.9388752  77.3665237 202.4407806  16.0929298
  75.7264557 202.2288208  14.7171230  76.1941910 201.6451111  13.9242725
  74.7049866 201.8909760  14.8919477  75.8941193 203.7025452  14.4279194
  76.8891144 203.8657990  14.3692570  75.4451828 204.0472260  13.5914106
  75.5299072 204.2366333  15.2039347  76.8177719 197.6207581  17.3252716
  78.0402603 197.6009216  17.1950092  76.2054214 197.3250427  18.4310436
  75.1964722 197.3709259  18.4266987  76.9249268 197.1379395  19.7466354
  77.8097992 197.7743225  19.7581673  76.0715179 197.7541962  20.8890686
  76.7383499 197.8905029  21.7404518  75.5886459 199.1061401  20.5207176
  74.6625366 199.1293640  19.9463596  75.1545258 199.5746918  21.4039536
  76.3579941 199.7545166  20.1014118  74.9352722 196.8951721  21.4821930
  75.2626343 196.2790527  22.3196545  74.0621948 197.4708557  21.7894878
  74.6712570 196.1618347  20.7202129  77.4865341 195.7053223  20.1395683
  78.0633163 195.5463715  21.2694664  77.3815613 194.6873322  19.2379150
  76.9559402 194.8769836  18.3418217  77.6263809 193.2991791  19.5765438
  77.5015488 192.7722473  18.6305733  79.1370239 192.9442444  19.8920479
  79.3457489 193.1361389  20.9445248  79.3774796 191.8872528  19.7778187
  80.1681747 193.6497650  19.0999699  80.9977036 194.5521698  19.6116962
  81.0004196 194.8372192  20.6533966  81.8123398 195.0515900  18.6180859
  82.5595627 195.7214050  18.7325687  81.5615997 194.4119110  17.4280205
  82.1678238 194.5811005  16.1437397  82.9915619 195.2546082  15.9586773
  81.7147675 193.8595123  15.0516644  82.1786575 193.9863434  14.0846462
  80.7211609 192.9269867  15.3561163  80.5101242 192.2534332  14.5386982
  80.1214905 192.7105255  16.6044846  79.3309326 191.9927673  16.7664146
  80.4947968 193.5074463  17.7300892  76.6307755 192.6922913  20.6442928
  75.4722900 193.0989075  20.7014446  77.1069946 191.7697296  21.5006714
  78.1158218 191.7847748  21.5468655  76.3707199 191.1224365  22.5800686
  77.1534042 190.6512146  23.1745949  75.3698883 190.0153656  22.1519775
  74.8509369 189.8052826  23.0872059  74.6054993 190.4467010  21.5056381
  76.0350113 188.7716827  21.4829350  75.2613831 188.0577850  21.2001953
  76.4887161 189.1401978  20.5629044  77.0339050 188.0291595  22.3738194
  77.2188492 188.2427521  23.5596008  77.8716125 187.2257385  21.7546597
  78.7217407 186.9178619  22.2047653  77.7285995 186.9512482  20.7932529
  75.8721237 192.1167755  23.6649094  75.5422745 193.2307739  23.4325333
  76.0001602 191.6317444  24.9035339  76.2726440 190.6665344  25.0226860
  76.3044281 192.3584442  26.1612091  76.1399994 191.5818176  26.9081478
  77.8297272 192.7099915  26.2790298  78.1094360 193.2320251  27.1940956
  78.2203293 191.6990051  26.1630955  78.4356995 193.6069946  25.1800327
  78.6219025 194.7982635  25.4719963  78.7807693 193.1695862  24.0313663
  75.4067154 193.6459961  26.3735313  75.4045334 194.7208862  25.7419090
  74.5688400 193.5013580  27.4073238  74.5437393 192.5835571  27.8281860
  73.7964249 194.5943604  28.0511150  73.0363922 194.0599670  28.6210957
  74.7314224 195.3106995  29.1429348  74.1180725 195.9955139  29.7285385
  75.0926285 194.5204010  29.8010120  76.0051575 196.0669861  28.7466393
  76.6790314 195.8891144  29.5847054  76.4528656 195.6714783  27.8349190
  75.7375488 197.6012115  28.4712944  74.7617798 197.9476013  28.8118725
  76.5022888 198.0666046  29.0931454  75.9714355 198.0427551  27.0511932
  75.3510590 198.7494354  26.6826534  77.0557632 197.8859406  26.3181896
  78.1269913 197.2388153  26.7323265  78.4117432 197.3915100  27.6892509
  78.7098312 196.7413483  26.0743523  77.0587387 198.3218689  25.0727100
  77.8065033 198.0386810  24.4556599  76.2366409 198.6700287  24.6004410
  72.9386063 195.5670013  27.1619511  72.3937302 195.0830536  26.1865330
  72.5441742 196.7779694  27.6909733  72.6768036 196.8969727  28.6851311
  71.5908737 197.7421112  27.1382427  71.4691086 198.5021362  27.9100151
  72.2757721 198.3643951  25.9481125  72.6148987 197.7489929  25.1148262
  71.6596680 199.1037903  25.4364510  73.1829910 198.8948975  26.2372952
  70.0870667 197.4418335  26.9218502  69.1942825 198.1121826  27.2928963
  69.8208313 196.4035797  26.1581707  70.5788956 195.8060913  25.8607674
  68.5383377 196.2555542  25.3920975  68.1287079 197.2414703  25.1723328
  68.8223114 195.6480713  24.0042934  67.8627319 195.4736938  23.5175667
  69.3173599 196.3439331  23.3269558  69.5745621 194.3250732  23.8913116
  69.1108627 193.1252594  24.5070152  68.2368240 193.1677094  25.1400032
  69.7706985 191.8999634  24.2254295  69.4446106 190.9927521  24.7123108
  70.8565292 191.8550415  23.2917328  71.3898163 190.9370422  23.0934925
  71.3776474 193.0972595  22.7621803  72.2425995 193.0933075  22.1154594
  70.6747208 194.3162689  23.0145130  71.0622406 195.1838989  22.5012207
  67.3565674 195.5362549  26.0523376  66.2900162 195.3301392  25.4936657
  67.5148697 195.1709595  27.3683491  68.4449768 195.3793335  27.7023888
  66.5277252 194.4276123  28.2229195  66.1530151 193.5923309  27.6313019
  67.0027084 194.0398865  29.6421585  66.6841507 194.7487640  30.4064236
  66.5461731 193.0617676  29.7936897  68.5377350 193.9535675  29.7787495
  68.7438889 193.0971985  30.4208050  68.9576111 193.7036285  28.8044090
  69.1939392 195.1745300  30.4133720  70.2573700 194.9591217  30.5173721
  69.0163879 196.0340576  29.7670116  68.7578125 195.4548340  31.7782326
  68.1883774 194.7796173  32.2680664  68.9336548 196.6048737  32.4317398
  69.4183884 197.6853943  31.9204445  69.6814957 197.7199860  30.9459286
  69.3075027 198.5836945  32.3686409  68.4444580 196.8028564  33.6099701
  68.0747604 196.0782776  34.2086487  68.1512222 197.7073822  33.9504433
  65.2674103 195.3673706  28.3150654  64.1320343 194.8651276  28.2816086
  65.4730225 196.7290497  28.3170147  66.3968964 197.1225739  28.4251957
  64.3530579 197.6013947  28.2497673  63.5632553 197.3354950  28.9523430
  64.7939301 199.0194244  28.5925484  65.5595245 199.4120941  27.9233875
  63.9155121 199.6642456  28.6188831  65.3470917 199.1329193  30.0164318
  64.7432556 198.5081787  30.6745987  66.3134766 198.6467743  30.1500816
  65.3329620 200.5535278  30.5354919  65.5680466 201.5383606  29.8322849
  65.1436691 200.7357483  31.8199730  65.1336594 201.6698761  32.2039375
  65.1311264 200.0121918  32.5245323  63.7387924 197.5709381  26.8416309
  62.5580215 197.3836365  26.7498379  64.4600220 197.6230164  25.6745510
  65.3536072 198.0913544  25.6270485  63.8273163 197.5132141  24.3839073
  63.1377640 198.3479614  24.2581406  64.8590851 197.6031036  23.2503242
  65.3918076 198.5501709  23.3360691  65.5892410 196.7972870  23.3254051
  64.1580658 197.5457916  21.9177971  63.5404510 198.5447693  21.2769547
  63.4592056 199.5662689  21.6180573  63.0338135 198.0547791  20.1076660
  62.6906891 198.6557465  19.3719997  63.0734406 196.6775818  20.0795460
  62.5165100 195.7374115  19.1820679  61.8855171 196.0511322  18.3636398
  62.8684120 194.3671722  19.2116413  62.4454079 193.6564636  18.5171127
  63.8054695 193.9530792  20.2292786  64.0713425 192.9115753  20.3341923
  64.3548431 194.9568024  21.1237087  65.1766205 194.6376190  21.7475662
  63.9059906 196.3047791  21.1443748  62.9458504 196.2479553  24.2116966
  61.8647804 196.3932953  23.7102070  63.3623772 195.0726776  24.7445850
  64.2867126 195.0086212  25.1465797  62.5507317 193.8301392  24.6192226
  62.2893753 193.8370209  23.5610409  63.3370247 192.6036224  24.9779282
  64.0738373 192.8868103  25.7295990  62.7060318 191.7744598  25.2979755
  64.1143570 192.0554810  23.8552361  65.4090424 192.3027802  23.6176758
  66.0913773 192.9608459  24.1351509  65.7453690 191.5690765  22.5087585
  66.6916351 191.5779419  22.1557751  64.7011719 190.8922882  21.9216423
  64.4579391 190.0956421  20.7538586  65.1416016 189.9136963  19.9378319
  63.1976471 189.5295258  20.5411587  63.0092888 188.9120026  19.6753635
  62.1547737 189.7460480  21.4225368  61.1913185 189.2847595  21.2632599
  62.3272858 190.6143036  22.5441570  61.5039558 190.8139954  23.2139683
  63.5951767 191.2557526  22.7576561  61.2166290 193.9585724  25.3951263
  60.2631493 193.4131165  24.8199787  61.0892296 194.7897034  26.4560966
  61.9518623 195.2509003  26.7076321  59.7850533 195.2695618  26.9780579
  59.1716919 194.3755035  27.0901031  59.9010429 195.8350830  28.4144592
  60.5473442 196.7121277  28.3796959  58.9230347 196.1553345  28.7736969
  60.4956741 194.8446960  29.3586559  59.8063316 194.0015411  29.4034195
  61.4527130 194.4660950  28.9997101  60.6489182 195.4982300  30.7363663
  61.2125740 196.5791473  30.8928452  60.2305946 194.8372650  31.8334770
  60.5427971 195.2891693  32.6810646  59.8402138 193.9066162  31.7933064
  59.0547409 196.2830505  26.1245880  57.8373413 196.1918488  25.9604683
  59.7637405 197.2839203  25.5504379  60.7277260 197.3522339  25.8439789
  59.2638054 198.3302002  24.6800861  58.4962120 198.8615112  25.2427673
  60.3731499 199.2447205  24.3962116  61.0069466 199.4345551  25.2624512
  61.0109482 198.8491516  23.6057415  59.8343887 200.6170197  24.0500412
  59.0677338 200.5447540  23.2786007  59.3518906 201.0564575  24.9230766
  60.9087715 201.5767822  23.4256325  61.8148994 201.7792511  23.9966316
  61.2854652 201.0309143  22.5606327  60.3838387 203.0034027  23.0071297
  61.2364235 203.5034027  22.5475655  59.5194740 202.9404449  22.3460579
  60.0652695 203.8712921  24.1805248  60.9177513 203.9677887  24.7135029
  59.8877449 204.8473206  23.9908924  59.2829094 203.5260620  24.7179470
  58.6009254 197.7596588  23.4622364  57.5145645 198.1543427  23.0549011
  59.3067627 196.8321686  22.7842674  60.1995544 196.5361023  23.1521950
  58.7187233 196.1524048  21.6263390  58.5313301 196.8624268  20.8208275
  59.8202934 195.2871399  21.0920219  60.6859283 195.8930817  20.8243980
  60.2149811 194.6036377  21.8437824  59.5124512 194.3058624  19.9579964
  59.1344376 194.7605591  18.6414413  59.0278206 195.8132324  18.4248447
  58.8229446 193.8576202  17.5979443  58.5064240 194.2031555  16.6249008
  59.1137657 192.4537659  17.8324871  58.8509865 191.4729919  16.8859768
  58.0780029 191.5480042  16.3216476  59.4418755 192.0072327  19.0983047
  59.4631729 190.9353333  19.2284946  59.5364227 192.8735199  20.1517525
  59.8189049 192.5349426  21.1376343  57.4798088 195.2587891  21.9224701
  56.4214821 195.3963318  21.2904377  57.6004524 194.5427704  23.0313244
  58.4666557 194.5908813  23.5485020  56.4713020 193.8105774  23.5912457
  56.0790977 193.0499878  22.9161263  57.0337067 193.1002655  24.8965626
  57.8072090 192.3988800  24.5837326  57.5085564 193.7743225  25.6094856
  55.9926300 192.4028778  25.7890167  55.3854218 193.1722107  26.2659969
  55.2905045 191.6966095  25.3459473  56.6518440 191.6550140  26.9268112
  57.6299133 190.9339600  26.7863255  55.9914055 191.5881500  28.1061668
  56.4630661 191.2390137  28.9282017  55.2271614 192.2476807  28.1384850
  55.2870865 194.8068695  23.9309692  54.1713524 194.5751648  23.3524761
  55.5556793 195.9667206  24.5821552  56.4828568 196.1916504  24.9135799
  54.5038719 196.9911194  24.7843647  53.7406693 196.3860016  25.2736988
  54.9916077 197.9951477  25.7911606  55.6374207 197.5296936  26.5357265
  55.6452103 198.6574097  25.2234344  53.8517876 198.7665405  26.5395031
  53.2721710 199.3637695  25.8356171  53.2328835 198.0469055  27.0754147
  54.4750938 199.6141205  27.6269131  54.9001312 199.0245667  28.4392395
  55.1954994 200.3162079  27.2071762  53.3474388 200.4196320  28.2392540
  52.9271736 201.1470642  27.5447598  52.4944115 199.8392944  28.5908813
  53.8419266 201.2371368  29.4084110  54.6530266 201.7961273  29.1853542
  53.1084518 201.8718719  29.6899109  54.0863571 200.6771240  30.2126160
  53.9109497 197.6997986  23.5268364  52.6715202 197.8059235  23.3969879
  54.6797638 198.0032654  22.4908295  55.6718254 197.9267120  22.6642056
  54.2917747 198.5313263  21.1363945  53.5673027 199.3308258  21.2914219
  55.5793114 199.1604919  20.4933548  55.8025398 199.9265442  21.2359371
  56.3334999 198.4046173  20.2743874  55.2914734 199.8527222  19.1245308
  54.8241386 199.1490936  18.4356155  54.6886787 200.7351990  19.3389587
  56.6026077 200.3531952  18.4915695  57.3940163 199.6065216  18.5567589
  56.4277344 200.5560303  17.4349842  57.0496674 201.5880585  19.1616650
  56.8221092 201.6021729  20.1455994  57.6246910 202.6456909  18.6226101
  57.8134689 202.7681274  17.3358383  57.5478020 202.0261688  16.7041607
  58.2718811 203.5748444  16.9368744  57.9236794 203.7243958  19.3439941
  57.7260971 203.7845612  20.3326511  58.3892670 204.5160217  18.9236946
  53.5622826 197.5230865  20.2264881  52.5309906 197.8805542  19.6210308
  54.0992508 196.2702789  20.0554657  55.0266190 196.1274109  20.4291954
  53.5264320 195.1878204  19.1817684  53.1642380 195.6144714  18.2464123
  54.6249657 194.1945496  18.8125210  55.3444252 194.7724762  18.2324486
  55.0273743 193.7484436  19.7220039  53.9952507 193.0324707  18.0448799
  53.4164009 192.3312073  18.6459389  53.3571129 193.4477692  17.2648735
  55.0925064 192.2206573  17.2763214  55.5108147 192.8827209  16.5181732
  55.9409142 191.9556427  17.9072514  54.4812813 191.0323944  16.6246109
  55.2233658 190.2662354  16.4000397  53.7352676 190.5862427  17.2822723
  53.7477455 191.4090271  15.3861876  54.3765869 191.7090912  14.6550074
  53.2319717 190.6667786  14.9354649  53.0770035 192.1282959  15.6161222
  52.3324509 194.5781250  19.7348213  51.4035606 194.2405853  19.0164909
  52.2205582 194.3685303  21.0727863  52.9676247 194.7615967  21.6273041
  51.0523262 193.6350708  21.6741600  50.3719025 193.4193420  20.8504028
  51.3876610 192.2178650  22.3530369  51.8625450 192.3573456  23.3241882
  50.4402733 191.7071686  22.5254955  52.2564201 191.3977203  21.4666691
  51.7400703 190.4978333  20.4696083  50.6670914 190.4690399  20.3500519
  52.5978508 189.6464233  19.8052254  52.1870842 188.9166718  19.1232014
  53.9619637 189.7047272  20.0040684  54.5955620 189.0694885  19.4028873
  54.4999733 190.5334015  21.0118523  55.5564651 190.7528687  21.0572777
  53.6468964 191.4034729  21.6754303  54.0998535 192.1233063  22.3410702
  50.3015785 194.5786591  22.5971832  49.3562469 194.1294098  23.2860584
  50.4931107 195.9065552  22.4740334  51.2674561 196.2184906  21.9055347
  49.5207291 196.9137878  22.9133453  49.6694756 197.0949097  23.9778500
  49.7514191 198.2435608  22.1073112  50.8026733 198.5173035  22.0177059
  49.4808731 198.0580597  21.0678387  49.0831261 199.4972534  22.4737186
  49.5785980 200.2751465  23.5019684  48.9830208 201.4698029  23.3015137
  49.2613029 202.3812103  23.8097382  48.0447159 201.4157867  22.3489780
  47.4786987 202.1958618  22.0469818  48.1114426 200.1540680  21.7700100
  47.7085686 199.8333435  20.8206806  48.0537224 196.6702576  22.5717525
  47.1632957 197.0790253  23.3076992  47.7042160 196.0278168  21.4386616
  48.5122871 195.6646729  20.9536438  46.3459854 195.7870789  20.9961681
  45.7585297 196.6694946  21.2498169  46.2886238 195.6516266  19.4411373
  46.8346672 194.7485504  19.1684341  45.2503510 195.5281525  19.1331730
  46.9895058 197.1298065  18.6511574  45.9675865 197.9681854  18.4569664
  45.6333961 194.6268921  21.6953373  44.4747963 194.3398743  21.4192314
  46.2793312 193.9855652  22.6292248  47.2108650 194.3313446  22.8102970
  45.8075409 192.9293213  23.5467186  45.4529457 192.0883026  22.9508591
  46.9890862 192.4289398  24.4042244  47.2037964 193.1757965  25.1685505
  46.7535324 191.5009766  24.9252777  47.7829132 192.0840454  23.7416573
  44.6131630 193.4824677  24.3536358  43.7661629 192.6854248  24.7501717
  44.5524178 194.7369080  24.6040306  45.0423279 195.4132233  24.0359859
  43.3804741 195.3625183  25.3172684  43.3509941 195.0277863  26.3541851
  43.7254753 196.8751526  25.3372440  42.9528885 197.4094543  25.8901749
  44.5659256 197.0869293  25.9982300  43.9272003 197.3779449  24.0486012
  43.9578552 198.3217316  24.2215576  42.0505486 195.1425476  24.6865749
  41.0641327 195.1778107  25.4496536  41.9359169 194.9329987  23.3656788
  42.8156242 194.7747040  22.8954067  40.7181625 194.6540222  22.6279926
  39.8753624 195.1940460  23.0594654  40.9149437 195.0512238  21.1438961
  41.5593376 194.3277740  20.6444340  39.9947128 194.9832306  20.5636768
  41.4925919 196.4936676  20.8434868  42.4972458 196.6136017  21.2489376
  41.6009254 196.6162720  19.3373814  40.5906754 196.5968628  18.9285812
  42.0586510 197.5989990  19.2240906  42.1735497 195.8039551  18.8897858
  40.5848541 197.6303558  21.2972031  40.2762222 197.5031586  22.3348351
  41.1557770 198.5503235  21.1714687  39.6632614 197.6083984  20.7155800
  40.2928734 193.1494904  22.6590500  39.2267075 192.7506714  22.0577240
  41.0339622 192.2021179  23.2454453  41.9319229 192.5049744  23.5947990
  40.5425987 190.9041138  23.6226521  39.4783173 190.7980499  23.4125175
  41.3472176 189.8162384  22.8055325  41.0183945 188.8526154  23.1946754
  41.1561356 189.7003021  21.3314133  41.4970169 190.6583710  20.9389744
  41.7198448 188.8317108  20.9909706  40.1244583 189.5342255  21.0212917
  42.7015343 189.9706573  23.0805836  43.1455078 189.2624054  22.6084900
  40.6618004 190.6832886  25.1507339  40.7963676 191.6118469  25.9667549
  40.4700394 189.3887482  25.5519600  40.2359619 188.6715240  24.8804760
  40.3227158 189.0338745  26.9678726  39.8172150 189.8042908  27.5501366
  39.2837334 187.9016266  27.0492439  39.1477623 187.7610016  28.1215496
  38.3137360 188.1255951  26.6053467  39.8493958 186.7611389  26.4308796
  39.2051697 186.0514526  26.4849110  41.5812225 188.6677704  27.7374802
  41.4984436 188.4563293  28.9398880  42.7286110 188.6856079  27.0613537
  42.6493721 188.9085693  26.0794621  44.1049538 188.4241180  27.6121025
  44.0122108 188.1365509  28.6593838  44.7613487 187.1349945  26.9365654
  45.2469292 187.3280640  25.9799900  45.6482048 186.8162842  27.4842987
  43.9003754 185.9181519  26.7361813  43.3800697 185.4723816  25.5818977
  43.5014458 185.9864197  24.6398640  42.7014542 184.2511749  25.7453556
  42.2595177 183.7367859  24.9968967  42.8290825 183.8584290  27.0562820
  42.4935532 182.6620789  27.6689186  41.8787537 181.9167480  27.1863232
  42.9746895 182.4590607  28.9702396  42.7038651 181.4718170  29.3143330
  43.7183723 183.4374390  29.7012730  43.9296989 183.2729645  30.7475471
  43.9046135 184.6802521  29.1014385  44.3849487 185.5082855  29.6014938
  43.5776329 184.8768158  27.7469597  45.1410904 189.5843353  27.5767670
  45.1407242 190.4741211  26.7159367  46.0362053 189.5674438  28.6112213
  46.1806412 188.5818939  29.6799755  46.3551102 187.5921936  29.2578697
  45.3071938 188.6718750  30.3257999  47.4134674 188.9427338  30.4331703
  48.2173004 188.4067688  29.9284992  47.4105988 188.7128296  31.4986458
  47.5470390 190.4204254  30.1868935  48.5409584 190.8237457  30.3806896
  46.8250961 190.9343262  30.8215694  47.0228004 190.5668030  28.7587490
  46.4695778 191.5016327  28.6684685  48.1901779 190.4508820  27.7110634
  48.3934708 189.4536591  27.0644035  49.0799561 191.4968414  27.6256924
  48.7545815 192.8450012  28.1827030  49.0387878 192.7980347  29.2339516
  47.7050858 193.0710907  27.9941483  49.6136742 193.7828979  27.4433861
  49.8700638 194.6283417  28.0818233  49.1211014 194.1138611  26.5290871
  50.8205338 193.0012665  27.0364380  51.4859886 192.9059448  27.8944511
  51.3266373 193.5211639  26.2230091  50.1872711 191.6315918  26.6644878
  49.8125725 191.6842499  25.6422710  51.2314034 190.4699402  26.7746811
  51.6532707 190.0258484  25.7049694  51.6435471 189.9602661  27.9181271
  51.1486778 190.3604431  28.7023945  52.6599655 188.8612213  28.0911217
  53.5851555 189.1819611  27.6123047  52.9922829 188.7690125  29.5774879
  53.7773972 188.0147705  29.6305542  53.5399017 189.6783142  29.8252754
  51.9132118 188.5066986  30.6751366  51.3036728 189.4004517  31.4978962
  51.4938698 190.4635620  31.5013199  50.3134003 188.7646484  32.2094460
  49.7302971 189.3092651  32.8287048  50.1978722 187.4459991  31.9142742
  49.4337120 186.3682404  32.3876457  48.5988197 186.5941010  33.0344391
  49.5550385 185.0630493  31.9286251  48.9349251 184.2265015  32.2150650
  50.6182976 184.8704681  31.0204315  50.7164688 183.9178925  30.5210400
  51.5177803 185.8477478  30.6148491  52.2606926 185.6193542  29.8649712
  51.2737999 187.1903687  31.0212936  52.2712669 187.5092468  27.4979343
  53.1745758 186.7178955  27.1930580  50.9819794 187.2514191  27.2902489
  50.3595276 188.0048523  27.5451851  50.5042419 185.9894257  26.7933369
  50.9305229 185.2477875  27.4688835  48.9889259 185.8973541  26.8960056
  48.6946030 186.0279388  27.9373608  48.5641365 186.7046661  26.2994175
  48.4421082 184.5272369  26.3667774  48.8619728 184.3403015  25.3784103
  48.5973511 183.3587799  27.3224335  48.0562630 183.5400085  28.2511330
  48.1458778 182.4546661  26.9139671  49.6480141 183.2634125  27.5965137
  46.9319000 184.5325165  26.0372047  46.6711655 185.2814941  25.2894344
  46.5829353 183.5950775  25.6041527  46.3882561 184.6869812  26.9692402
  51.0937386 185.7214050  25.4056473  51.7240295 184.7232666  25.1759224
  50.9093285 186.6478424  24.4645844  50.4720345 187.5127563  24.7488079
  51.2876320 186.5800476  23.0428886  50.8151894 185.7120361  22.5830536
  50.5803032 187.7329407  22.3249187  51.0430298 188.6719360  22.6286812
  50.7697487 187.6084137  21.2587566  49.0452461 187.8195038  22.5249062
  48.1575890 187.0362091  21.6834049  48.6348343 186.4572144  20.9066105
  46.7527695 186.9398346  21.9470463  46.1345634 186.3584442  21.2790508
  46.2679253 187.7430725  22.9669285  44.9288750 187.6408691  23.2433987
  44.3961143 187.4876556  22.4596291  47.1195793 188.5581512  23.7865181
  46.7542000 189.1084137  24.6409817  48.4697990 188.6031952  23.5329494
  49.0653610 189.3259277  24.0708694  52.7701454 186.6071014  22.8487511
  53.2791519 186.1345367  21.8485394  53.6057205 187.0294037  23.8450947
  53.1329575 187.5879669  24.5412273  55.0813828 186.8246918  23.8187103
  55.3794289 187.3054047  22.8869457  55.8044205 187.5350952  24.9142914
  55.7098122 186.9814606  25.8484364  56.8388672 187.5882874  24.5748863
  55.3066368 188.8506012  25.1698093  55.5534668 189.3205566  25.9696999
  55.3970032 185.3332062  23.8040752  56.3272171 184.9662018  23.0598354
  54.6258621 184.5279694  24.5435390  53.8728790 184.9385376  25.0769691
  54.7424660 183.0694580  24.5901680  55.7986908 182.8076782  24.6531448
  54.0917015 182.5648804  25.9197254  53.0196953 182.4184570  25.7875748
  54.3945160 181.5257263  26.0484257  54.4400139 183.3282776  27.2169476
  53.9939995 184.3202820  27.1453857  53.8307381 182.6304474  28.4213943
  54.2219315 181.6293335  28.6025715  53.9013596 183.2796631  29.2941132
  52.7996368 182.4351501  28.1267967  55.9385147 183.5245361  27.4727077
  56.2913246 184.1806641  26.6770191  56.1834297 184.0427704  28.3998299
  56.4955482 182.6083069  27.2769299  54.0260582 182.3974915  23.4118328
  53.8193474 181.2039337  23.4801350  53.6289635 183.1137238  22.3605804
  53.7617645 184.1122894  22.4335690  53.1390648 182.5753479  21.1273155
  53.5448303 181.5691528  21.0222797  51.6267052 182.3181000  21.1829395
  51.0069618 183.1559601  21.5023270  51.3093872 182.0993958  20.1633434
  51.1884308 181.1676178  22.0184917  50.7133522 181.4639893  23.3156509
  50.8528061 182.4677277  23.6891060  50.1007118 180.4784851  24.0153351
  49.6611824 180.6751709  24.9820461  49.9052010 179.1385345  23.4586220
  49.1598549 178.1915131  24.1147499  48.9198570 178.4500885  25.0075798
  50.4141045 178.8484955  22.1802807  50.1823959 177.8943024  21.7305717
  51.0622330 179.8854523  21.4430943  51.3584099 179.6183167  20.4394398
  53.6684189 183.2801208  19.8483448  53.3227272 182.8781586  18.7167530
  54.5979156 184.2454681  20.0143223  54.6767082 184.5608521  20.9705791
  55.2863235 185.0483246  19.0151253  54.6055527 185.3394928  18.2152023
  55.6354027 186.3524628  19.7080841  54.7493057 186.9790802  19.8095150
  56.0516815 186.1099548  20.6858387  56.5758247 187.2475739  18.9413414
  56.4499245 187.3904419  17.7061405  57.4189682 187.9018860  19.6087570
  56.5015907 184.3482056  18.3788853  57.4293976 183.9574585  19.0763054
  56.5582504 184.2338562  17.0553513  55.7810173 184.5358276  16.4854240
  57.7176476 183.5928192  16.3666744  57.8703346 182.5597839  16.6791306
  57.3731918 183.5709686  14.8859053  57.1808662 184.5486145  14.4439735
  58.1149254 183.0899658  14.2482767  56.5121002 182.9439240  14.6547232
  59.0575371 184.2713470  16.6455917  60.0443535 183.5439453  16.7413445
  59.1235580 185.6473236  16.6475391  58.2044563 186.0614624  16.5855904
  60.3470116 186.4166260  16.9345684  61.1696091 186.1070557  16.2899055
  60.1325760 187.9497070  16.5986214  59.3773270 188.3624573  17.2674599
  61.0413666 188.4877625  16.8682423  59.7390900 188.2916870  15.1394405
  58.7758980 187.7985382  15.0083923  59.5856895 189.3660278  15.0376177
  60.8258896 187.8134003  14.0840788  62.0729408 187.9201660  14.1876144
  60.3242607 187.3917847  13.0304394  60.8746300 186.2817841  18.3690834
  62.0553970 186.1006470  18.6820717  59.9499969 186.2476959  19.3616924
  59.0430412 186.6567688  19.1879311  60.3560715 185.9978027  20.7807789
  61.2761879 186.5491333  20.9744968  59.1841545 186.4549866  21.6987114
  58.1982040 186.0414124  21.4866714  59.4767189 186.2654572  23.2099419
  60.4417915 186.7544098  23.3428249  58.7730064 186.8229828  23.8280544
  59.5209160 185.2278900  23.5410175  59.0369568 187.8586121  21.5723667
  58.4705467 187.9848480  20.8076134  60.7636528 184.5391846  20.9620018
  61.8487740 184.3092194  21.4309978  59.8896751 183.6534882  20.5237465
  59.0621109 183.9449768  20.0234756  60.3597412 182.2327881  20.5955467
  60.5419426 182.0259247  21.6501122  59.2670097 181.2926331  20.0980072
  59.0782700 181.7054443  19.1070213  59.6862106 180.2897491  20.0167465
  57.9225006 181.1722412  20.8281460  57.5171967 182.1349792  21.1395359
  56.8402061 180.4244843  20.0141926  57.2428818 179.4881287  19.6279221
  55.9489632 180.2048950  20.6020412  56.5057869 181.0268707  19.1695595
  58.1792336 180.3545532  22.0843372  58.9177551 180.7872467  22.7592106
  57.2731285 180.3013153  22.6878624  58.5264206 179.3310852  21.9426632
  61.6832848 181.8775787  19.8936825  62.4002151 180.9579620  20.3466702
  62.0621071 182.5633698  18.8308163  61.5134163 183.3676910  18.5623055
  63.3446388 182.3728790  18.2133560  63.4897728 181.2946014  18.1472168
  63.5005760 183.0285950  16.8757553  62.9690361 183.9788971  16.9257603
  64.5422821 183.2994537  16.7037144  63.1401405 182.2523956  15.6258297
  63.8556519 181.4406433  15.4947081  62.1540222 181.8254547  15.8085518
  63.1487732 183.3192596  14.1683626  64.9163742 183.1730804  13.6933174
  65.4777679 183.2314911  14.6257992  65.0148087 182.2484741  13.1245317
  65.1913452 184.0073090  13.0479031  64.4577713 182.8658600  19.1534519
  65.4715500 182.1502075  19.4447212  64.3830032 184.1466217  19.5106754
  63.6303101 184.7508545  19.2132645  65.3573608 184.7282104  20.4204903
  66.2661667 184.6766510  19.8208942  65.1119995 186.2367401  20.5960102
  64.9492874 186.7962036  19.6748085  64.1627655 186.2297516  21.1317463
  66.1186676 186.9829102  21.5323086  65.6647720 187.9207916  21.8523979
  66.1819687 186.4803162  22.4974461  67.5269241 187.1185455  20.9154987
  67.6297455 187.4098206  19.7232838  68.5298309 186.9912262  21.7184219
  65.5499420 184.0123901  21.7681541  66.7142792 183.8308716  22.1836185
  64.5423813 183.4421082  22.3754044  63.5993805 183.6051636  22.0525188
  64.7613525 182.6013641  23.5985012  65.2331009 183.1633606  24.4045620
  63.3874893 182.2203369  24.2218628  62.8532257 181.6205444  23.4850311
  63.6123924 181.5898438  25.0820942  62.6233101 183.4473572  24.7116261
  63.0755234 183.9752502  25.5512276  62.4393387 184.0764160  23.8406906
  61.1940422 183.0229950  25.2646275  60.5668449 183.8732758  25.5324879
  60.7319412 182.5474701  24.3995075  61.3205338 182.0563965  26.3931885
  62.2177391 181.9233551  26.8375072  60.3445892 181.1694641  26.8016739
  59.0796165 181.2055817  26.3459225  58.8682327 181.9229279  25.6670723
  58.3522530 180.6133728  26.7205276  60.6234207 180.2311096  27.6300488
  61.5172081 180.2560120  28.0997562  59.9391365 179.5727081  27.9740887
  65.6403503 181.3742981  23.3918476  66.4276505 181.0118256  24.2097816
  65.6283569 180.7809448  22.1912289  64.9292526 181.0222473  21.5033817
  66.6246490 179.8043823  21.7454910  66.8528748 179.1476135  22.5849419
  65.9932709 178.9128113  20.6188984  65.5232315 179.4968109  19.8276196
  67.0426941 177.8823547  20.1998806  67.3882751 177.3570404  21.0902328
  66.5598373 177.1114960  19.5992603  67.8203735 178.3939972  19.6328468
  64.7844543 178.1332550  21.1882381  63.9646835 178.8486633  21.2536049
  64.5436172 177.4138794  20.4055500  65.1236649 177.6605225  22.1099510
  68.0381470 180.4613190  21.4323196  69.0393066 179.8197479  21.7777042
  68.1554108 181.7161255  20.8822327  67.3146057 182.2061157  20.6119232
  69.4743729 182.3038635  20.6023750  70.0805588 181.5927429  20.0411701
  69.3478317 183.6225739  19.7770786  68.6750031 184.3616180  20.2120647
  70.3655167 184.0091248  19.7223701  68.8944931 183.3969879  18.3063316
  69.5815430 182.6442108  17.9198170  67.8702316 183.0259247  18.3424377
  68.9152679 184.6563721  17.5419827  68.0700989 185.2842865  17.8239594
  69.7938156 185.2511749  17.7919083  68.7823944 184.5432587  15.9977455
  69.2610931 183.6946411  15.5090837  67.7429962 184.3652802  15.7219419
  69.2862396 185.7752991  15.3318148  70.2119751 186.0158997  15.6561937
  69.4301300 185.6150665  14.3450403  68.8138657 186.6353149  15.5712690
  70.2602921 182.5867310  21.8980026  71.4709167 182.3018341  21.9740963
  69.4423523 182.9135284  22.8964710  68.5133362 183.2571411  22.6990852
  69.9400177 183.0490417  24.3233604  70.8844833 183.5859222  24.2347240
  68.8968735 183.9145660  25.1027679  68.5138245 184.6945038  24.4446888
  68.1077576 183.2593536  25.4716911  69.5340881 184.6058960  26.2771206
  69.8650894 183.8489075  26.9881115  70.3618851 185.2525940  25.9861870
  68.5439377 185.5279694  27.0883846  69.0578384 185.8050995  28.0088215
  68.3897324 186.4583282  26.5417824  67.2785187 184.7905731  27.4045677
  67.3537140 183.7888184  27.5091515  66.0637360 185.2275696  27.5169296
  65.8122787 186.5308075  27.4374561  66.6146622 187.1062622  27.2250347
  64.8569260 186.8552246  27.4840202  65.0834885 184.4266205  27.9001904
  65.3445511 183.5507507  28.3300858  64.2064590 184.8550110  28.1598072
  70.2830200 181.7191620  24.9820938  70.7214737 181.6698456  26.1386948
  69.9787292 180.5443878  24.3297081  69.3847580 180.5980530  23.5145912
  70.7098541 179.2769470  24.6361008  71.0989914 179.3668213  25.6502991
  69.7534714 178.0417328  24.6656818  69.0085449 178.2731018  25.4270306
  69.2242432 177.9814758  23.7146873  70.3446426 176.7113800  25.1370373
  69.5231247 176.0032349  25.0287018  71.1595078 176.3502808  24.5095787
  70.8335724 176.7294922  26.5936966  70.0397720 176.7996368  27.4983196
  72.1233673 176.6094818  26.7587128  72.4983444 176.6583099  27.6952572
  72.7294464 176.4698792  25.9629230  71.9349747 179.0038605  23.7648926
  73.0072937 178.7203827  24.2868309  71.7290573 179.0794525  22.4155369
  70.8586884 179.4521332  22.0638466  72.7701950 178.8122711  21.3704624
  73.0663223 177.7645111  21.4215908  72.1748962 179.0343170  19.9614658
  71.8761368 180.0798645  19.8862095  73.0093079 178.9465942  19.2656460
  70.9629745 178.2008972  19.5125790  70.1461868 178.3094177  20.2261524
  70.5763245 178.8252563  18.1174374  71.3639221 178.6398010  17.3870907
  69.6778183 178.3697662  17.7011299  70.4384155 179.8978119  18.2542629
  71.3313370 176.7008057  19.3828812  71.5815811 176.3197632  20.3729839
  70.4010315 176.1992340  19.1162968  72.0551224 176.5000763  18.5929794
  74.0391769 179.7500458  21.5450706  75.1572342 179.3606873  21.1752281
  73.9436951 180.9287415  22.1359787  73.0285034 181.3412323  22.2472878
  75.0957336 181.8103790  22.4744320  75.7383957 181.8278046  21.5942135
  74.7180328 183.2654419  22.7519436  73.7669754 183.3426056  23.2788544
  75.4471436 183.6528320  23.4635868  74.6421280 184.0901794  21.5412807
  75.7833633 184.5680084  20.8013439  75.3048325 185.3277588  19.7884254
  75.8968735 186.0080261  19.1941795  73.9603119 185.2910919  19.8239956
  73.3760223 185.8740845  19.2419052  73.5069351 184.5170441  20.9125843
  72.4799194 184.4240417  21.2334957  76.0625992 181.2364502  23.5444584
  77.2419662 181.5567780  23.5099411  75.5018768 180.4867859  24.4605389
  74.5166397 180.2812805  24.3759060  76.2191620 179.7734680  25.4772034
  77.1509781 180.2987213  25.6867809  75.3659973 179.5725250  26.7087345
  74.5297546 178.9428558  26.4048996  75.9148865 179.1294861  27.5397148
  74.8236389 180.8919220  27.2473164  75.3479309 181.7340851  26.7956505
  73.8001404 181.0036621  26.8894615  74.8787079 180.9540863  28.8038254
  75.5651932 181.8542328  29.3264275  74.2707367 180.0744781  29.5063839
  76.7309113 178.4190674  24.9542904  77.8349228 178.0340271  25.3280811
  76.0950394 177.7080841  24.0452137  75.2517548 178.0204163  23.5854111
  76.7527161 176.5094910  23.4640999  77.2881165 175.9949341  24.2620201
  75.6712265 175.5336914  22.8747177  75.1157990 176.1380920  22.1575794
  76.2510529 174.7682495  22.3589420  74.7070618 174.8781281  23.8174419
  74.9277802 174.8341675  25.1568336  75.7634430 175.2027588  25.7331963
  73.8352127 174.1518707  25.7671032  73.7940903 173.9330750  26.7522640
  72.8842621 173.8337250  24.8075352  71.6341934 173.2354126  24.8583946
  71.2783279 172.8568878  25.8052254  70.8460922 173.0427399  23.7103500
  69.8243179 172.7007141  23.7838688  71.3573227 173.4097595  22.4313240
  70.8547211 173.2253113  21.4933624  72.6153488 174.0717163  22.4328651
  73.0493851 174.4021149  21.5007439  73.3941727 174.3252258  23.6153145
  77.8450394 176.8103027  22.4095001  78.5484161 175.8865814  21.9896832
  77.9795456 178.0814667  21.9758530  77.5026779 178.7714081  22.5385914
  78.9374466 178.4836273  20.9760399  79.8544540 177.9052582  21.0886612
  78.3104706 178.2118683  19.6276093  78.0315857 177.1581879  19.6360645
  77.4112778 178.8147125  19.5005589  79.3374710 178.4381256  18.5164394
  80.5070648 178.7079468  18.7963753  78.9553070 178.3887634  17.3091106
  79.3309402 179.9285431  21.1453533  78.7186203 180.8399506  20.6370049
  80.3262558 180.1018677  22.0044136  80.5845032 179.3250580  22.5960083
  80.8585358 181.3797607  22.3630142  80.0552216 182.0651245  22.6333294
  81.8475266 181.1795959  23.5208359  82.7564392 180.6266022  23.2837772
  82.1583862 182.1718903  23.8476505  81.3094406 180.4969330  24.7208347
  81.7381058 180.9208984  25.6289101  80.2304840 180.5657196  24.8594818
  81.6659851 178.9926910  24.7598076  81.4760361 178.2971649  23.7536106
  82.2421341 178.5338745  25.7550793  81.5687256 182.2097168  21.2874737
  82.3020782 183.1548767  21.5225353  81.3905411 181.9145050  19.9925251
  80.6361313 181.2596893  19.8435631  81.9593658 182.6329041  18.8787384
  82.2218170 183.6032562  19.3002071  83.1897125 181.9061890  18.4022141
  82.8446426 180.9386139  18.0377827  83.6250381 182.3722839  17.5182667
  84.3088150 181.7257690  19.4041958  84.4467850 180.7055969  20.0746861
  85.2196655 182.6921997  19.4303989  85.9585190 182.6068268  20.1137028
  85.1359940 183.5747375  18.9464302  80.9298782 182.8113556  17.7164860
  81.3275909 183.0675201  16.5801296  79.6567535 182.4395752  17.9850197
  79.5209808 182.1996918  18.9566803  78.5659103 182.4194031  17.0432549
  78.7486191 181.8545380  16.1291084  77.4658737 181.6037598  17.7530899
  77.9869614 180.6956635  18.0563221  77.0607986 182.0798187  18.6460476
  76.3080826 181.1249237  16.8184929  76.7176437 180.7878113  15.8662729
  75.5545502 180.0310516  17.4820385  74.9865112 180.3453064  18.3576374
  74.8319397 179.6820984  16.7443562  76.3156357 179.2916565  17.7313080
  75.2881165 182.2136841  16.5451870  75.8051147 182.9386292  15.9164867
  74.3969193 181.8483124  16.0349121  74.9703217 182.6845856  17.4754333
  78.1679306 183.8725891  16.6576939  77.4333572 184.4529419  17.4466782
  78.6151810 184.4273529  15.5345612  79.4978943 184.0736847  15.1942091
  78.0018921 185.6173706  14.8589096  77.8742447 186.4574890  15.5415506
  79.0447006 186.0043182  13.7229624  79.2807693 185.0941620  13.1716223
  78.6008072 186.6930389  13.0041218  80.3235703 186.6085968  14.3400793
  80.0976944 187.5429535  14.8539400  80.7937775 185.9616089  15.0806360
  81.3616638 186.9882812  13.2657700  82.2762222 187.3704529  13.7192183
  81.6998672 186.0516052  12.8226309  80.9388351 187.9418945  12.1268501
  81.6362381 188.0339966  11.2942352  80.0140762 187.6463318  11.6313047
  80.9069061 189.3069916  12.7176332  81.7819138 189.7056732  13.0267038
  80.4609985 189.9981689  12.1315069  80.3307648 189.3180237  13.5471134
  76.6936798 185.1792145  14.2893744  76.7230682 184.1038513  13.6779814
  75.5778503 185.7916260  14.6815147  75.5979080 186.4962311  15.4048548
  74.1694717 185.3362579  14.3803720  73.9032211 184.5134125  15.0438032
  73.1412811 186.4472046  14.6664848  73.5246506 187.3809052  14.2549782
  72.2342377 186.1927185  14.1182022  72.6828003 186.6345520  16.1802292
  73.5405807 186.2187958  17.0234356  71.4951019 186.9867249  16.4480858
  73.9366226 184.9511108  12.9072151  73.0361099 184.1206207  12.6688986
  74.6785660 185.5592804  11.9395485  75.2992249 186.2696075  12.3005772
  74.7116852 185.3094940  10.4674368  73.7780914 185.6866455  10.0499973
  75.8747711 186.0981445   9.8811340  76.7796173 185.6638794  10.3063021
  75.8802185 185.9996185   8.7956085  76.0302505 187.5880890  10.2586880
  76.1645355 187.7306671  11.3309479  76.9094849 187.9384460   9.7180414
  74.8073273 188.4079437   9.8423090  74.3362274 188.2244415   8.6814470
  74.3237686 189.2959900  10.5942822  74.9317398 183.8444366  10.0079174
  74.7457199 183.4621124   8.8745241  75.4116898 182.9855652  10.9179535
  75.6784744 183.2793579  11.8467216  75.4577789 181.5293427  10.6323156
  75.7007065 181.3743744   9.5810871  76.3731384 180.7954712  11.5895967
  76.4780197 179.7391663  11.3419294  77.3842621 181.1993256  11.5383654
  76.0286484 181.0299988  12.8914213  76.5766296 180.4966125  13.4717855
  74.0493546 180.8940582  10.6842299  73.8823547 179.7666931  10.2102919
  73.0855865 181.4637604  11.3411570  73.2396317 182.4372406  11.5619049
  71.6737289 180.9685516  11.4673347  71.6537781 179.8794708  11.4269867
  71.1084442 181.3013763  12.8215008  71.0911484 182.3912201  12.8252726
  70.0747528 180.9864197  12.9642525  71.9632187 180.7320404  14.0356569
  73.0208359 180.9451447  13.8803358  71.5676880 181.3459167  15.4170246
  70.4987335 181.2237701  15.5917263  72.1847382 180.8727417  16.1808662
  71.8308411 182.4032593  15.4465675  71.7582321 179.2324829  14.1053448
  72.1828613 178.8278961  13.1865883  72.4230728 178.9385071  14.9175539
  70.7173004 178.9436493  14.2507172  70.6547699 181.4633331  10.4100504
  70.9215622 182.4514923   9.7220592  69.5347061 180.7619019  10.1711674
  69.2393646 179.4494171  10.5928860  68.7828827 179.4999695  11.5814047
  70.0949707 178.7760773  10.5413389  68.2480927 178.9981232   9.4746981
  67.5823669 178.2332916   9.8746090  68.8119278 178.7460480   8.5765619
  67.3754501 180.2209778   9.2529745  66.5770035 180.3265381   9.9874430
  66.9683380 180.2086182   8.2419252  68.4701004 181.2853546   9.3789921
  68.8692627 181.5368652   8.3963871  67.8112869 182.5283508  10.0931749
  67.5810547 182.4796906  11.2766962  67.4177551 183.5124512   9.2681665
  67.8930969 183.6292419   8.3847036  66.4787445 184.5453644   9.7142315
  66.7838821 184.7927704  10.7309818  66.6376801 185.8176727   8.9457979
  65.8670197 186.5401154   9.2146511  67.9649277 186.4168854   9.2815256
  68.8170242 185.9602966   8.7779665  68.0217972 187.4236603   8.8676758
  68.2103119 186.4022369  10.3434467  66.5746613 185.5641632   7.5123191
  65.7161789 185.8319092   7.1762714  64.9879303 184.1773071   9.7113495
  64.1539154 184.8630829  10.3260727  64.6445160 183.0204926   9.1228018
  65.3185196 182.4391785   8.6454372  63.2476311 182.6168213   8.9596529
  62.5742836 183.4320221   9.2244949  63.0070801 182.1164246   7.4747624
  63.2531013 182.8758850   6.7326040  63.6669273 181.2655487   7.3053231
  61.5217209 181.8319855   7.2992797  60.6548233 182.6383972   7.4487100
  61.2010651 180.5811310   7.1100297  60.2534866 180.4133606   6.8033624
  61.9495888 179.9318848   6.9143815  62.8758545 181.5985565  10.0784903
  63.6586838 180.6504364  10.2065468  61.7270050 181.7142181  10.8097448
  60.8854599 182.8918915  10.8653736  60.5881500 183.2809143   9.8915310
  61.3145218 183.7444763  11.3917809  59.6594467 182.4432526  11.6964550
  58.8576088 182.1374054  11.0244312  59.3784065 183.3073578  12.2984819
  60.2137985 181.3591919  12.6583548  59.4590225 180.7001648  13.0874147
  60.6707077 181.8477936  13.5189390  61.3874092 180.7957153  11.8874178
  62.2406921 180.7579803  12.5646105  61.1798592 179.2941132  11.5350733
  61.6296921 178.4488831  12.2731037  60.6664429 178.9579773  10.3272552
  60.2853699 179.7186127   9.7829075  60.4444351 177.5615234   9.9027834
  59.8528214 177.1242371  10.7070665  59.7252464 177.5890656   8.5192995
  60.2366219 178.3497314   7.9294019  59.8996849 176.3035126   7.6766028
  59.4920273 175.4610443   8.2353106  59.4605751 176.3058014   6.6789670
  60.9775734 176.1463776   7.6370544  58.1827354 177.8865356   8.6504660
  57.5283585 177.4340668   7.9053750  57.7950516 177.4811707   9.5850658
  57.9547806 179.4405212   8.7154331  58.3914223 179.9165039   7.8374300
  56.8921814 179.6784363   8.6666908  58.4010620 179.8533478   9.6201458
  61.8321762 176.8744812   9.9615526  62.1045189 175.9351654  10.6956625
  62.7941284 177.3824921   9.0855799  62.6075439 178.2327881   8.5734520
  64.1625671 176.8493042   9.0383081  64.0435028 175.8664246   8.5823889
  65.0159988 177.6380768   8.0254955  65.2951889 178.5381470   8.5732374
  65.8705292 177.0089264   7.7764096  64.4038086 178.1099396   6.7082481
  63.2813606 178.6576691   6.6598606  64.9821396 177.8543701   5.6090322
  64.9789810 176.8107605  10.2866592  65.6667175 175.8010254  10.4508190
  64.9382782 177.8223572  11.1820259  64.4095612 178.6404114  10.9149389
  65.5965118 177.9018402  12.5233984  66.6761475 177.7777863  12.4391861
  65.4249039 179.3023071  13.0989828  65.7647095 180.0118256  12.3445168
  64.3668365 179.5563812  13.0354166  66.0041199 179.6843872  14.4618759
  65.3344116 179.1423798  15.5867758  64.4827881 178.4981995  15.4249849
  65.7750778 179.4558868  16.8793755  65.2903290 179.0396271  17.7500820
  66.8923111 180.3162842  17.1149197  67.3197632 180.5539856  18.0778236
  67.5597076 180.7908173  15.9306278  68.4360886 181.3810577  16.1541862
  67.1594696 180.4642944  14.6542091  67.7699356 180.7881775  13.8242512
  65.0074081 176.8434601  13.4391775  65.7679977 175.9640350  13.8997355
  63.6791000 176.8132935  13.5561790  63.0476646 177.4849243  13.1435156
  63.0696259 175.7533417  14.3720932  63.4153061 175.8555450  15.4007635
  61.5976067 175.8917542  14.5552855  61.2811661 175.2084503  15.3433628
  61.2864685 176.9156647  14.7624168  61.0626755 175.6391754  13.3125954
  61.2867737 176.3253632  12.6797171  63.5634384 174.3762817  13.8862324
  63.9688606 173.5548706  14.6823587  63.6596451 174.1514893  12.5338831
  63.1934509 174.8419189  11.9628572  64.1068497 172.9037781  11.9490499
  63.4686165 172.1506195  12.4111214  63.8450508 172.7656097  10.4730978
  64.1074753 173.6234589   9.8539743  64.6270752 172.0888519  10.1288042
  62.5370255 172.2571106   9.9953299  61.9808388 171.0450134  10.4911366
  62.3862190 170.5942993  11.3849669  60.8839493 170.5128021   9.7748146
  60.4165344 169.5881042  10.0795355  60.3288345 171.2148132   8.6694489
  59.2491798 170.7049255   7.9724121  58.9184074 171.2952118   7.2914138
  60.8237762 172.4726105   8.2644806  60.4826660 172.9929962   7.3817282
  61.9710884 172.9284210   8.9020386  62.4786377 173.7885742   8.4909964
  65.5470352 172.6140900  12.2801132  65.7923431 171.4931335  12.7084141
  66.4641266 173.5620728  12.2245026  66.1907578 174.4749908  11.8898935
  67.8548050 173.3736267  12.5800848  68.2395782 172.5462799  11.9837923
  68.6556015 174.6045227  12.1813326  68.4437943 174.7862244  11.1276636
  68.3611908 175.4708252  12.7737379  70.1339188 174.3263245  12.4467192
  70.7126541 175.2474213  12.3777618  70.3029633 173.9105835  13.4400368
  70.8754044 173.4325104  11.4362450  71.8999710 173.3005219  11.7840033
  70.3762360 172.4635468  11.4308472  70.8905487 174.0539093  10.0754213
  70.1561813 173.7498016   9.4522610  71.8772812 174.7531586   9.4878054
  72.8913574 175.2584839  10.1691380  72.9742966 175.1130524  11.1651659
  73.6876221 175.5778961   9.6361847  71.8777542 175.0043945   8.1781063
  71.2431412 174.4822845   7.5909481  72.5732117 175.6279755   7.7939205
  68.0018539 173.0063477  14.0586386  68.6268845 171.9867249  14.3760014
  67.3094330 173.7384796  14.9051323  66.8565979 174.5549164  14.5198107
  67.1845474 173.4637604  16.3136330  68.1810608 173.4189911  16.7530193
  66.4775162 174.6310730  16.9984303  65.4976883 174.8112793  16.5561981
  66.4111862 174.3071442  18.5370388  67.4227142 174.1203918  18.8976440
  65.9313126 175.1777344  18.9841270  65.8153152 173.4131012  18.7206821
  67.2386856 175.9950867  16.9175091  67.4234772 176.2299194  15.8692665
  66.6733093 176.7970123  17.3922501  68.2171173 175.9195709  17.3919163
  66.5373535 172.0863495  16.6478138  66.9671097 171.3738403  17.5479679
  65.5073700 171.6739044  15.8634148  65.0880203 172.4006195  15.3011551
  64.8160248 170.4218445  16.1066952  64.4850693 170.2829895  17.1359100
  63.5603485 170.2988586  15.2752838  63.7880325 170.5032501  14.2291040
  63.0255699 169.3504333  15.3263216  62.8542709 171.0107422  15.7028265
  65.8452682 169.2629089  15.7454491  66.1096802 168.3703613  16.5595589
  66.5310211 169.3485413  14.6300688  66.2236786 170.0753632  13.9996929
  67.5437012 168.3900757  14.1956682  67.0307465 167.4433899  14.0260382
  68.0293350 168.9891052  12.8436213  68.3314590 170.0321350  12.9379292
  68.9076691 168.4254913  12.5290222  67.2380219 168.9308167  12.0962791
  68.6691895 168.2663116  15.2190428  68.9304504 167.1273651  15.6277895
  69.1926804 169.3352051  15.7617340  68.7888184 170.2578430  15.6860857
  70.3788986 169.2817841  16.6168289  71.0075302 168.4149170  16.4131413
  71.3227158 170.4132538  16.3584633  72.3064499 170.1600342  16.7537460
  71.5274048 170.5469971  15.2962437  70.6689835 171.9578705  17.0737247
  71.7096252 172.7501373  16.8011646  70.1922073 169.1512909  18.1221409
  71.1431885 168.9094849  18.8359280  68.9382629 169.2475586  18.6543446
  68.1657791 169.4970093  18.0533886  68.6148224 168.8466644  19.9994564
  69.1937866 169.4662476  20.6843033  67.1518326 169.0296173  20.2792377
  66.5929184 168.8405457  19.3627396  66.8950577 168.3856506  21.1203575
  66.8600616 170.4335175  20.7222996  67.2002716 171.1269989  19.9532509
  65.3522644 170.4756317  20.9226265  65.1556244 169.9275970  21.8440857
  65.1695023 171.5352173  21.1013908  64.8703613 170.0948639  20.0221348
  67.5024567 170.8258057  22.0926380  68.5534897 171.0557251  21.9178028
  67.0063477 171.6597900  22.5890827  67.2891388 170.0056458  22.7781467
  68.9872208 167.3781891  20.3149529  68.4906998 166.5103455  19.5834446
  69.6890335 167.0531006  21.3868637  70.6061172 167.9281158  22.1024570
  70.2134857 168.8591614  22.5112190  71.4244308 168.2444611  21.4556313
  71.0663223 167.1244049  23.3227482  70.3122864 167.1391602  24.1097183
  71.9593735 167.5993805  23.7289124  71.0305557 165.6794128  22.8084354
  70.9814301 165.0171204  23.6727657  71.9577560 165.4234467  22.2957153
  69.8306656 165.7101898  21.8471508  69.9638443 164.9438324  21.0835705
  68.5864410 165.3128662  22.7058010  68.2850800 165.9505768  23.6867752
  67.9194183 164.2084961  22.3306065  68.1597366 163.6412506  21.5302467
  66.7940292 163.5553741  23.0755978  67.1543655 163.4946136  24.1025181
  65.4427872 164.4138031  23.0336304  64.6046600 163.7749023  22.7553310
  65.2276535 165.0803375  24.4380379  66.1484985 165.5612183  24.7680130
  64.4033279 165.7928467  24.4079838  65.0086594 164.3910370  25.2535248
  65.3979721 165.5165558  21.9494362  65.8708649 166.4105225  22.3560143
  65.9355392 165.1304626  21.0833893  63.9926605 166.1071472  21.5304985
  63.5273361 166.6894531  22.3257961  64.0644379 166.6995850  20.6183815
  63.3402634 165.2736816  21.2700939  66.5434341 162.1491394  22.5442371
  67.0820389 161.7978821  21.4621620  65.7043762 161.3150635  23.2604790
  65.3168030 161.5791626  24.1549835  65.2485046 159.9947968  22.7839565
  66.1213913 159.4490356  22.4257298  64.6740646 159.2103729  24.0031338
  64.2529297 158.2707672  23.6455154  65.4807281 158.9812775  24.6994877
  63.5993538 159.9389801  24.7861767  63.9375381 160.8464966  25.5894718
  62.4382858 159.4636536  24.7401695  64.2750473 160.0928345  21.6160469
  63.5636063 161.0905609  21.4123306  64.2175598 159.0023651  20.8398361
  64.7941284 158.2073975  21.0758018  63.4554062 159.0204010  19.5724106
  63.7443810 159.8794708  18.9669437  63.7475395 157.7941742  18.6754093
  63.4563904 156.8747253  19.1832733  63.1353569 157.8144531  17.7737885
  65.1680145 157.7366943  18.1971836  65.6109924 158.7540131  17.6434631
  65.8999939 156.8199921  18.5135937  61.9418907 159.2668152  19.7510357
  61.3067245 159.9887848  19.0230312  61.4054451 158.6685638  20.8361607
  61.8907509 158.1169891  21.5292263  59.9298172 158.7885284  20.9939117
  59.5223351 158.5638580  20.0082226  59.5034142 157.6647186  22.0136089
  60.0961227 157.7258301  22.9263325  58.4572372 157.6930389  22.3182545
  59.7007141 156.6545715  21.6547508  59.3863640 160.1907806  21.3467083
  58.1712799 160.3578949  21.2787037  60.2969322 161.1505737  21.6513195
  61.2268562 160.8079224  21.8460732  60.0217056 162.5689697  21.8512554
  58.9746628 162.7021027  22.1234322  60.7967529 163.0560913  23.0494442
  60.3242493 162.5272369  23.8771915  61.8278732 162.7509155  22.8712082
  60.7986908 164.4774017  23.3096867  61.4299088 165.0478210  22.6282959
  59.4469337 165.1909027  23.3219185  58.8008041 164.7375183  24.0736217
  59.6079559 166.2572021  23.4806118  59.1120033 165.1257477  22.2867012
  61.3640213 164.7017212  24.7057667  62.4094467 164.4115143  24.8104382
  61.2509346 165.7445831  25.0019951  60.8046188 164.0375061  25.3645477
  60.3380089 163.2795410  20.4909401  59.4313354 164.0298157  20.0961819
  61.4028854 163.0069275  19.7916164  62.0220566 162.2951202  20.1522579
  61.6163788 163.5030518  18.4212742  61.6051140 164.5924835  18.3882198
  62.9856720 163.0416412  17.8535385  63.0122375 161.9521637  17.8320465
  63.0995102 163.4426422  16.8463974  64.1907959 163.5980225  18.6449127
  64.2195587 164.6875916  18.6565151  64.1034012 163.2895813  19.6867008
  65.5510635 163.0584717  18.1485310  66.3328934 163.3699188  18.8412361
  65.5394058 161.9741974  18.2594452  65.9715347 163.3707886  16.7366867
  65.6738510 162.7106781  16.0326004  66.9483871 164.1654968  16.4025993
  67.3868866 165.1251221  17.1244793  67.0689163 165.2283173  18.0775528
  67.9781418 165.8715820  16.7878513  67.5195160 163.9917908  15.2610054
  67.0948639 163.4694366  14.5080624  68.3271561 164.5478516  15.0188818
  60.5081863 163.0620880  17.4318943  60.3000183 163.8069611  16.4688892
  59.7349815 161.9995270  17.7081356  60.1534767 161.3008881  18.3055229
  58.4988518 161.6728821  17.0312862  58.7363243 161.6487732  15.9677382
  57.9934616 160.2145233  17.4384499  57.9366989 160.1564331  18.5254211
  56.5135040 160.0407867  17.0041447  56.4165230 160.1920471  15.9290590
  56.2231865 159.0105591  17.2102261  55.9212112 160.7621307  17.5671196
  58.9084396 159.1028290  16.7729454  58.8842125 159.2898102  15.6993771
  59.8977432 159.2210388  17.2149982  58.4605217 157.6404419  17.1491280
  57.5499268 157.3091736  16.6499443  59.2824211 157.0189514  16.7936954
  58.4395981 157.5093536  18.2310143  57.4888496 162.8204803  17.2326679
  56.9543495 163.3666229  16.3081398  57.2028275 163.1517029  18.5082111
  57.7699585 162.7427673  19.2370739  56.3469505 164.2386322  18.8985939
  55.3999596 163.9867859  18.4212112  56.1294899 164.4683380  20.4397030
  56.9348183 165.0275879  20.9159317  55.2563782 165.1116028  20.5491924
  55.9133720 163.1635132  21.2529392  56.8752060 162.6511536  21.2744446
  55.5596313 163.4834595  22.2330437  54.8365059 162.1864014  20.6318359
  53.7785225 162.5740967  20.1713047  55.1228256 160.8905334  20.6932068
  54.4073944 160.2264404  20.4338722  56.0090675 160.5559692  21.0435524
  56.8163261 165.5888519  18.3699055  55.9680748 166.4004364  18.0061626
  58.1430397 165.7753601  18.1635342  58.7387352 165.1275635  18.6591206
  58.7742844 166.9734344  17.5245056  58.2555161 167.8345795  17.9457073
  60.2290840 167.0182037  17.9276028  60.2931938 166.7377930  18.9789677
  60.7080078 166.2706146  17.2952595  60.9526825 168.4300385  17.8119488
  60.8766785 168.7098846  16.7612286  60.4117813 169.6092072  18.5591869
  60.4759216 169.3630829  19.6190968  60.9617081 170.5353546  18.3920174
  59.3790359 169.7510986  18.2407417  62.4025154 168.1797180  18.1893826
  62.9755783 167.4390259  17.6316338  62.9151268 169.1371002  18.0958538
  62.4235039 167.8869019  19.2391109  58.5737915 166.9962006  15.9974689
  58.2144508 168.0299835  15.4385500  58.6782150 165.8425293  15.3193474
  58.9790115 165.0187988  15.8204269  58.4146614 165.7444153  13.9174166
  58.9094505 166.5571442  13.3856754  59.0582275 164.4300385  13.3858690
  60.0666122 164.3139343  13.7830877  58.5122490 163.5736694  13.7816372
  59.0336227 164.3466339  11.8059444  58.2517471 164.9725342  11.3758125
  60.2575455 165.0010681  11.2439117  61.1675339 164.4016724  11.2165165
  60.1654549 165.1186066  10.1641865  60.4733925 165.9739075  11.6856270
  58.8723755 162.9424591  11.2462568  57.9300575 162.4682770  11.5206537
  58.8230400 163.0705872  10.1649380  59.6516418 162.2258759  11.5058041
  56.9381828 165.8780518  13.5785360  56.6232376 166.3418884  12.4826136
  56.0124779 165.4915161  14.5294256  56.3122482 165.0493622  15.3865948
  54.5678329 165.5484924  14.2844772  54.2451515 165.0177460  13.3887768
  53.8835411 164.8585968  15.4369860  54.4640236 164.9341431  16.3564606
  52.9534645 165.3809967  15.6609678  53.4781990 163.3646851  15.1334667
  52.6011200 163.4024048  14.4873981  54.2983322 162.9290619  14.5627537
  53.0946808 162.6447754  16.4694252  53.8993721 162.5254669  17.1949158
  52.3699722 163.2530670  17.0106087  52.4855576 161.2907562  16.0287800
  51.7185097 161.6473236  15.3413172  53.2889099 160.7489929  15.5295763
  51.9042130 160.5289459  17.1398754  51.9840622 159.5299988  17.0141659
  52.2459106 160.7910461  18.0534706  50.9014320 160.6367340  17.0859470
  54.0266304 166.9965210  14.1031046  52.8581352 167.1354828  13.6944380
  54.7955513 167.9702759  14.5125141  55.7291222 167.7511749  14.8296022
  54.2443924 169.3122101  14.7876711  53.3240814 169.1101074  15.3356504
  55.1915359 170.1728516  15.6904497  56.1432152 170.3174133  15.1790686
  54.5920639 171.5769196  16.0318089  53.5808907 171.5530853  16.4380970
  55.2070236 172.0549316  16.7943249  54.6105957 172.2288055  15.1584225
  55.5347710 169.4133453  16.9985771  55.7815208 168.3820190  16.7463703
  56.4241371 169.8826904  17.4191055  54.4273758 169.3948822  18.0732155
  53.4895058 169.0219879  17.6615791  54.7331657 168.6912231  18.8474541
  54.2871742 170.3801270  18.5179062  53.7555161 170.1336212  13.5556612
  54.3793106 170.1597137  12.5144444  52.6257629 170.8710327  13.6686287
  52.1664391 170.8882599  14.5679770  52.0283813 171.6111450  12.4997215
  52.0422783 170.8889313  11.6834345  51.0114784 171.9094696  12.7546997
  52.8873100 172.8071136  12.1787224  53.3773041 172.9423065  11.1041508
  53.0895729 173.7275238  13.1450434  52.6580048 173.5558167  14.0419064
  53.6246300 175.0509491  12.9616194  53.8189850 175.1858368  11.8975992
  52.5679474 176.1115265  13.4239397  51.6289787 175.9539795  12.8932695
  52.3789558 175.8670959  14.4692326  52.9137039 177.5084381  13.3011370
  53.0377083 177.7402039  12.3778248  54.9679527 175.3479309  13.6996498
  55.1775627 174.8643341  14.8069897  55.7528992 176.2571259  13.1636086
  55.4884796 176.5504456  12.2340145  57.0563393 176.5373993  13.7104464
  57.5370712 175.5758057  13.8902531  57.8828506 177.2461853  12.6226749
  57.4103127 178.2182770  12.4818439  58.9302330 177.4369507  12.8565454
  57.8203773 176.6607513  11.7053671  57.0259285 177.3467560  15.0555506
  58.0013771 177.2326050  15.7777157  55.9640274 178.1325836  15.3005161
  55.3131828 178.2937469  14.5451851  55.5916252 178.5948334  16.6824913
  56.2906609 179.2851105  17.1546955  54.2617416 179.3887177  16.6478596
  53.5458755 178.7932434  16.0812397  53.6870651 179.5990906  18.0846062
  54.3620872 180.0915222  18.7845726  52.7518272 180.1586761  18.0674458
  53.4887276 178.5934753  18.4553852  54.5931854 180.6702423  15.9427614
  55.3381348 181.1820374  16.5520401  55.0583572 180.4100647  14.9919596
  53.3272438 181.4313049  15.5174580  52.8562546 181.8473053  16.4080887
  53.7784576 182.2736053  14.9930019  52.6873512 180.8012543  14.8996572
  55.5758209 177.3941345  17.6432190  56.2779922 177.3618164  18.6244583
  54.7223854 176.3715057  17.4285431  54.1131897 176.3988495  16.6234131
  54.4882698 175.2472382  18.3490849  54.1555443 175.5885468  19.3293400
  53.5103531 174.3761902  17.6480350  53.8137169 174.0849915  16.6424160
  53.4332314 173.4602814  18.2339458  52.0639992 174.8628082  17.4581261
  51.6144562 174.7937469  18.4487019  52.0760574 175.9135590  17.1684895
  51.2425232 174.0825806  16.4665356  51.7044716 173.3731995  15.6113520
  49.9382935 174.2657623  16.4916592  49.4274597 173.8100739  15.7490273
  49.5528297 174.9956818  17.0736732  55.7212753 174.4082642  18.5239544
  55.9417648 173.8822784  19.5817013  56.5663567 174.2416534  17.4557247
  56.1618500 174.5875244  16.5973206  57.8609619 173.5462494  17.4038086
  57.7044029 172.5005035  17.6684399  58.2546921 173.4042816  15.8904858
  57.4251442 172.9433746  15.3542786  58.4703140 174.3757935  15.4457731
  59.4792366 172.5300446  15.6498985  60.3395691 173.1457062  15.9123650
  59.4896736 171.7128143  16.3710957  59.6213379 171.9382629  14.1790838
  60.5089111 171.3055573  14.1762438  58.9068985 171.1624298  13.9038277
  59.7767601 173.0461578  13.2533779  60.3720818 173.7974701  13.5715590
  59.2058182 173.0571747  12.0619860  58.3294830 172.2376251  11.6083260
  58.0245361 171.4585266  12.1741171  57.8936195 172.4041290  10.7125578
  59.5274925 174.0747986  11.3347530  60.2594528 174.7050018  11.6300077
  59.0002556 174.1635437  10.4778700  58.8695717 174.1756439  18.3622684
  59.3389587 173.5260620  19.2698059  59.0513687 175.5129242  18.2496338
  58.7105331 175.9023285  17.3822803  59.7862244 176.3436279  19.2043037
  60.7702484 175.8996735  19.3549557  59.8895836 177.7809906  18.6982288
  58.8739738 178.1246796  18.5019760  60.4317436 178.3981781  19.4146442
  60.6499214 178.0177612  17.3790207  60.3638802 177.2892151  16.6204071
  60.2342148 179.3949127  16.8115807  60.6444092 180.1977692  17.4241886
  60.6139565 179.5733643  15.8055735  59.1536331 179.5374603  16.8225689
  62.2213974 177.9884186  17.4215336  62.6033363 177.0255890  17.7608967
  62.5834732 178.2201538  16.4198818  62.6236992 178.7865601  18.0454216
  59.2315445 176.1936951  20.6704998  60.0289497 175.9911194  21.5591812
  57.9101105 176.2264862  20.8973446  57.3114166 176.3672485  20.0961857
  57.2300301 176.0037384  22.2048035  57.6486549 176.7089996  22.9227619
  55.7207794 176.1795502  22.1729698  55.2530289 175.6025848  21.3752098
  55.2676735 175.8644104  23.1129112  55.2674484 177.6928253  22.0888920
  55.7664108 178.1947937  22.9178448  55.6006088 178.0923615  21.1310425
  53.7112045 177.8513489  22.1132393  53.4441795 178.9047852  22.1972275
  53.3837051 177.3899078  21.1816216  53.0281639 177.0474091  23.2443962
  52.7363434 176.0956421  23.0737724  52.8825607 177.5123901  24.4918232
  53.2373161 178.7191162  24.8632889  53.1426544 179.4699097  24.1943703
  53.2150879 178.9029846  25.8561611  52.4576225 176.6759033  25.4176712
  51.9982948 175.8209229  25.1381454  52.5589638 176.9022369  26.3967552
  57.5610504 174.6388092  22.7615356  58.0563583 174.5379791  23.8955059
  57.5064354 173.5367584  22.0084705  57.2098083 173.7076111  21.0582485
  58.0634918 172.2529297  22.4139805  57.4766045 171.9569702  23.2835026
  57.6462898 171.3007050  21.2917404  56.5725555 171.3034363  21.1041565
  58.0890541 171.6164703  20.3470955  58.2444649 169.6002502  21.6463928
  57.3257446 168.9700775  20.9090061  59.6145706 172.2447815  22.6844883
  60.0601501 171.7678223  23.7674637  60.4692802 172.7875366  21.7848320
  60.1467285 173.1126099  20.8846149  61.8566895 172.9527130  22.1084614
  62.2920532 171.9545593  22.1558895  62.6125984 173.7036438  20.9946976
  62.0653152 174.6004944  20.7044563  63.6053085 173.8378601  21.4243660
  62.6287041 172.8256531  19.6831074  63.3776550 172.0424805  19.8005810
  61.6659164 172.3358002  19.5375576  62.7366219 173.7113037  18.4552135
  63.3609467 174.7978973  18.5486298  62.2807655 173.2343140  17.4064198
  62.1413765 173.6302185  23.4851398  63.0714455 173.1798553  24.2190819
  61.5006905 174.7730713  23.8569660  60.7251015 175.1147461  23.3075829
  61.8093605 175.5248871  25.0928402  62.8977547 175.5525360  25.1451645
  61.1872826 176.9667358  25.0107231  60.1439056 176.9180908  24.6991253
  61.1574059 177.4528656  25.9858551  61.9473305 177.8891144  24.0098286
  62.0324287 177.3443756  23.0695496  61.1338539 179.1375122  23.7388439
  61.1651955 179.8162689  24.5911446  61.6436081 179.6853485  22.9462948
  60.1016083 178.9175720  23.4664536  63.3447380 178.2281036  24.5262356
  63.8713570 177.2923889  24.7138500  63.9660873 178.8377075  23.8701725
  63.1804314 178.8116150  25.4321251  61.4045868 174.8146515  26.3918686
  62.1412544 174.9823456  27.4098587  60.3408089 173.9798889  26.3241158
  59.8856659 173.9774170  25.4224834  59.9398766 172.9923096  27.2930107
  59.8107338 173.4541168  28.2718678  58.6242447 172.4490967  26.8030109
  57.9646492 173.2933807  26.6024628  58.7039757 171.9238892  25.8512173
  57.9667168 171.4903870  27.8382511  57.5062943 171.8869629  28.9792805
  57.7148018 170.3743286  27.3635902  60.9789009 171.8685303  27.4764462
  61.2594490 171.5917053  28.5972385  61.5616455 171.3500977  26.3506279
  61.1905136 171.6615295  25.4644127  62.7574196 170.5071259  26.3142376
  62.4888306 169.6346588  26.9098473  63.1014099 170.0471802  24.9078636
  63.2185669 170.8994446  24.2385235  64.4931030 169.3432465  25.0117054
  64.3936768 168.7647095  25.9301357  64.6711578 168.6840973  24.1620445
  65.2513199 170.1231842  25.0817928  62.0124054 169.0960083  24.3138714
  62.2579613 168.0783234  24.6173820  61.0599899 169.2857819  24.8088398
  61.9022026 169.1026917  22.7415142  62.8166084 168.8598480  22.2002316
  61.1840706 168.3571625  22.4000702  61.5698891 170.0935059  22.4317341
  63.9401207 171.2103424  27.0091305  64.5425873 170.6513214  27.9203892
  64.3232117 172.4301758  26.6181870  63.8259277 172.8235931  25.8320408
  65.5479813 173.1605988  27.1027527  66.2983246 172.3704681  27.1302776
  66.0141525 174.2772064  26.1538048  65.2995605 175.0937653  26.0504780
  66.9304276 174.6880341  26.5777836  66.4243240 173.8219757  24.7399197
  67.2885666 173.1588745  24.7783680  65.5617218 173.2615051  24.3795052
  66.8080063 175.2492828  23.5289421  67.1088638 174.4314575  22.0045834
  66.2764587 173.7344208  21.9079266  67.1875458 175.2190399  21.2551765
  68.0653076 173.9135590  22.0761013  65.4743652 173.6848450  28.5452366
  66.5097275 173.8755493  29.1269836  64.2988586 173.7281494  29.1573429
  63.4966431 173.7380981  28.5437832  64.1266251 174.0069885  30.6167431
  64.9440155 174.6681824  30.9044762  62.6508102 174.6003876  30.8180180
  61.9698257 174.1453552  30.0987759  62.2921104 174.4395447  31.8346634
  62.5856895 176.1586609  30.7312164  63.5905113 176.8364258  30.6016922
  61.4325562 176.8038330  30.8874550  61.4732475 177.8085327  30.7925911
  60.6029968 176.2295227  30.9333248  64.2489548 172.6587524  31.4152737
  65.0707092 172.5310364  32.2938919  63.4139404 171.6790314  30.9930668
  62.7221222 171.9323120  30.3021698  63.2759552 170.2798767  31.5846615
  62.9884415 170.4104462  32.6279182  62.1110916 169.5507507  30.9543552
  62.1529999 169.6277008  29.8678837  62.2881165 168.5068207  31.2131958
  60.7892265 170.0124207  31.5363941  60.8175011 169.9204865  32.6221428
  60.7882385 171.0830078  31.3315754  59.6084251 169.2586670  31.0412598
  59.4120369 169.3520966  29.9731750  59.6583328 168.1781464  31.1757469
  58.3663368 169.8320312  31.8002319  58.1938553 169.2977295  32.7345047
  58.6148109 170.8628387  32.0528488  57.1730042 169.8180847  30.8986263
  56.9403000 168.8494263  30.7322884  56.3577232 170.2862396  31.2677536
  57.3720551 170.3150482  30.0421810  64.5601730 169.4024811  31.5164261
  64.6892395 168.5911407  32.4130859  65.4805298 169.5350952  30.6209164
  65.2306519 170.2320862  29.9339981  66.7151642 168.7033997  30.4188232
  66.4974365 167.6736450  30.7022076  67.1748581 168.7830811  28.9380455
  66.3170853 168.3859863  28.3952274  67.4335938 169.8238831  28.7434025
  68.6280899 167.8129272  28.5679054  68.8369370 168.2155457  27.3112507
  67.8956451 169.1736450  31.2826157  68.2590866 170.3179932  31.2710266
  68.4899902 168.2532043  32.0752831  68.2674789 167.2691040  32.1216125
  69.6007309 168.6674652  32.9643402  69.9939880 169.5933990  32.5447235
  69.2011032 169.0201416  34.4122505  70.0714645 169.4252625  34.9284286
  68.1241684 170.1176605  34.6038704  67.2703781 169.9560394  33.9458313
  67.8495102 170.0772095  35.6579247  68.5353088 171.0866699  34.3208809
  68.7246857 167.8937836  35.0930061  67.7646866 167.8939819  35.0901642
  70.7821045 167.7034607  32.9502411  71.8470612 168.0036163  32.3749771
  70.6883774 166.5289307  33.5686150  69.8581314 166.3211823  34.1049347
  71.6953812 165.4511414  33.3896294  72.7139359 165.8389282  33.3729782
  71.5723190 164.5454254  34.6119537  71.8147354 165.1244049  35.5030861
  70.5558929 164.1681519  34.7243958  72.5189667 163.4683533  34.5600624
  72.3614578 162.9565735  35.3568611  71.4658813 164.5962982  32.0530586
  70.3533325 164.5819855  31.5336151  72.5042343 163.8735809  31.6180534
  73.3420868 163.9166412  32.1804199  72.5777969 162.9217072  30.4596481
  71.5252533 162.7107239  30.2706032  73.1942291 163.5849457  29.1373806
  74.2270889 163.7933044  29.4164734  73.1693802 162.9044495  28.2862568
  72.4647064 164.8881531  28.7051926  72.3607941 165.5761871  29.5441818
  73.3494492 165.5595245  27.6579666  73.6491852 164.9747162  26.7883377
  72.8388290 166.4441833  27.2775078  74.2817535 165.7717285  28.1813030
  71.1074371 164.5393372  27.9891796  70.4545212 164.0401306  28.7051392
  70.6631775 165.4475403  27.5818825  71.3258667 163.9166412  27.1216335
  73.2584381 161.5833282  30.7343140  74.4749374 161.4551392  30.8257637
  72.3582916 160.5879822  30.9616089  71.3736725 160.8022919  30.8931732
  72.8550186 159.2647095  31.4266872  73.7936783 159.3585663  31.9727859
  71.7593994 158.7672272  32.3706398  70.8481369 158.6842194  31.7783413
  72.0256042 157.7270813  32.5585632  71.7302399 159.7761230  33.8668518
  70.5606003 159.3706665  34.3692741  73.0633163 158.2158203  30.2889099
  72.8182755 158.5111084  29.0781460  73.5356903 156.9915619  30.6444702
  73.5060501 156.7228394  31.6176128  73.4594193 155.8456421  29.7284203
  73.7091904 156.2061157  28.7305374  74.5724487 154.8863220  30.1133919
  75.5499878 155.2944946  29.8566341  74.6197205 154.7816925  31.1973267
  74.4602966 153.2504883  29.2523823  75.5483017 152.6788788  29.7762203
  72.0438690 155.1991882  29.7808151  71.4682312 154.9422150  30.8207817
  71.5660477 154.8433533  28.5703526  72.1729050 154.9744873  27.7737160
  70.2677689 154.2775116  28.3407230  69.4833755 154.8669281  28.8155212
  69.9592514 154.1028900  26.8372364  69.8312149 155.0881653  26.3889618
  70.7773743 153.5536957  26.3712406  68.6043015 153.4326935  26.5331440
  68.7943726 152.4539490  26.9736118  67.7660217 153.9836121  26.9596195
  68.3751526 153.2065887  24.9989605  69.3242874 152.9092865  24.5530243
  67.6351547 152.4169312  24.8687763  67.8521957 154.4473724  24.2684574
  66.8695297 154.6641235  24.6873589  68.4690628 155.3325958  24.4231949
  67.7574234 154.1951752  22.7864056  67.5231781 153.2437439  22.5414810
  67.0630112 154.7537842  22.3111496  68.6218414 154.4900513  22.3551998
  70.1208572 152.9214935  29.0864258  69.1138306 152.7631226  29.8448582
  71.1901550 152.1318665  28.9972572  72.0175934 152.4100952  28.4892864
  71.1545486 150.7664948  29.6016235  70.1770859 150.3938751  29.2953129
  72.2021942 149.8905792  28.9559975  72.1506348 150.0175323  27.8746433
  73.2095871 150.2017822  29.2324467  72.0099640 148.4225769  29.3276997
  72.3014069 148.2376251  30.3616028  70.9659576 148.1350403  29.2033329
  72.8511200 147.4805603  28.4171295  72.9187927 147.7006836  27.1797848
  73.3681488 146.4088745  28.8984337  73.7803650 145.6720581  28.3440952
  73.2742844 146.2141876  29.8850384  71.1338806 150.7212219  31.1471920
  70.3523560 150.0097198  31.7429142  71.8035583 151.6489563  31.8290749
  72.5045166 152.1295319  31.2833595  71.7030334 151.8011017  33.3120117
  71.6675797 150.8679810  33.8742714  72.9925537 152.5275879  33.7178307
  72.9352570 153.5795135  33.4380836  73.1513672 152.5373688  34.7961540
  74.4918518 151.8791809  32.9829559  74.9466705 151.2552948  34.0732727
  70.4811249 152.5974121  33.7805481  69.8477325 152.4331360  34.8421173
  70.0754395 153.4681244  32.8378105  70.6950150 153.5398865  32.0434036
  69.2413330 154.6839294  33.0732460  69.3068619 155.1848145  32.1073647
  67.6961441 154.3906250  33.2506485  67.4845352 153.9352112  34.2180786
  67.1619492 155.3345337  33.1421776  67.2176895 153.5090027  32.1402359
  67.3541183 154.0218353  31.1881409  67.7227325 152.5497589  32.2537384
  65.7205658 153.1515808  32.2798576  64.9732590 153.3385925  33.2448921
  65.2439575 152.3474121  31.3942032  64.3038101 151.9849396  31.4636745
  65.8395691 152.0699768  30.6271400  69.7439041 155.6329193  34.1871567
  69.5620651 156.8294067  33.9217949  70.2668686 155.2369843  35.2937546
  70.1024399 154.2633514  35.5061646  70.5956039 156.0652618  36.4405861
  69.9502335 156.9408264  36.3699684  70.1804428 155.3514404  37.7541161
  70.2656708 156.1254730  38.5168190  69.1636734 154.9705353  37.6582108
  71.0651779 154.1834259  38.2565994  71.6909790 153.5754242  37.4087067
  71.0363770 153.8072052  39.4502449  72.0525818 156.4697113  36.5590668
  72.3579712 157.3543701  37.4002342  72.9362564 156.0176544  35.6425400
  72.5776978 155.2530212  35.0885925  74.3380737 156.4061127  35.6351624
  74.5399246 156.6835785  36.6697502  75.2430267 155.2276611  35.2420158
  74.9083481 154.9465179  34.2434921  76.7346268 155.3950348  35.1370430
  77.1844254 155.3543701  36.1290779  77.1486206 154.5914612  34.5279579
  76.9638367 156.3223877  34.6120949  75.0662613 154.0621033  36.1233101
  75.1509933 154.3195190  37.0442619  74.5684052 157.5904999  34.6700020
  74.3794022 157.4819794  33.4722404  74.9704819 158.7720337  35.1801300
  74.9748993 158.8791962  36.1844215  75.3113861 160.0020905  34.4905014
  74.4751816 160.2605743  33.8408508  75.4385300 161.1073151  35.5599365
  74.5767059 161.1649475  36.2247925  76.3175659 160.7855835  36.1184196
  75.8734894 162.4946899  34.9412041  76.8892136 162.4067230  34.5556297
  75.1844254 162.7348175  34.1314926  76.0265198 163.6579742  36.0012283
  75.8024063 163.4767151  37.1981163  76.5475845 164.7852020  35.6718025
  76.5730667 159.9144287  33.6578293  77.6072464 159.4699707  34.1362991
  76.4590607 160.3800507  32.4107895  75.5714264 160.8037567  32.1812744
  77.5989380 160.2100067  31.4465008  78.4203644 159.6872711  31.9365005
  77.1558075 159.4795837  30.1512203  76.0663986 159.4439087  30.1541786
  77.6028595 160.0304108  28.8064480  78.6028748 160.4481201  28.9230385
  77.6661072 159.3080444  27.9926491  76.9321060 160.8215485  28.4713173
  77.7146988 158.0323486  30.1934166  77.3519669 157.5291901  29.2971210
  78.7944946 158.0671082  30.0487614  77.4647064 157.1945801  31.4839325
  76.4444962 157.2035217  31.8675747  77.8878250 156.1996002  31.3457603
  78.1130447 157.7044678  32.1965179  78.0797348 161.6608276  31.1981621
  79.3150711 161.7898712  31.0637894  77.1735306 162.5830231  30.9563637
  76.1924591 162.3431091  30.9510536  77.3881607 164.0492859  30.7351780
  78.1742859 164.3458557  31.4295578  77.9943848 164.3102417  29.3461075
  78.8076172 163.6480255  29.0490665  77.0067368 164.2385864  28.1972618
  76.3290253 165.0869751  28.2923336  77.4656906 164.2158356  27.2088566
  76.2746124 163.4421539  28.3306217  78.5206833 165.6352234  29.3398647
  79.4707336 165.5781860  29.2143517  76.1382904 164.9093323  31.0898571
  75.1566315 164.3981781  31.6769886  76.2213974 166.2742615  31.0180988
  76.9505386 166.6637421  30.4378071  75.2697296 167.2603912  31.6132717
  74.2885513 166.8082428  31.7579670  75.7843552 167.6798248  32.9862900
  75.7464066 166.8286438  33.6661186  77.1906586 168.2235870  33.1222458
  77.4133682 168.9947052  32.3847733  77.3336029 168.6081390  34.1320839
  77.9414749 167.4576721  32.9278679  74.9522171 168.7399139  33.4289513
  75.2195816 168.9137268  34.3344345  75.1193466 168.4404449  30.6342621
  76.0573196 168.7548828  29.9013462  73.9431305 169.0697174  30.6464043
  73.2660446 168.6214447  31.2469864  73.5570297 170.1829376  29.7939930
  73.3343811 169.7826233  28.8049145  72.2193909 170.7051697  30.3374882
  71.3894653 170.0060577  30.2346935  72.2613754 170.8148804  31.4211407
  71.8778610 171.9753876  29.5690022  72.5787277 172.7524719  29.8740311
  71.8978271 171.8849335  28.4829445  70.4907227 172.5041656  29.8645668
  69.7297897 171.7767334  29.5818329  70.4678345 172.5608826  30.9528484
  70.2185745 173.8480835  29.1716118  71.1553574 174.4022980  29.2298470
  69.8303146 173.7239838  28.1606960  69.1757965 174.5963135  29.9200325
  69.2405396 174.4683075  30.9197941  69.1274490 175.5844269  29.7165565
  68.2500458 174.2332458  29.7432213  74.7459641 171.2293396  29.7482605
  75.0566559 171.7100372  28.6512489  75.4465790 171.5457764  30.8197250
  75.0500946 171.1613007  31.6653461  76.3498688 172.7203522  30.8577404
  75.8775101 173.5017853  30.2624912  76.5025940 173.2251740  32.3291855
  76.6446609 172.3638153  32.9818649  77.3845367 173.8632507  32.3850365
  75.3888550 174.1027679  32.8483429  74.7701035 174.8789825  32.0663834
  74.8964767 173.8662872  33.9970093  74.2694855 174.5549316  34.3878403
  75.2642822 173.1057281  34.5505219  77.7137756 172.4609375  30.1796570
  78.4315186 173.3744049  29.8417435  77.9446182 171.2438812  29.7529678
  77.2867279 170.4924622  29.9033890  79.1622238 170.9018707  28.9445534
  79.8515396 171.7373657  29.0666447  79.7020340 169.5805817  29.4711514
  78.9769287 168.7681732  29.4230404  80.5558167 169.3112488  28.8493652
  80.1348572 169.6042023  30.8749619  79.2297058 169.5634918  31.4808922
  80.6796036 168.6924286  31.1199360  80.9749756 170.8297272  31.3341980
  81.8711243 171.2531586  30.5801601  80.8343124 171.3232880  32.5082207
  78.8472519 170.7031555  27.4747448  79.7483139 170.4882050  26.6491814
  77.5742340 170.8377075  27.0799618  76.8814468 171.1145477  27.7607765
  77.1485062 170.8880005  25.6274586  77.4487610 169.9607849  25.1393890
  75.5650330 171.0256195  25.5113373  75.1310577 171.8495789  26.0777607
  75.2405090 171.2495880  24.0529041  75.4828873 170.3528290  23.4826527
  74.1636963 171.3067932  23.8938484  75.7656860 172.1290283  23.6802731
  74.7884521 169.7607574  26.0426254  75.1209793 168.9036713  25.4570293
  75.0459061 169.6231079  27.0928020  73.2943268 169.9010620  25.9401684
  72.9994125 169.7216644  24.9062710  72.7450790 169.1912079  26.5586681
  73.0540085 170.9044495  26.2916775  77.8819733 172.0315247  24.9140091
  77.8711243 173.1993256  25.4038525  78.5325928 171.7585907  23.7727928
  78.3741989 170.8287506  23.4116535  79.1848907 172.7699127  22.9074802
  78.5760574 173.6708069  22.9838142  80.5889435 173.1103516  23.3192635
  80.7541199 174.1872559  23.2863274  80.6456375 172.9346161  24.3935089
  81.6957626 172.3329773  22.6400604  81.9856262 171.0375519  23.1069164
  81.4392700 170.5798035  23.9183121  82.9270477 170.2150421  22.4571762
  83.1064072 169.2338867  22.8713875  83.5985336 170.7868042  21.3728294
  84.4072647 170.2871857  20.8602562  83.3800659 172.0917969  20.8899498
  84.0715637 172.5556335  20.2021351  82.4104614 172.8887482  21.5730228
  82.2806473 173.9064026  21.2354660  78.9964523 172.4493561  21.3979702
  79.0763092 171.2749023  21.0887432  78.7535400 173.4366455  20.5692291
  78.5434723 174.3348083  20.9806309  78.6428146 173.3108521  19.0972023
  78.1376190 172.3937225  18.7943134  77.7858505 174.4479980  18.5742016
  78.1267395 175.4615936  18.7851772  77.8513794 174.4897003  17.4869728
  76.4372635 174.3592072  18.8505745  76.1766586 175.2238464  19.1762810
  80.0749207 173.3777924  18.4148884  80.6027145 174.4312592  18.0916634
  80.6889801 172.2306671  18.2149010  80.3163910 171.3866272  18.6258564
  81.8693695 172.0856171  17.4585152  82.5239487 172.8995209  17.7702427
  82.5511780 170.7764893  17.9174213  82.6763382 170.8270569  18.9990311
  81.8185577 169.9858856  17.7551842  83.9010239 170.4060974  17.2638264
  83.7185135 170.2223816  16.2050381  84.9636383 171.4705048  17.5614109
  85.3103027 171.4815674  18.5947552  85.8448944 171.3051453  16.9416199
  84.6740646 172.4909668  17.3106441  84.4261246 169.0380096  17.7941628
  83.6485138 168.3010406  17.5933914  85.3115463 168.7022247  17.2543564
  84.5300446 169.0761566  18.8785267  81.6246490 172.1463165  15.9039583
  82.4749680 172.6615906  15.1483221  80.3727722 171.7593994  15.4978209
  79.7868042 171.4684296  16.2672920  79.7831726 171.8173370  14.1464262
  80.5634537 171.8502960  13.3860416  78.9169312 170.5222168  13.9461079
  79.6281738 169.6975555  13.9927244  78.1367111 170.5058594  14.7070961
  78.3604355 170.5404205  12.6554966  78.2189789 169.7135010  12.1888084
  78.8807831 172.9977570  13.8815527  78.1915359 173.4735413  14.7878361
  78.8873901 173.5415802  12.6593704  79.5312347 173.1130066  12.0098486
  77.9681244 174.5204010  12.1369200  77.9521713 175.3281555  12.8686228
  78.4706955 175.0879822  10.8092804  78.8640137 174.2661133  10.2110004
  77.5641937 175.3419037  10.2598534  79.4557190 176.2533264  10.9138269
  80.3513641 175.8961334  11.4220867  79.7556610 176.5714874   9.4463406
  78.8342133 176.8805084   8.9528399  80.4729614 177.3904266   9.3924866
  80.0810928 175.6520081   8.9597511  78.7967224 177.4761810  11.5590715
  78.9534073 177.5334320  12.6362314  79.3091431 178.3176270  11.0927076
  77.7404327 177.4772949  11.2900963  76.5069122 174.0942841  12.0124016
  75.5598526 174.9395599  11.8671827  76.2417068 172.7834778  12.2357607
  77.0636063 172.2041473  12.3303957  74.9246445 172.1754456  12.5508919
  74.1482773 172.6206818  11.9286985  74.9562531 170.6894531  12.1859303
  75.7010193 170.1125793  12.7342358  73.9990387 170.1916809  12.3410749
  75.2809525 170.6213837  10.3882065  75.2010956 169.2910614  10.2944784
  74.4845276 172.2786407  14.0532818  73.3975525 171.9022064  14.3691463
  75.2782516 172.8355408  14.9775343  76.1079865 173.2972412  14.6333399
  75.0660248 172.9575653  16.4033222  75.4230270 173.9192505  16.7718639
  73.9871902 172.9099121  16.5514622  75.8532639 171.8643188  17.2218151
  76.9344025 171.4261475  16.8426304  75.3031311 171.4160309  18.3657608
  74.0992203 171.8440704  19.0599842  73.3110657 171.5501709  18.3667850
  74.0699463 172.9282379  19.1688347  74.0251007 171.0235443  20.3383732
  73.4985046 170.0989380  20.1019630  73.5925980 171.6012573  21.1552525
  75.5174942 170.6857910  20.6027241  75.6600494 169.8144989  21.2419758
  76.0406799 171.5009003  21.1026802  76.0155945 170.4268341  19.1676579
  77.0924759 170.5679626  19.2599468  75.8376770 168.9828796  18.7015171
  76.3854218 168.0809326  19.2848988  75.2174911 168.7450562  17.5465031
  74.8521271 169.5569000  17.0695114  74.9025421 167.4533844  16.9416027
  75.7657547 166.8297577  17.1741371  73.6863022 166.9315643  17.6659985
  73.7709351 167.2176819  18.7143669  72.8206558 167.3939056  17.1916561
  73.4802094 165.3809967  17.8033028  73.3434296 164.8057251  16.8876343
  74.3779297 165.0028381  18.2923832  72.1142426 164.9916687  18.9308510
  70.7547226 165.2988434  17.7162457  71.0479126 164.7155762  16.8433552
  69.8318024 164.7968903  18.0066719  70.5899963 166.3683472  17.5853119
  74.8005066 167.5582275  15.4037952  74.2650375 168.5015869  14.8606396
  75.3385773 166.5184937  14.7489576  75.9797516 165.9606476  15.2946548
  74.9668274 166.1258698  13.3939104  73.9260101 166.3794708  13.1926908
  75.8256531 166.9682007  12.3893223  76.8017731 166.6008759  12.0725231
  75.2560883 167.1372070  11.4754677  75.9884720 167.9443817  12.8461037
  75.0691757 164.5776062  13.2128267  75.3883591 163.8347015  14.1538372
  74.7877808 164.1754150  11.9740238  74.7288055 164.9030762  11.2760725
  74.8894119 162.7734222  11.5487099  74.7682419 162.0857239  12.3856668
  73.6874619 162.4961700  10.5173397  73.6256409 163.3249054   9.8120193
  73.8090210 161.5765533   9.9449635  72.7649612 162.3780518  11.0857906
  76.2503586 162.6135101  10.8121977  76.5931473 163.4410858   9.9998255
  76.8990021 161.4843597  11.1404886  76.6887970 160.9450226  11.9681578
  78.2077103 161.1787567  10.5493307  78.2592697 161.6701508   9.5777483
  79.3948517 161.6954346  11.3490438  79.3974533 160.9734497  12.1656380
  80.3237534 161.5632324  10.7942677  79.3184433 163.0576782  11.8988686
  79.7601547 164.1902924  11.1025410  80.0400009 164.2116699  10.0596476
  79.8346481 165.4316711  11.7166624  80.3079910 166.2051086  11.1300201
  79.5765610 165.6287842  13.1057920  79.5702515 166.8366852  13.6049519
  79.6327972 167.5012665  12.9150171  79.1228027 164.5116272  13.9083939
  78.9641647 164.6435852  14.9685020  79.0139084 163.2468719  13.2641716
  78.6734543 162.3958130  13.8352842  78.2237701 159.5938263  10.4300165
  77.4160233 158.9183350  11.0373688  79.0580521 159.0450897   9.5848351
  79.5832214 159.7156982   9.0420790  79.0831070 157.5958099   9.1976604
  78.4713058 156.9427795   9.8200312  78.4254150 157.2925568   7.7809715
  78.6254807 156.2655334   7.4755459  76.9045792 157.4864197   7.7419672
  76.6788864 158.5025177   8.0655384  76.3897018 157.1994781   6.8250856
  76.4300919 156.8002014   8.4434414  78.9668732 158.1596527   6.6294141
  80.0555344 158.1055603   6.6315122  78.5565567 157.8473969   5.6690845
  78.6488724 159.1869049   6.8075457  80.4668503 156.9019165   9.2241325
  81.4482956 157.5631866   8.8493166  80.5654602 155.6452179   9.6402473
  79.7128983 155.1891174   9.9321480  81.7215958 154.7089539   9.5525150
  82.6527023 155.2477570   9.7280951  81.6099014 153.6907654  10.6798859
  82.5709305 153.1846313  10.7712278  81.4197159 154.1397705  11.6547298
  80.5561600 152.5881500  10.4221344  79.9012680 152.6374054   9.4149046
  80.4965591 151.5690765  11.2058916  80.1549301 150.6653290  10.9115467
  80.9481583 151.6406097  12.1064692  81.9679184 154.1304932   8.1295652
  81.0638809 154.2831116   7.3060861  83.0357361 153.2770081   7.8652115
  84.2178574 153.0055389   8.6511269  84.0788727 152.0642853   9.1829290
  84.4123764 153.7807617   9.3922682  85.3181610 152.8168335   7.6314044
  86.1516724 152.2881927   8.0938892  85.6097794 153.7841339   7.2222438
  84.5623093 151.9654388   6.5928326  84.5563507 150.9382172   6.9573545
  84.9702835 151.8927002   5.5846806  83.2055893 152.6195374   6.5385942
  83.2391205 153.4808655   5.8714352  82.1093597 151.5886993   6.0917692
  81.8455887 151.3355408   4.9252062  81.3919678 151.0722656   7.0705085
  81.8009415 151.3490906   7.9515343  80.4214706 149.9963379   7.0663352
  80.6546249 149.2297668   6.3273416  80.5643158 149.2370605   8.4057102
  80.2149124 149.8836517   9.2106495  79.9708557 148.3266754   8.3213463
  81.9923325 148.9103851   8.7859182  82.8124847 149.6993713   9.6023035
  83.9022141 148.9634094   9.8241234  84.7458344 149.3200989  10.3963747
  83.8451462 147.7915955   9.1903086  84.6519928 147.1843567   9.1712713
  82.5944977 147.6782684   8.6363306  82.2162399 146.8432770   8.0652704
  79.0338593 150.6201477   6.9490132  78.0896759 149.9515839   7.3801570
  78.8503876 151.8307495   6.4526186  79.6431885 152.3930359   6.1779957
  77.5463791 152.5512238   6.1382089  77.8744507 153.5095215   5.7355595
  77.0209427 152.0477600   5.3266978  76.5552673 152.7697754   7.2579389
  75.4455109 153.2473602   7.0132122  76.8889999 152.4543457   8.4945097
  77.8402100 152.1593323   8.6626453  76.0957489 152.7438202   9.6826973
  75.0640564 152.4253845   9.5333271  76.6988449 151.8670349  10.8291454
  76.9417648 150.8886871  10.4145222  77.6799927 152.2386932  11.1246424
  75.7513809 151.7020416  12.0278368  75.0233459 150.5223541  12.1545486
  75.1994476 149.7026367  11.4737835  74.0611725 150.3541412  13.2083244
  73.5662384 149.4155731  13.4096785  73.9768753 151.3248444  14.2112484
  73.1421661 151.1655579  15.2419777  72.7602386 150.2861176  15.1937447
  74.7098312 152.5071564  14.0177908  74.5818558 153.3142090  14.7239704
  75.6046295 152.7311096  12.9624081  76.1998444 153.6252594  12.8500404
  76.1428986 154.2287140  10.1455622  77.2512207 154.8553162  10.1372318
  75.0323868 154.7981873  10.5999069  74.1913757 154.2402802  10.6389008
  74.8636627 156.1867065  10.9007359  75.6278076 156.7871552  10.4071302
  73.6196365 156.8080292  10.1360054  72.7426300 156.5036621  10.7072525
  73.5964966 158.3074493  10.3339672  74.4069748 158.8240204   9.8197737
  72.6847534 158.6574554   9.8498907  73.5126190 158.4804077  11.4068861
  73.5656662 156.3985901   8.6473932  74.0380859 157.1196136   7.9802799
  74.1449127 155.5093689   8.3986645  72.1203537 156.2256927   8.2144251
  71.6898422 157.2224121   8.3108187  72.0618439 155.7950897   7.2147937
  71.5357437 155.5307770   8.8172712  74.7933960 156.4659882  12.4119463
  73.9688416 155.9044495  13.0974398  75.7383804 157.2980957  12.8832836
  76.4278030 157.7170715  12.2756186  75.8821411 157.6814728  14.2847242
  75.1179428 157.1991730  14.8942318  77.3058090 157.3775330  14.8215618
  77.9676590 157.7648468  14.0469370  77.4767380 157.7982330  15.8124647
  77.5426559 155.9256439  15.0798988  77.0165787 155.1796722  16.1455479
  77.5135193 153.9429474  15.9756680  77.3549576 153.1128082  16.6480713
  78.4040298 153.9197998  14.9379978  78.9626999 153.1339111  14.6373587
  78.3545303 155.1491699  14.3185616  78.9399338 155.4916840  13.4780884
  75.6159058 159.1382751  14.3995438  76.2620773 159.9317932  13.7419252
  74.5601959 159.4735413  15.1267891  73.9332428 158.8360443  15.5965080
  74.3556747 160.8042755  15.6240034  74.8149033 161.5544128  14.9801750
  72.8499908 161.1474915  15.7589025  72.3483505 160.2929077  16.2129288
  72.6885452 162.0020294  16.4160290  72.1893539 161.4796906  14.4466572
  72.6856079 162.3698883  14.0601416  72.3522568 160.6856995  13.7178707
  70.7055206 161.7287903  14.5796757  70.0159683 160.9335022  15.2793655
  70.1971741 162.6945190  13.9652700  75.1339874 161.0266113  16.9603958
  74.7220459 160.3978577  17.9161701  76.1317520 161.8791962  17.0022602
  76.2591858 162.5067444  16.2212067  76.9333954 162.0970154  18.2396545
  76.5844421 161.3877258  18.9901524  78.4752579 161.9291992  18.0005512
  79.1321106 162.2691498  18.8012238  78.7448578 160.4938049  17.7481632
  78.1338348 159.9987488  16.9934006  79.7648926 160.3554535  17.3896980
  78.6476288 159.9736328  18.7010841  78.9016113 162.5163269  16.8054199
  79.7714920 162.1408844  16.6506176  76.7853241 163.4986115  18.7407665
  76.8769150 164.4710083  17.9706306  76.5837326 163.6952515  20.0334530
  76.4310837 162.8493195  20.5637302  76.5939789 164.9378662  20.7872925
  76.1403351 165.7691040  20.2475262  75.6371765 164.7383118  21.9377251
  74.6166534 164.5721436  21.5927048  75.9230423 163.8566284  22.5113239
  75.6116638 166.0122986  22.8924255  76.6229630 166.4118652  22.9680862
  74.7125320 167.1596985  22.3943214  73.7346573 166.7585449  22.1279907
  74.5086441 167.9524689  23.1140766  75.0939636 167.5124512  21.4361076
  75.1641312 165.6567230  24.3325462  75.6704712 164.7516327  24.6680374
  75.4742432 166.4803162  24.9756718  74.1123734 165.3749390  24.3826046
  78.0141525 165.2423248  21.2520809  78.7577286 164.3931122  21.7801476
  78.3757401 166.4676208  21.0925159  77.8684998 167.0261078  20.4210205
  79.7103653 167.0227051  21.5297489  80.3108063 166.1351166  21.7291756
  80.4348602 167.8675079  20.4510555  81.3113174 168.3188019  20.9160843
  80.9710922 167.0110321  19.3065815  80.1204300 166.4892731  18.8681087
  81.3579712 167.7430573  18.5976543  81.7206726 166.3294525  19.7086697
  79.5887299 168.8221283  19.8249264  79.4161148 169.5918884  20.3719807
  79.5580139 167.7064667  22.8991127  78.6653061 168.5745239  23.1469650
  80.4186020 167.2826996  23.7877998  81.1029205 166.6253204  23.4418678
  80.6661148 167.9082642  25.1421070  80.3620529 168.9538422  25.1912518
  79.9027786 167.1121826  26.2451534  80.1698685 167.5484772  27.2076550
  78.3933792 167.1945038  26.0278034  78.1708145 166.7031403  25.0806427
  77.8652802 166.6579742  26.8160572  78.0113449 168.2149811  26.0556011
  80.3476562 165.6392670  26.3193970  81.4311523 165.5284576  26.3622761
  79.9895782 165.1861877  27.2438374  80.0410156 165.0469666  25.4572811
  82.1296310 167.9691925  25.3693657  82.9021759 167.0743408  24.9389687
  82.6044617 168.9869080  26.1062679  81.9857559 169.7461853  26.3528652
  84.0999832 168.9951782  26.5234680  84.6343079 168.6877136  25.6245403
  84.5725861 170.4142456  26.9583569  84.2369385 170.6666260  27.9642143
  85.6567535 170.4086456  27.0707989  84.2701187 171.5191345  25.9955215
  85.0672150 171.7495117  24.8513756  85.8548889 171.0434875  24.6333981
  84.8563690 172.9318237  24.0755444  85.4469223 173.1652679  23.2019615
  83.8648911 173.8375397  24.4664021  83.7073288 175.0372925  23.8120403
  83.9494705 174.9297638  22.8893223  83.0928497 173.6023254  25.5832920
  82.3627930 174.3615723  25.8219662  83.2769394 172.4375916  26.3460579
  82.7553864 172.2732697  27.2773914  84.4833145 167.9683838  27.5747280
  85.6353607 167.4772186  27.6288013  83.5293198 167.6563110  28.4687691
  82.6006775 168.0503998  28.4195690  83.6933746 166.7753448  29.6186924
  84.6553726 166.2662048  29.5600777  83.7459259 167.7129974  30.8515911
  84.4942932 168.4876404  30.6843300  82.7789612 168.2015839  30.9714622
  84.0890884 167.1234894  32.2014961  83.3608246 166.3543243  32.4586487
  85.0283203 166.6058502  32.0065346  84.1900635 168.2591553  33.2543526
  84.8632431 169.0423126  32.9056091  83.2347183 168.7720490  33.3655128
  84.6321259 167.6654663  34.6399345  84.4067154 168.3654022  35.4445267
  83.9124146 166.8605347  34.7889404  86.0380325 167.2571869  34.7772598
  86.7140350 167.7230072  34.1889381  86.4342194 167.4235382  35.6912994
  86.2356415 166.3057404  34.5019379  82.6624603 165.6488647  29.6951599
  81.4752960 165.7796783  29.4540539  83.0985031 164.5434113  30.1921082
  84.0858765 164.5071564  30.4015656  82.3386765 163.3598938  30.5931835
  81.2964783 163.5727997  30.8310795  82.1953506 162.4696960  29.3236046
  83.1934891 162.1335449  29.0428581  81.5362854 161.6276093  29.5348701
  81.8237381 163.1492615  28.5566730  82.8945923 162.6982117  31.8689804
  84.0289536 162.8793945  32.2003326  82.0138016 161.9097443  32.4995689
  81.1181107 161.7577362  32.0582848  82.2099686 161.4607849  33.8678665
  83.1455307 161.9749756  34.0879784  81.0711441 161.9679871  34.7150345
  80.1109772 161.6523285  34.3069420  81.1907959 161.7436218  35.7749634
  80.9012451 163.7801361  34.4924965  80.1425323 163.8118286  33.3932838
  82.5033035 159.9535065  34.0506287  83.6675415 159.5764008  34.2734070
  81.5147934 159.0215149  34.0663414  80.6045227 159.4044495  33.8545036
  81.6146774 157.5564575  34.2719154  82.4631042 157.3630066  34.9283028
  80.2803726 157.0307617  34.9528351  79.4122925 157.3966217  34.4044876
  80.2511215 155.9435730  34.8802147  80.1837234 157.5476685  36.3278885
  81.1074371 157.2523499  37.1161995  79.1662750 158.2499237  36.6585579
  79.0353012 158.4939270  37.6298485  78.5374680 158.5305939  35.9196892
  81.8640518 156.7823639  32.9706268  81.1465530 155.7585907  32.6805573
  82.8862839 157.1566162  32.2146416  83.3637619 157.9916992  32.5224419
  83.3064804 156.5218658  30.9481106  82.6043091 155.7366943  30.6678047
  83.3052521 157.5537872  29.7987118  83.9944458 158.3678436  30.0233021
  83.5975189 157.0720520  28.8656445  81.9499817 158.1072693  29.4018097
  81.5473328 158.6408081  30.2628021  81.9877319 159.0792389  28.2364540
  82.1695786 158.5677185  27.2912693  80.9855347 159.4827271  28.0918789
  82.7498093 159.8520050  28.3374405  80.9933090 157.0398254  28.8262043
  80.7184753 156.3466339  29.6212215  80.0952454 157.5489044  28.4763260
  81.4128036 156.4800262  27.9902897  84.7122650 155.9525909  31.1224213
  85.6556244 156.6124725  31.5445480  84.9272690 154.6575165  30.6473751
  84.1020355 154.2081451  30.2770195  86.2335205 154.0333252  30.5136929
  86.8775253 154.6203918  31.1684570  86.2542801 152.5422668  30.9631577
  85.5745163 152.0189667  30.2907143  87.2471237 152.1431732  30.7555866
  85.8696136 152.3365479  32.4517784  85.7999954 153.2479858  33.2459259
  85.6963882 151.0731506  32.8121567  85.6075287 150.8664551  33.7967796
  85.8075562 150.3164673  32.1524811  86.7579498 154.1718750  29.0512218
  85.9014282 154.4663239  28.1619339  88.0967941 154.0915222  28.8786964
  88.5742035 153.6575012  29.6557426  88.7297440 154.1896057  27.5923023
  88.0569763 154.6325226  26.8579216  89.9212570 155.1480255  27.7249336
  90.6437607 154.6711121  28.3872223  90.3578720 155.2434235  26.7307644
  89.6361771 156.5437012  28.4099178  88.9973526 156.4759369  29.2904949
  90.8874969 157.2577667  28.7733154  91.4049683 157.5114288  27.8481159
  90.6588058 158.1564789  29.3461456  91.5618515 156.6552429  29.3818436
  88.8633118 157.3577118  27.3170700  87.9308014 156.8312988  27.1135330
  88.5761108 158.3569641  27.6443214  89.5535660 157.4759674  26.4818058
  89.1295013 152.8001556  27.0716667  89.5816727 151.9751740  27.8481483
  88.8954926 152.4597473  25.7997093  88.4323502 153.1589813  25.2369766
  89.3414536 151.1647644  25.1891499  90.2615738 150.8242645  25.6640682
  88.2939758 150.0612183  25.4492378  88.6181030 149.0408936  25.2443256
  88.0671463 150.0160980  26.5144215  87.1682053 150.3339081  24.6509514
  86.4019165 149.8568573  24.9777870  89.7673416 151.4047089  23.7536507
  89.4538956 152.4419708  23.1524792  90.4863815 150.4341888  23.1991749
  90.6390533 149.5632477  23.6872997  91.1619034 150.7070923  21.9227962
  91.5377731 149.8014221  21.4467735  90.5293427 151.2384491  21.2117329
  92.4474792 151.5281219  22.1009407  92.8388824 151.8782959  23.2196503
  93.0895996 152.0114136  21.0083656  92.6671143 151.8069611  20.1140442
  93.9702835 153.1818695  21.1287289  93.9414139 153.6194153  22.1266346
  95.4058075 152.7859497  20.7742310  95.3917694 152.2922211  19.8025608
  96.0092392 153.6831970  20.6367302  96.1340332 151.7922974  21.7674580
  95.4432068 150.9720001  21.9623165  96.9740448 151.2650146  21.3153172
  96.4809494 152.4759979  23.0482597  97.1585312 153.3250122  22.9578876
  95.5643768 152.9462128  23.4044895  96.8638535 151.5294800  24.1283798
  97.8252029 151.2198334  24.1327915  96.1623611 151.0952911  25.1620445
  94.9197693 151.4753876  25.5138054  94.4432297 152.1510315  24.9337044
  94.4418564 150.9057617  26.1973438  96.7504272 150.1795197  25.8467045
  97.5702133 149.6965790  25.5078621  96.3185654 149.7527771  26.6538506
  93.5180664 154.2750244  20.1414108  92.7665939 153.9876862  19.2005901
  93.8640594 155.5684967  20.3872719  94.7254562 156.0196075  21.5680180
  95.7830658 155.7591095  21.5268002  94.2190247 155.6161041  22.4448471
  94.6417465 157.5113220  21.5636578  95.5645981 158.0663452  21.7322063
  93.9564896 157.8168945  22.3543282  94.2191925 157.8536377  20.1273537
  95.0553589 158.1908875  19.5148315  93.4957809 158.6683807  20.1586704
  93.5432739 156.6613007  19.4967613  92.4565811 156.7256927  19.5519104
  93.8775482 156.4503632  17.9920654  94.9493484 155.9433136  17.6089821
  92.8475494 156.5972595  17.1439114  91.9359818 156.7404938  17.5545559
  92.9747086 156.5407715  15.6742783  94.0494919 156.6688995  15.5458031
  92.6239471 155.2020569  15.1107082  93.1998215 154.4168701  15.6005535
  91.5872955 155.0334320  15.4023027  92.7744980 155.1210175  13.7013550
  92.6849976 154.2268982  13.3635082  92.4798508 157.7631836  14.8981094
  91.4581451 158.3475647  15.3409348  93.1546478 158.1993103  13.7991180
  94.1047211 157.8779144  13.6801147  92.6341782 159.2627563  12.9127522
  91.9067383 159.8922272  13.4252977  93.7911530 160.0298615  12.2771683
  93.4857407 160.7373047  11.5062342  94.4842529 160.7976074  13.4034567
  94.9296417 160.1311188  14.1420479  95.2178345 161.4890289  12.9888687
  93.7315063 161.4276428  13.8772955  94.6415482 159.0694275  11.6169815
  95.4878845 159.3848572  11.2916813  91.9026031 158.6280670  11.7157812
  91.3169174 159.4299774  10.9889612  91.9614410 157.2673340  11.4773464
  92.5241013 156.6481934  12.0431938  91.2731934 156.7288361  10.3086166
  91.7142105 157.2096863   9.4354725  91.5106201 155.2620544  10.2626734
  91.0961456 154.8318024  11.1743717  90.9327774 154.8255920   9.4479971
  92.9670944 154.7721710   9.9584866  93.7338715 155.0762177  10.6710291
  92.8949280 153.6921692  10.0868874  93.3726349 155.0265961   8.5220690
  93.3594971 156.2069244   8.0458241  93.8473740 154.1449738   7.8026948
  89.7433014 156.9868774  10.3293982  88.9977036 156.7579041  11.3174162
  89.2806778 157.5738220   9.2226658  89.8743668 157.5483398   8.4059753
  87.8672409 158.0024872   8.9756804  87.8247681 158.4274902   7.9728508
  87.0446930 156.6778717   8.6877890  87.7405167 155.9063568   8.3580904
  86.6122742 156.2980652   9.6134586  85.9614487 156.7713013   7.6257377
  84.5649948 156.7945099   7.9243073  83.9516983 156.6566925   6.7309146
  82.8912354 156.6538849   6.5264306  84.9123154 156.5080414   5.7713985
  84.6552963 156.2279663   4.8356662  86.1827698 156.5939178   6.2761273
  87.1196136 156.5558319   5.7401452  87.2634506 158.9856873   9.9480515
  86.0213699 159.0697479  10.0060987  88.1416321 159.7901611  10.5714626
  89.1346359 159.6941986  10.4138823  87.6318970 160.7339020  11.5993929
  87.0109177 160.1341095  12.2647743  88.8408890 161.3243866  12.3966646
  89.4279709 160.4431305  12.6551790  89.3615494 162.0763855  11.8037748
  88.2377243 161.9750671  13.4966850  88.8798676 162.5856781  13.8660088
  86.7523880 161.8975677  11.1060276  87.1145859 162.7640228  10.3019772
  85.6065063 162.0116882  11.7579470  85.4069595 161.3935242  12.5313444
  84.5963745 163.1003418  11.4556808  84.3479233 163.0826569  10.3945169
  83.3019409 162.7004395  12.1766825  83.4124603 162.8283997  13.2534876
  82.5372925 163.4386902  11.9350433  82.8176270 161.2961121  11.9256649
  83.1205750 160.5047913  10.8667574  83.5609741 160.8990173   9.9628563
  82.5531082 159.2664642  11.0012531  82.4772797 158.6179962  10.2306538
  81.9691162 159.0815735  12.2070084  81.4168472 157.9587402  12.8373461
  81.2873688 157.0261841  12.3082170  80.9741364 158.1247711  14.1739464
  80.5745926 157.2583466  14.6799831  81.1787872 159.2892456  14.9463530
  80.9746475 159.3592834  16.0045719  81.7883377 160.3716125  14.2310514
  81.9373779 161.2798309  14.7961378  82.1624298 160.3242798  12.8903265
  85.0313950 164.5366516  11.8351946  84.3086777 165.4970245  11.4569435
  86.1319962 164.6482544  12.5329714  86.6105499 163.7773590  12.7136078
  86.7033920 165.8345184  13.1816654  86.2344589 166.7272339  12.7678194
  86.3314285 165.7479248  14.6503181  86.7530670 164.8472595  15.0965490
  86.8354340 166.5036621  15.2527647  84.8534088 165.8284760  15.0089455
  84.1860428 167.0402527  14.7841740  84.7028503 167.9166412  14.4218922
  82.8815460 167.1514740  15.1716566  82.3860474 168.0927429  14.9848166
  82.1299896 166.1396027  15.7444191  81.1112366 166.3049927  16.0625210
  82.7366333 164.8763428  15.8037481  82.1921692 163.9599762  15.9776707
  84.1039200 164.7080078  15.4406090  84.4809265 163.6959534  15.4426489
  88.1841583 166.0117493  12.8877563  89.0382385 165.5469971  13.6679649
  88.6104660 166.6529236  11.7696638  87.7621918 167.1125488  10.6964054
  87.2857513 168.0483856  10.9884882  86.9479218 166.4328308  10.4453087
  88.6483765 167.3699493   9.4894867  88.3171997 168.1508636   8.8049412
  88.7810211 166.4671631   8.8932610  89.9969177 167.6810455  10.1252337
  89.9998169 168.7593994  10.2841024  90.8616486 167.5379944   9.4772530
  90.0576096 166.8320312  11.4091082  90.4921036 165.8580322  11.1840134
  90.9417267 167.3609161  12.4685736  90.6411133 168.3886414  13.1405182
  92.1718140 166.8990936  12.5916967  92.3515854 166.2386627  11.8489799
  93.1635437 167.2452393  13.5894756  94.1207199 166.8051300  13.3097916
  93.2250443 168.3294525  13.6832056  92.9458008 166.6814575  14.9599752
  93.4910431 167.2352600  15.9257040  92.0653458 165.7008362  15.1303730
  91.4538956 165.4535370  14.3654776  91.8651047 164.8938141  16.3422031
  92.5645523 165.1296082  17.1442490  90.4592438 165.1712036  16.9391785
  89.7691193 164.8687897  16.1515369  90.3282166 164.5747223  17.8420372
  90.2283859 166.6659851  17.2970486  90.6399765 167.1705780  18.5481472
  91.0096054 166.5621948  19.3603306  90.3816681 168.4891357  18.8016090
  90.7350769 168.8906250  19.7398586  89.6970062 169.3697510  17.9689980
  89.5275345 170.7095947  18.3214989  89.9459534 170.8964386  19.1650715
  89.2696609 168.8821259  16.7492714  88.7623672 169.5143890  16.0356083
  89.5304871 167.4925079  16.4098415  89.1620941 167.0148468  15.5140114
  91.9821625 163.4043579  16.0104790  91.6598434 162.8953094  14.9506674
  92.3895874 162.6310730  17.0767937  92.6825104 163.0363617  17.9543095
  92.2602844 161.1732330  17.1598549  92.1206894 160.7068939  16.1845856
  93.4664993 160.6110687  17.8405647  93.4915924 160.9554901  18.8744164
  93.2270813 159.5484009  17.8016987  94.3800354 160.9298859  17.3386612
  90.9854431 160.8749542  17.8992119  90.6956024 161.5274200  18.9068165
  90.1290741 159.9512787  17.4670677  90.3862686 159.3532562  16.6948547
  89.0254822 159.3313599  18.1969414  88.6317062 160.1046448  18.8565407
  87.9103699 158.9184418  17.1811218  87.0778351 158.5386047  17.7733383
  87.5512466 159.8120728  16.6706753  88.2162628 157.9641113  16.0578785
  88.2636337 158.3200684  14.7718391  88.2473373 159.3187866  14.3610868
  88.4743729 157.1552124  14.0760574  88.6611938 157.0989532  13.0850830
  88.6038055 156.0162506  14.8243589  88.9275818 154.6775818  14.4881163
  89.2098083 154.3395996  13.5019569  88.8417053 153.7216492  15.5379343
  89.1642761 152.7070312  15.3565807  88.3940353 154.1375885  16.8613205
  88.4276962 153.3805389  17.6308270  88.1620941 155.4989014  17.1504059
  87.9078674 155.7225952  18.1759434  88.2893143 156.4641876  16.1510887
  89.5635452 158.0751343  19.0134068  90.5005798 157.4105225  18.5956879
  88.9618530 157.8028564  20.1789303  88.4441299 158.5864868  20.5503693
  89.3411102 156.5832062  21.0029945  89.6169052 155.8103790  20.2855072
  90.5548019 156.9456482  21.8278313  91.3191223 157.2674866  21.1204815
  90.4714355 158.1163330  22.7806606  89.7645645 157.8340912  23.5609055
  91.4778290 158.1725159  23.1955299  90.1501160 159.0697632  22.3613586
  90.9213867 155.7443848  22.4516392  91.5870285 155.8293304  23.1381588
  88.0957718 156.1296844  21.8563156  87.3209305 156.9376831  22.4179211
  87.7475967 154.8129120  21.7182713  88.4674530 154.2434845  21.2967682
  86.4608154 154.2712402  22.0236130  85.7208328 154.8634949  21.4853249
  86.3616943 152.8475342  21.5537796  86.8854446 152.1183777  22.1719494
  84.8084412 152.5232086  21.4875679  84.2024231 153.2239380  20.9132748
  84.6723938 151.4626312  21.2760372  84.4789200 152.6334839  22.5207005
  86.8894577 152.4917603  20.1452389  86.3851852 153.0785370  19.3774509
  87.9335632 152.8015900  20.1009979  86.9032364 151.0279999  19.7851105
  85.8699493 150.6927032  19.6956711  87.4314346 150.8884430  18.8419075
  87.4732895 150.4373779  20.5022678  86.1236343 154.4923248  23.4764557
  86.8499069 154.1534882  24.3659382  84.8815613 154.9679260  23.7532921
  84.3393707 155.2785339  22.9597893  84.2903900 155.1735992  25.1077824
  85.1239548 155.1014709  25.8064079  83.7750931 156.6110687  25.1915646
  83.0481644 156.8090057  24.4038448  83.4521942 156.7379608  26.2248764
  84.5386047 157.3601685  24.9817467  83.1915817 154.1407318  25.4478283
  82.2900314 153.8746490  24.6565514  83.1958694 153.5377350  26.6546955
  83.9495697 153.7481995  27.2932472  82.1991043 152.6073608  27.2117405
  81.3021469 152.7362976  26.6059895  82.7446060 151.1697998  27.2140045
  83.7078171 151.1589508  27.7241192  82.0803833 150.4923248  27.7505951
  83.0767822 150.5910339  25.8106709  82.1673737 150.6575012  25.2134609
  83.8628006 151.1977692  25.3610630  83.7464523 149.2711182  25.9224949
  84.9398270 149.1909027  25.9708061  82.9568558 148.2096863  25.9350605
  83.4164658 147.3111115  25.9729462  81.9469452 148.2109528  25.9220257
  81.7232437 153.0795746  28.5712090  82.4662933 153.7527771  29.2658920
  80.5066986 152.6592102  28.9799442  79.8486710 152.1775360  28.3840523
  79.9842606 152.9078369  30.3346252  79.9290161 153.9761353  30.5438576
  78.4605560 152.5540466  30.3657722  77.9888077 153.0103149  29.4954987
  78.3554764 151.4904633  30.1516953  77.7552567 153.0382843  31.9579716
  76.6621933 152.2772980  32.0629044  80.7257233 152.1278076  31.4381599
  81.1499710 150.9782410  31.2635002  80.9531784 152.7626648  32.6134682
  80.5974350 153.7048035  32.6902924  81.7584000 152.2463837  33.7755661
  82.6141281 151.6820679  33.4049377  82.3192215 153.3808899  34.6090393
  82.8934174 154.1078033  34.0345917  81.4768677 153.8257294  35.1388054
  83.2478333 152.9041595  35.7489204  82.6548080 152.2449799  36.3828888
  84.0656967 152.2645569  35.4170761  83.8977127 154.0629578  36.4493141
  83.1193085 154.6554565  36.9300766  84.5145645 153.7537384  37.2930984
  84.7447739 154.8246918  35.4935150  85.0712509 154.2803650  34.7078819
  85.4334717 155.9965057  35.6708221  85.4448090 156.7040253  36.8021584
  84.9743347 156.4038086  37.6439514  85.8916168 157.6098022  36.7945213
  86.1533737 156.4537506  34.6988182  86.2346191 155.8986359  33.8589706
  86.9042435 157.1012421  34.8913193  81.0402832 151.1276855  34.5306854
  81.6865921 150.2390137  35.0810738  79.6697464 151.1671753  34.5203400
  79.2371368 151.9930878  34.1320000  78.8063736 150.2190247  35.2675781
  79.3527374 149.8770905  36.1465988  77.5499878 150.9878998  35.8016548
  77.0418930 151.4178925  34.9384918  76.5311661 150.1776123  36.5704155
  76.9581680 149.5794678  37.3753929  75.7656250 150.7888031  37.0484314
  75.9430389 149.4839783  35.9695320  78.0472488 152.1699524  36.7338219
  78.4801788 153.0115051  36.1930313  77.1588364 152.5132294  37.2638969
  78.9373474 151.7819214  37.8859863  79.9224777 151.5400848  37.4870796
  78.9633179 152.5804291  38.6274872  78.5884781 150.9279022  38.4665375
  78.3627930 148.9735413  34.4837875  77.9050064 147.9541779  35.1041832
  78.3720932 149.0774994  33.0976372  78.6014557 149.9602356  32.6637421
  77.7469025 148.0838013  32.2549133  77.6573944 147.1340179  32.7821884
  76.3168488 148.5090790  31.9448223  75.8032379 147.6189575  31.5815067
  75.7989197 148.7930908  32.8608932  76.1705399 149.8044281  30.7096672
  74.9055328 150.1034851  31.0182343  78.5142746 147.6309814  30.9980183
  78.0815506 146.6439667  30.4402008  79.6105499 148.3327789  30.5442753
  79.8588257 149.1198273  31.1265354  80.3431015 148.1725769  29.2826576
  81.2897873 148.7106323  29.3313789  80.6349411 147.1226807  29.2572803
  79.6049271 148.4702454  27.9698353  80.0653992 148.0619507  26.9036999
  78.4619217 149.2032928  27.9977646  78.0258102 149.4178314  28.8831406
  77.7298737 149.5951996  26.7529793  77.6323166 148.7715912  26.0456963
  76.3101044 150.1600037  27.0446129  75.7313843 149.4672241  27.6555576
  76.4530945 151.1409149  27.4978809  75.6108704 150.3840942  25.7300301
  75.5452805 149.5289917  24.9070587  74.9265747 151.5198975  25.6200809
  74.6530685 151.7228546  24.6692352  74.8731766 152.2567902  26.3087406
  78.6103363 150.6045837  26.0043964  79.1916580 151.4941864  26.6209641
  78.7192688 150.4768372  24.6818562  78.2184753 149.7000427  24.2745514
  79.3365936 151.5172424  23.8213940  80.3714447 151.6058197  24.1520824
  79.3520660 150.9853058  22.3807907  79.9578857 150.0864105  22.2664146
  78.3566437 150.7777405  21.9881649  79.8921051 152.0224152  21.4515247
  79.0817795 152.7804871  20.5991421  79.9136505 153.7187805  20.0471478
  79.4613571 154.4673309  19.4135056  81.1806183 153.5437164  20.4798508
  82.0129471 154.0554962  20.2240829  81.1634064 152.4819794  21.3943481
  82.0041504 152.0897675  21.9472675  78.6007156 152.9199677  23.8883038
  77.4166565 153.0659027  23.6748924  79.3514328 153.9992065  24.0541916
  80.3550415 153.8992920  24.1079330  78.9355164 155.3920441  24.2958946
  77.8546219 155.3803711  24.1558094  79.1190109 155.7987366  25.6990509
  80.1818848 155.9305115  25.9016533  78.6591034 156.7654724  25.9040546
  78.5714035 154.9018555  26.7977638  79.1292038 153.9698792  26.8893452
  78.6222916 155.3841553  27.7739296  76.7834167 154.4505157  26.6403542
  75.9590530 156.0473328  26.8611870  76.4248505 156.7554169  26.1758022
  74.9177399 156.0050201  26.5418568  76.1164856 156.3286743  27.9024200
  79.4772034 156.4129181  23.3156395  79.0574951 157.5495148  23.3588543
  80.3244858 155.9407196  22.3599739  80.4973602 154.9457703  22.3435249
  80.9211578 156.8228912  21.3939228  80.6612244 156.4578247  20.4003105
  80.5421677 157.8383636  21.5091972  82.3714905 156.8796082  21.5728245
  83.0286255 155.8346405  21.8144550  82.9590683 158.0617371  21.3864727
  82.3284302 158.7904358  21.0841579  84.4534149 158.2398071  21.3482895
  84.9301605 157.4398041  21.9146881  85.1122971 157.9985809  19.9633236
  84.8755798 158.8659668  19.3471107  86.1895828 157.9751434  20.1276379
  84.6143265 156.8330841  19.1809635  85.2554779 155.6175385  18.9708233
  86.2984238 155.4790344  19.2147102  84.4904251 154.6685638  18.4055023
  84.7925568 153.7520752  18.1074429  83.2024536 155.2085419  18.1215649
  81.9804764 154.7214050  17.6115856  81.8361435 153.6714630  17.4037533
  80.9717026 155.6687775  17.3503838  80.0605850 155.3071899  16.8970394
  81.1044235 157.0794525  17.6077557  80.2732010 157.7606964  17.5009518
  82.3104095 157.5856934  18.1590328  82.5158463 158.6221008  18.3827629
  83.3585663 156.6242676  18.4256248  84.9218674 159.5220490  22.0347538
  84.2508621 160.5503845  21.8792782  86.0358276 159.4200287  22.8095512
  86.4603958 158.5151367  22.9544621  86.8317108 160.6050873  23.2204342
  86.1642075 161.3392487  23.6716061  87.8272247 160.2185974  24.3482609
  87.2283936 159.6985321  25.0959358  88.5859299 159.4901428  24.0622368
  88.4908371 161.4579163  24.9933281  89.0780640 162.0416412  24.2844315
  87.7128754 162.0767517  25.4404659  89.2691727 161.0388947  26.2633171
  88.6202164 160.4747009  26.9331169  90.1359787 160.4417267  25.9802303
  89.6599197 162.2689667  27.1752300  90.0397873 163.0786438  26.5521641
  88.8187943 162.7081299  27.7116470  90.6403580 161.8361511  28.2333946
  91.5623398 161.7545776  27.8291645  90.7368469 162.4401245  29.0371342
  90.4309158 160.8951874  28.5347652  87.5812759 161.1463623  21.9725704
  88.1151733 160.2888184  21.2249336  87.7726974 162.4604340  21.8774242
  87.2070923 163.1419220  22.3629875  88.5919037 163.0754700  20.8465595
  89.0635529 162.2683105  20.2860889  87.7685471 163.8803253  19.8365765
  87.0818863 164.5499725  20.3544331  88.4406662 164.4754944  19.2184067
  86.9382477 163.0491943  18.8591728  87.3263931 163.0053406  17.4631386
  88.1767349 163.5386047  17.0644493  86.4377136 162.3287506  16.6124535
  86.6190720 162.1677856  15.5600271  85.2802734 161.6990356  17.0752468
  84.7476578 161.0286102  16.4170265  84.8737793 161.8099365  18.4109287
  83.9910736 161.2618713  18.7056236  85.7181473 162.5240631  19.3089390
  85.3873978 162.5566559  20.3365345  89.6937180 163.9100342  21.5326786
  89.4698334 165.0700226  21.8809109  90.9165878 163.3795166  21.6151810
  91.0348969 162.4633789  21.2067623  92.1334610 164.0924530  22.0194397
  91.8309402 164.8486328  22.7438488  93.1330643 163.1585846  22.7539692
  94.0643005 163.6707916  22.9959145  92.4829102 162.6941376  24.0953407
  91.5392685 162.2124329  23.8391876  93.0915604 161.9461975  24.6035061
  92.1686172 163.5323792  24.7171726  93.4382858 161.8948212  22.1535091
  93.9045868 162.2098999  21.3757648  92.8608398 164.6400299  20.7829056
  92.7102814 164.1120300  19.7247543  93.4290466 165.8384094  20.8916931
  93.4515305 166.4142303  21.7211685  94.1021957 166.4933167  19.7745781
  93.4265747 166.4906311  18.9192219  94.2469025 168.0125275  20.0404968
  94.7784805 168.2100983  20.9713535  94.6813965 168.4808655  19.1573315
  93.2759857 168.5078735  20.0475044  95.4209747 165.7722778  19.4394283
  96.1600723 165.3252869  20.3213749  95.7832794 165.7738342  18.1321316
  95.1336823 166.1221008  17.4416046  97.1126175 165.3122101  17.6253490
  97.5297318 164.5888977  18.3260117  97.0079117 164.7108002  16.1974201
  98.0322418 164.6560516  15.8288364  96.2957916 163.4223938  16.1940536
  95.2430344 163.5996094  16.4140549  96.3172989 162.9592590  15.2075691
  96.6594391 162.8202820  17.0267220  96.2732773 165.6003876  15.3346510
  96.3834763 165.3131409  14.4252844  98.1547470 166.4093170  17.5646973
  99.2303314 166.2051392  18.1400852  97.9134903 167.5483704  16.8685417
  97.0352936 167.5265350  16.3701458  98.7319565 168.7588348  16.9122314
  99.7860947 168.4923401  16.8354397  98.3036118 169.6884308  15.7215424
  97.2159729 169.7026520  15.6512222  98.8140793 170.6482086  15.8014183
  98.8263016 169.0580292  14.4037504  99.8848572 168.8438110  14.5509348
  98.4729462 168.0390625  14.2457981  98.6854248 169.8844147  13.0868740
  99.0343170 170.8850708  13.3419504  99.3231277 169.4374390  12.3242264
  97.2394791 169.8750458  12.6706772  96.8669815 168.8887024  12.9472265
  96.6960068 170.6096497  13.2648945  97.1557617 170.1309052  11.2414837
  97.5926437 169.4072266  10.6887484  96.1939087 170.0400238  10.9470615
  97.5730209 171.0193787  11.0035686  98.6890564 169.4870300  18.2779312
  97.7100067 169.3715973  19.0413456  99.7021561 170.3208618  18.4838352
 100.4112549 170.2802124  17.7657642 100.1029739 170.8960724  19.8003864
  99.8704758 170.0598145  20.4597225 101.6279755 171.1068115  19.9877300
 101.8268585 171.2473602  21.0501747 102.1921463 170.2694702  19.5770111
 102.1352615 172.3563232  19.2754879 102.0876465 172.2702026  18.1899395
 101.6581879 173.2487335  19.6805687 103.5990829 172.5699005  19.5876160
 103.6395340 172.6355743  20.6748848 104.1899414 171.7495728  19.1801147
 104.1019745 173.8964996  19.0021744 103.5459671 174.6750183  19.5245419
 105.1280136 174.0876770  19.3164864 104.0335236 174.0184784  17.5298119
 103.1040573 174.0866394  17.1405029 104.5847855 174.7836609  17.1682739
 104.3545151 173.1643829  17.0967197  99.2916183 172.1086121  20.2422047
  99.1897812 172.3176727  21.4493809  98.6980896 172.9077301  19.3212070
  98.7666931 172.6390533  18.3500214  98.0751877 174.2139740  19.5982800
  97.9754715 174.3799591  20.6709423  98.9746475 175.3611450  19.0867767
  98.4849243 176.3142090  19.2866364  99.9124222 175.4168243  19.6395721
  99.3008499 175.3757782  17.5793762  99.2478790 174.3181763  16.9335518
  99.5495224 176.5155640  16.9951687  96.6402206 174.2610779  19.2406349
  96.1204834 175.3829498  19.1158733  95.8674164 173.1717377  18.9694729
  96.1949844 172.2303162  19.1323681  94.4201813 173.2197266  18.7643318
  94.2471542 174.1385651  18.2040462  93.9427032 172.0572052  17.8650360
  94.0497360 171.0730133  18.3211174  92.8967514 172.2427979  17.6208191
  94.7436600 172.0949707  16.5781002  94.3812485 172.9331970  15.9830217
  95.8173676 172.0780182  16.7650700  94.4635162 170.6137695  15.5212307
  92.8959808 171.0332489  14.7505217  92.9034958 172.1094971  14.5781050
  92.8253555 170.5004883  13.8022165  92.0634689 170.6774597  15.3575163
  93.5618668 173.3114319  19.9586582  93.8643417 172.5649719  20.9038448
  92.5004578 174.1202850  19.9252033  92.3405609 174.6662903  19.0906906
  91.5823822 174.2912445  21.0864639  91.9266052 173.6351624  21.8859444
  91.6802063 175.6612396  21.7410202  92.5521011 175.6477203  22.3950310
  91.8209610 176.4266052  20.9777985  90.5363770 176.0542450  22.5147839
  90.7752228 176.4774017  23.3427315  90.1603775 173.8641205  20.6502552
  89.8126831 174.4441376  19.6389084  89.4390869 172.9649963  21.3317089
  88.0204086 172.7145844  21.1132050  87.7897034 172.4394073  20.0840549
  87.4144669 173.5676422  21.4185390  87.6452484 171.5146484  22.0136566
  87.8297501 170.5312195  21.5812893  86.6105423 171.5842285  22.3492813
  88.5727310 171.6931915  23.1752796  88.8519363 170.7077789  23.5482235
  88.2101135 172.2901001  24.0121307  89.8204727 172.3893280  22.6102409
  90.1595612 173.1862030  23.2721462  90.8953476 171.3168488  22.5129681
  90.9976883 170.6154175  21.5293293  91.7406082 171.1992645  23.5377102
  91.5795212 171.8200378  24.3179607  92.8459778 170.1395721  23.4557667
  93.3399811 170.2837982  22.4949036  93.8408279 170.3440552  24.6542492
  93.9753799 171.4112701  24.8303833  93.2727356 169.9449310  25.4945354
  95.1244278 169.5383148  24.6004887  95.5574799 169.8231659  25.5593586
  94.8500900 168.4841309  24.6397457  96.1972733 169.9441376  23.5340424
  96.0491333 170.9312897  22.8295708  97.2411194 169.1839752  23.4590569
  97.8441162 169.3952637  22.6768475  97.3595428 168.3088226  23.9491463
  92.2493591 168.7211609  23.5483551  92.8986435 167.7464600  23.0573101
  91.0823746 168.5312958  24.2014084  90.6388931 169.3376312  24.6176434
  90.2856445 167.2856293  24.2733440  90.4939270 166.6464386  23.4153481
  90.6930084 166.4705963  25.5492535  90.2710648 165.4689331  25.6314144
  91.7735291 166.3271637  25.5504150  90.2559128 167.0831757  26.8374691
  90.2394409 168.1701965  26.7586250  89.2391357 166.7933197  27.1025314
  91.1950302 166.7487946  28.0427608  90.6777344 167.0612488  28.9498901
  91.3896408 165.6778564  27.9851208  92.5258408 167.4978790  28.0066605
  93.2685089 166.8299866  27.5702438  92.3763351 168.3541260  27.3489513
  93.0223236 167.8854980  29.3413963  93.0193253 167.1438904  30.0270500
  93.9274673 168.3240204  29.2491512  92.5385971 168.7047882  29.6803188
  88.7421188 167.6681213  24.2783146  88.2692032 168.6098175  24.9222679
  87.9222717 166.8040161  23.6744862  88.3547745 166.0209503  23.2056084
  86.4320679 166.7279205  23.7815037  86.1122971 167.0455933  24.7739410
  85.7635880 167.6566162  22.7325268  84.7720871 167.8899536  23.1205597
  86.2730484 168.6195068  22.7698555  85.6065445 167.1646729  21.3270416
  86.7086868 167.3139496  20.4434319  87.5273056 167.9231110  20.7972336
  86.7428055 166.8173370  19.1570377  87.5981445 166.9739532  18.5165119
  85.6748657 166.0764618  18.6924458  85.7020264 165.5838165  17.7317410
  84.5489197 165.9488678  19.4657459  83.7419662 165.3260040  19.1089973
  84.4473801 166.5456238  20.7491913  83.5447617 166.4245453  21.3297253
  85.9206772 165.2874908  23.7324848  86.7008438 164.3344116  23.5909538
  84.6080322 165.1671143  23.7821712  84.0078812 165.9499207  23.9992886
  83.8757706 163.9657288  23.5510960  84.6101379 163.2980194  23.1005783
  83.4008789 163.3079529  24.8341103  82.6680527 163.9700775  25.2952442
  82.8664780 162.3869476  24.6011429  84.3851776 163.1536560  25.9539852
  84.8087616 164.1296387  26.7758312  84.5043488 165.1652374  26.7400494
  85.6574020 163.6095886  27.7384529  86.1785202 164.1682129  28.3991127
  85.7176056 162.2211151  27.7367477  86.2205658 161.3101807  28.6215630
  86.6467209 161.6401978  29.5574455  85.9939575 159.9133911  28.3903866
  86.3672714 159.1183319  29.0188236  85.3984070 159.5566406  27.2008133
  85.1412506 158.5213318  27.0322151  84.9439926 160.5481873  26.2914619
  84.4221573 160.1211395  25.4478264  85.0407104 161.9226532  26.4955254
  82.7674179 164.0015869  22.4958286  81.9868469 164.9342804  22.4429131
  82.7951279 163.0497894  21.5384521  83.4635010 162.2938385  21.5822392
  81.6854477 162.7629395  20.6766796  80.9321060 163.5507050  20.6806030
  82.0039597 162.6190186  19.6442375  80.8681259 161.4817200  21.1024780
  81.3094330 160.3806610  20.8336372  79.7622757 161.6912994  21.8489361
  79.5017624 162.6367035  22.0906620  78.8758774 160.7205200  22.5068893
  79.4426956 159.7909546  22.4546928  78.6544342 161.0918884  24.0294590
  77.9547577 161.9269409  24.0646896  78.2415466 160.2538605  24.5909939
  79.9763336 161.4012604  24.7624111  80.4893570 162.2196503  24.2572880
  79.6681976 161.7888031  26.1597919  79.5144424 160.9137573  26.7912693
  80.4912109 162.3659058  26.5813465  78.7846451 162.4262085  26.1936493
  80.9117508 160.1876984  24.8371735  81.1694717 159.8506775  23.8331299
  81.7982025 160.3919067  25.4376812  80.3999710 159.3259888  25.2657185
  77.5700150 160.3706970  21.7121906  76.8838196 161.3284302  21.3710136
  77.2336197 159.1265717  21.6054268  77.6442947 158.4313812  22.2121811
  76.1949692 158.6560059  20.6827431  76.3023300 159.1530457  19.7186260
  76.4589233 157.1855316  20.2050400  75.5074158 156.9623108  19.7224312
  77.6060562 157.0304718  19.2130413  78.5456924 157.2053986  19.7370567
  77.5963440 156.0177917  18.8099728  77.4269409 157.7081757  18.3783302
  76.7142868 156.3817902  21.3183937  76.6647415 155.4502869  21.0915985
  74.8172913 158.8672943  21.2862778  74.3745041 158.1827087  22.1686993
  74.0095215 159.7815704  20.6757374  74.3912201 160.3547974  19.9369450
  72.6724396 160.0883636  21.1764584  72.7560272 160.3474274  22.2319241
  72.0857315 161.3588562  20.5463123  71.2305145 161.5958252  21.1792030
  72.8135986 162.1648254  20.6396008  71.6900253 161.2819214  19.0767307
  72.4466400 161.7605133  18.4549694  71.7249222 160.2260437  18.8083820
  70.3255463 161.8839569  18.7241974  70.2775879 162.9284515  19.0321655
  70.2452164 161.7521667  17.6451778  69.2088928 161.2096100  19.3676109
  69.0071106 161.3724823  20.3437557  68.4287643 160.3491058  18.7077999
  68.4422150 159.9531403  17.4974747  69.0126648 160.3881378  16.7865124
  67.6785736 159.3720551  17.1823597  67.3788986 159.8919830  19.3299675
  67.1245270 160.2519989  20.2386971  66.6541824 159.4649658  18.7709198
  71.6476212 158.9144287  21.0743790  70.5455551 158.9891357  21.5379887
  72.0014572 157.7780457  20.3935680  72.8896866 157.8099823  19.9138508
  71.2782669 156.4930267  20.4431782  70.2172394 156.6054993  20.2203064
  71.8903351 155.5226135  19.4338150  71.6727142 154.4593353  19.5346146
  71.5751877 155.8122406  18.4313641  73.3438797 155.6237488  19.4058952
  73.7222748 154.7792816  19.1504116  71.3465805 155.8638916  21.8817520
  70.4140244 155.2737427  22.3916340  72.4319534 156.1267853  22.6077442
  73.1490631 156.6336823  22.1088219  72.7253189 155.6543732  23.9770355
  72.1381607 154.7530060  24.1527538  74.1576996 155.1842194  23.9463100
  74.7522278 156.0918121  24.0507927  74.4025345 154.6549225  24.8671837
  74.3174438 154.6456909  23.0121918  72.5305710 156.7154694  25.0634193
  72.3694839 156.3582611  26.2204380  72.4601440 157.9605103  24.7387123
  72.4832458 158.1745148  23.7519150  72.2679214 159.0377197  25.6704617
  72.8754425 158.7876282  26.5402145  72.7618561 160.4288330  25.2131004
  72.1920013 160.7423706  24.3384266  72.6148605 161.1254120  26.0385017
  74.3129654 160.5303802  24.9004726  74.5986862 159.8384247  24.1082211
  74.5813217 161.9089050  24.2673378  74.4025879 162.6534271  25.0431328
  75.5765457 161.7596130  23.8486023  73.8870239 162.0784912  23.4443626
  75.2290497 160.4925842  26.1123486  75.0552902 159.5977020  26.7099400
  76.2953491 160.6047668  25.9160728  74.9901199 161.3273621  26.7712517
  70.7907257 159.1602020  26.1298161  69.9021149 158.9804840  25.3274822
  70.5429459 159.4828491  27.4686069  71.3660660 159.6536560  28.0284290
  69.2221451 159.5551453  28.1201248  68.4850388 159.6735382  27.3259258
  68.8890457 158.2574005  28.7373734  69.1415329 157.4375763  28.0648880
  69.5837555 158.1495361  29.5703526  67.4720078 158.1425171  29.2676525
  67.2734451 158.9483948  29.9742146  66.4441833 158.0936432  28.0958672
  66.6008530 157.2986298  27.3668346  65.4845123 157.9907532  28.6023769
  66.4151459 159.0724487  27.6170826  67.3643112 156.7955475  29.9982586
  68.0657425 156.6885681  30.8257008  66.3850708 156.7014313  30.4676399
  67.5747528 155.9677887  29.3210430  69.0954819 160.7530060  29.0538769
  69.6899948 160.7677002  30.1555729  68.3275070 161.8792725  28.6688175
  67.9290848 162.0896912  27.3115044  67.0483551 161.4745026  27.1272659
  68.7079926 161.9056396  26.5715485  67.6059494 163.5419006  27.1343040
  66.8489685 163.6241913  26.3543625  68.4582596 164.2141418  27.0355606
  67.0839996 163.7966003  28.4982147  66.0249634 163.5434570  28.4484673
  67.1625137 164.8461304  28.7818127  67.8773422 162.9786530  29.4743500
  68.7080917 163.5628967  29.8701077  67.0382843 162.5970459  30.7407990
  65.9917679 163.2125092  30.9319496  67.4567261 161.7017059  31.6258698
  68.2637024 161.1721802  31.3284245  66.9160538 161.4626617  32.9392891
  65.8298721 161.5498657  32.9128838  67.3743896 160.1307983  33.5027580
  67.2421799 159.3249359  32.7808113  68.4441147 160.2691956  33.6596832
  66.6525879 159.8030853  34.8309059  66.7674255 160.6499329  35.5074883
  65.5838547 159.7135925  34.6362190  67.1924362 158.5647736  35.4926796
  68.1926575 158.2740326  35.1715508  67.1474915 158.7771759  36.5608444
  66.3067245 157.3984680  35.2463531  65.8665543 157.4259644  34.3377266
  65.9267197 156.4633331  36.1227722  66.1790695 156.5349579  37.3984985
  66.5197449 157.3945618  37.8048668  65.8390656 155.8355560  38.0429649
  65.3210068 155.3420105  35.6458855  65.1172256 155.1512146  34.6752281
  64.9832458 154.6182098  36.2640533  67.1446075 162.6425323  33.9056015
  66.1661606 162.9912262  34.6358833  68.2211609 163.2992859  33.9458122
