Cpptraj Generated Restart                                                       
   32  4.0000001E-01
  84.0200500 147.6057892  15.9467039  84.0158157 148.7721100  15.6085587
  84.9678192 149.5489960  16.2014713  83.0830765 149.1895905  14.5018148
  85.1317978 150.8267975  15.9670515  82.7878418 150.3233795  14.0043116
  82.1074448 148.4566803  13.9697161  84.4430161 151.8201141  15.2961111
  83.3444595 151.5724335  14.3411303  81.7602921 149.7783203  13.3675985
  81.3570633 148.6033325  12.8396082  84.4906769 153.3424530  15.3297577
  82.7109222 152.7994537  13.7853889  84.2010040 154.6610413  15.1257257
  83.4321365 153.7135773  14.3634577  85.5545731 149.0654297  16.8711414
  84.7854080 155.7731171  14.5687675  84.9346848 156.1905365  13.1653566
  84.9469833 156.8642578  15.2864866  84.8533859 155.4024963  12.2148285
  85.1715546 157.6125031  12.8594484  85.0461578 158.0473328  15.1026192
  85.1665955 158.6925354  13.7770567  85.3417511 159.8679199  13.4963379
  85.2370834 157.7941895  11.8648281  80.5266495 148.8740692  13.9229174
  79.1456299 148.8910828  14.3810387  78.5535202 149.9287567  15.1416817
  78.2095490 147.8053589  14.0968943  77.4256668 149.7971802  15.6133900
  76.9994125 147.8738098  14.4255753  76.6482010 148.9523163  15.0131645
