Cpptraj Generated Restart                                                       
 6222  4.0000001E-01
  89.9525757 181.0501251  24.4131393  90.9214172 181.0917358  24.1308098
  89.9739380 180.1621857  24.8939972  89.7213287 181.7525482  25.1010628
  88.9806595 180.9105530  23.2124043  87.9658585 180.8151703  23.5986404
  88.9916534 182.2170105  22.3800697  89.9863663 182.4113464  21.9789696
  88.2966995 182.0598145  21.5551872  88.4274292 183.4608765  23.1835327
  87.3387222 183.4814911  23.1345062  88.5839539 183.3392944  24.2553596
  89.0435257 185.0559845  22.6767025  88.1040268 185.5456085  21.1316090
  87.1532211 185.9116974  21.5189400  88.5835342 186.3509979  20.5752659
  87.8317795 184.7476959  20.4407272  89.3155365 179.6129456  22.3759727
  90.4531555 179.0747681  22.3333435  88.2415543 179.0761566  21.7583008
  87.3948669 179.6266174  21.7432709  88.3199463 177.9571228  20.7568073
  88.9350967 177.1557617  21.1660709  86.9294510 177.3209381  20.5755730
  86.1281662 178.0597839  20.5629368  86.7963257 176.5240936  19.2804947
  87.5335770 175.7223663  19.2379551  85.8586807 175.9692383  19.2478333
  86.8796082 177.1614990  18.4002247  86.6798477 176.3915710  21.7819786
  85.8197021 175.7582550  21.5648289  87.5455170 175.7327423  21.8502159
  86.2673492 177.0649719  23.1035671  85.3502197 177.6341248  22.9517918
  86.0223541 176.3051605  23.8456955  87.0627365 177.6718597  23.5361691
  89.0574036 178.4933929  19.4674377  88.9086151 179.6608582  19.1142006
  89.6668701 177.5989838  18.6994629  89.7606201 176.6425476  19.0101280
  90.3920059 177.9362640  17.4161911  89.9164658 178.7840881  16.9230804
  91.8956604 178.3099060  17.6450787  92.3837128 178.9264679  16.8902569
  91.8603897 179.0769348  18.4187260  92.8829651 177.2334595  18.0817757
  92.6385498 176.0727844  17.8531189  93.9409943 177.6039581  18.7570362
  94.6193619 176.9121399  19.0421753  94.1986542 178.5794067  18.8042603
  90.1966400 176.8195038  16.4071217  90.5009918 177.0829620  15.2427111
  89.5781174 175.6640015  16.6968765  89.5165558 175.4343414  17.6784916
  89.0592499 174.7495270  15.6533270  89.9052582 174.2937164  15.1389246
  88.1572800 173.6766357  16.2252483  88.7201309 173.2133026  17.0355701
  87.2956696 174.1869049  16.6557808  87.6734009 172.6742859  15.2678280
  88.5534973 171.7416077  14.6421442  89.6257095 171.8437500  14.7217226
  88.0008163 170.6171417  13.9117355  88.5945282 169.9126282  13.3482151
  86.6182556 170.3692627  13.8675222  86.1461105 169.5188141  13.3982553
  85.7640076 171.3323517  14.5175190  84.6912231 171.2089539  14.5352268
  86.2693710 172.5053558  15.1634617  85.6323853 173.2111816  15.6757689
  88.1552658 175.5018005  14.6274757  87.2877731 176.2615967  15.0048752
  88.3695526 175.3617859  13.3365202  88.9911041 174.6105957  13.0729151
  87.4962616 175.9652252  12.3010597  87.2307510 176.9850769  12.5794754
  88.2421494 176.0379791  10.9865713  89.1708603 176.5886078  11.1362133
  88.6322021 175.0708008  10.6695242  87.4356308 176.6176453   9.8241854
  86.3976135 177.2144012  10.1064043  87.8955231 176.4199829   8.6402245
  86.1861496 175.2380371  12.2172375  86.0670853 174.2328339  11.5176067
  85.1791458 175.7003784  12.9842033  85.3436432 176.5233459  13.5461473
  83.8756332 175.0497894  13.1384802  84.0575943 174.0924530  13.6268263
  82.9931793 175.7908020  14.1758747  82.0804443 175.2230377  14.3566151
  83.6239243 175.9510193  15.5449305  84.4021454 176.7102661  15.6224375
  82.8526306 176.1440430  16.2905464  84.0628662 174.9740295  15.7472172
  82.6896057 177.1710510  13.7981987  82.0057907 177.5189819  14.3752069
  83.0095673 174.7991638  11.8623896  81.9283371 174.2328644  11.9025440
  83.4462280 175.2317200  10.6772728  84.3585434 175.6602936  10.6132727
  82.9257278 174.7550201   9.4294214  81.8482895 174.6069489   9.5022058
  83.1155396 175.9124908   8.3528948  82.4831619 175.5767212   7.5310354
  82.7860641 176.8998413   8.6764441  84.4282150 176.0039215   7.9683595
  84.8298950 176.7068024   8.4843140  83.4525223 173.4106750   8.8902988
  82.8782883 172.8117828   7.9779530  84.5760803 172.8856354   9.4422121
  85.0740051 173.5267639  10.0431433  85.2119217 171.5856476   9.0505667
  85.3800507 171.5355072   7.9747782  86.5637665 171.4702911   9.6929083
  86.4505386 171.6997986  10.7524414  87.0769272 170.5151520   9.5812254
  87.5892334 172.4675903   9.1530170  87.2266693 173.4872894   9.2828541
  88.8159866 172.3679504  10.0644531  89.2650146 171.4389343   9.7131739
  89.5432892 173.1749268   9.9753723  88.5627975 172.2984924  11.1223612
  88.0965652 172.3049622   7.7152629  87.2425308 172.1591644   7.0538478
  88.5119171 173.2326355   7.3215542  88.7674179 171.4459229   7.7044964
  84.3779678 170.2938690   9.2264862  84.7061920 169.2890930   8.5468950
  83.4565125 170.2089539  10.1685867  83.5215912 170.8630829  11.4809027
  83.0007858 171.8176727  11.4059191  84.5794678 171.0021515  11.7037096
  82.8124466 169.9849854  12.4620380  82.2331238 170.6525269  13.0999041
  83.4995422 169.3504028  13.0217829  81.8955612 169.0762177  11.6126175
  80.9827118 169.6628876  11.5096149  81.6675110 168.1021423  12.0453739
  82.5205383 169.0453949  10.1993179  83.1738586 168.1787872  10.0980749
  81.5174637 169.0451508   9.0191936  81.2073822 167.9623718   8.4464121
  80.9641800 170.2071533   8.6724644  81.3037109 171.1058655   8.9841280
  79.7574615 170.2799835   7.8023963  79.1302261 169.4184875   8.0314941
  79.0367126 171.6133728   7.9150534  78.0731125 171.5352783   7.4115920
  78.7488098 172.0883484   9.3158598  79.6961060 172.2532196   9.8292303
  78.0340881 172.9094543   9.3711634  78.2452240 171.3079834   9.8864040
  79.7820435 172.6750336   7.3830962  79.1197510 173.3379517   7.1745024
  80.0775070 170.0920258   6.2889271  79.1725388 169.8388977   5.4782653
  81.3312531 170.1630402   5.9066229  82.0106583 170.5427856   6.5502939
  81.8877182 169.7483978   4.6301670  81.1328430 170.1322174   3.9439123
  83.1772156 170.4531097   4.4123344  83.6647034 170.1200714   3.4960690
  83.0046463 171.5269623   4.3404937  83.9773407 170.3330688   5.5322347
  84.4241333 171.1530762   5.7548642  81.9827271 168.2248993   4.5561314
  81.9942627 167.7343292   3.3736641  81.9586411 167.4545288   5.6562176
  81.8873367 167.9419250   6.5379519  82.0606918 165.9822235   5.6704850
  82.3069839 165.7644806   6.7097311  80.6611176 165.3841400   5.3976259
  80.3460922 165.7881165   4.4355097  80.7914200 164.3021393   5.3783741
  79.6657715 165.6606445   6.4601383  79.7239075 165.1525421   7.7434559
  78.7229538 165.7568054   8.3823404  78.5911789 165.6912384   9.4522648
  78.0429459 166.6185608   7.5841236  77.2145081 167.0871429   7.9220796
  78.6888580 166.6190186   6.3510504  78.3522110 167.1215668   5.4563313
  83.1832962 165.3783112   4.8563337  83.0312500 164.3789215   4.1505589
  84.4526520 165.9216766   4.9838748  84.5713654 166.7058411   5.6092582
  85.6767197 165.5352936   4.2618814  85.5409317 165.7368317   3.1993148
  86.8249435 166.4135132   4.8731875  86.8227463 166.2619781   5.9526005
  87.7678299 166.0625458   4.4538169  86.6003952 167.9336700   4.4765921
  86.9938278 167.9034424   3.4605217  85.5295029 168.1156921   4.3862667
  87.2995911 169.2174683   5.5959978  88.9966431 169.1475067   5.0411320
  89.1061401 168.9320679   3.9782624  89.5693283 170.0082092   5.3865542
  89.3964386 168.2743225   5.5567131  85.9943848 164.0448608   4.3139763
  86.5776215 163.4852448   3.4058418  85.6124268 163.3882599   5.3984704
  85.0900116 163.9027100   6.0931187  85.9904785 162.0045319   5.6777520
  87.0794220 162.0427704   5.7068143  85.6822586 161.7121429   7.1126885
  85.9488449 160.6783752   7.3325329  86.2189484 162.3739624   7.7924480
  84.1851883 161.7967072   7.3614254  83.6138992 163.0502319   7.6630964
  84.1685257 163.9720612   7.7582064  82.2417755 163.1439819   7.8634892
  81.9101028 164.1042633   8.2298689  81.3865891 162.0454865   7.6836748
  80.1026382 162.1478119   7.9805179  79.9039841 163.0859070   8.0266895
  81.9524460 160.7727814   7.4601455  81.2817688 159.9269409   7.4264579
  83.3955460 160.6352081   7.2588425  83.7832413 159.6390839   7.1044674
  85.3482513 160.9744720   4.8037801  85.9259262 159.8895416   4.6648340
  84.1404037 161.2573090   4.1533852  83.7855453 162.1448517   4.4796429
  83.4111099 160.5244751   3.1678402  83.4001694 159.4572144   3.3890224
  81.9356995 160.9791412   3.1605582  81.5092163 160.7022247   4.1246800
  82.0360107 162.0619659   3.0861018  81.0658112 160.4543304   2.0102670
  81.5401077 160.6102295   1.0413245  80.7145386 158.9828033   2.2502153
  80.1257172 158.9071198   3.1643620  80.0430374 158.6525116   1.4576917
  81.6498947 158.4231415   2.2485030  79.7417297 161.2635040   1.9941112
  79.9599380 162.3313446   2.0087323  79.2161179 161.1021729   1.0529408
  79.1321106 160.9352722   2.8359635  84.1659088 160.7517548   1.8509213
  84.3022156 159.7922363   1.0799676  84.6512604 161.9714355   1.6423950
  84.5437622 162.6896973   2.3442731  85.5447311 162.3109283   0.5322745
  86.5556870 162.3660278   0.9360357  85.5215683 161.5652618  -0.2624265
  85.3393784 163.6277924  -0.1841803  84.2836380 164.2489929  -0.0679182
  86.4237442 164.1606598  -0.7508264  87.2225113 163.5499115  -0.8459986
  86.3611526 165.3486176  -1.6049998  85.5122833 165.9632721  -1.3054875
  87.7261047 166.1525879  -1.3407905  87.5783463 167.1188354  -1.8230982
  87.8492508 166.2677917  -0.2639130  88.8953323 165.4538727  -1.8023165
  89.6510239 166.0334625  -1.6814196  86.1925888 164.9350433  -3.0927203
  86.1517334 163.7537689  -3.4719272  86.0917816 165.9295807  -3.9494193
  86.4645157 166.8286285  -3.6794181  85.8950653 165.7222595  -5.3647418
  85.6693649 166.6860352  -5.8211436  87.2537155 165.2633057  -6.0375233
  88.0851059 165.8017273  -5.5825534  87.4648743 164.2289429  -5.7662430
  87.2523270 165.4736481  -7.5601988  86.6856079 166.4598541  -8.0683765
  88.0587006 164.7424622  -8.2392683  84.6383362 164.8306122  -5.8036151
  84.7918549 163.8451691  -6.4985976  83.4946899 165.1852264  -5.3111391
  83.4213638 166.0238953  -4.7531447  82.1480865 164.6575928  -5.6857147
  82.2688675 163.6115570  -5.9673476  81.2568130 164.6263123  -4.5146899
  80.9711838 165.6596069  -4.3176570  80.3331985 164.0876770  -4.7266316
  81.9198151 163.9655762  -3.2342021  82.4440079 163.0454559  -3.4924843
  82.7037354 164.6073608  -2.8320930  80.8505478 163.7540588  -1.7828847
  79.8160172 162.3099365  -2.2885728  80.4370193 161.4144592  -2.2641768
  79.0029297 162.1875305  -1.5730292  79.3719788 162.4944458  -3.2667794
  81.5902023 165.3605957  -6.9353681  82.0170441 166.4933472  -7.3273172
  80.5065155 164.8042145  -7.5800028  80.2154312 163.8641357  -7.3528352
  79.5924835 165.5878296  -8.4027176  80.1320419 166.4248657  -8.8458443
  78.9991531 164.6697540  -9.5250397  79.8282471 164.1829987 -10.0386305
  78.5684052 163.7686005  -9.0885782  78.0183792 165.3139038 -10.5139008
  77.0902481 165.6110840 -10.0256882  78.4072952 166.2371674 -10.9433594
  77.6291122 164.3568420 -11.6408958  77.8810120 163.1105652 -11.6011772
  76.9899673 164.7986298 -12.6326418  78.5839920 166.3231659  -7.4975219
  77.9570465 165.6964417  -6.6003799  78.3162994 167.6387177  -7.7563982
  78.8116150 168.0750427  -8.5208492  77.1865082 168.3666229  -7.1338024
  76.9705353 167.8090668  -6.2224336  77.5657043 169.7382660  -6.6109042
  78.0511627 170.2775116  -7.4243197  76.7138138 170.2404480  -6.1524367
  78.7102814 169.6675110  -5.5410829  78.4532623 168.9248199  -4.7857938
  79.6773987 169.3768921  -5.9513693  79.0133820 171.0052795  -4.8310947
  78.1297913 171.8062744  -4.4091392  80.2146072 171.2245941  -4.5896087
  75.9466553 168.5005188  -8.0659676  76.1113052 168.5600739  -9.2734880
  74.7542953 168.4711914  -7.4293089  74.8228149 168.4860382  -6.4217453
  73.4828033 168.8594513  -8.0819998  73.5871887 169.1012115  -9.1397123
  72.3909454 167.8025818  -7.8246069  72.4082870 167.7438812  -6.7363262
  71.4107132 168.2026672  -8.0837688  72.6471558 166.4181824  -8.5010290
  72.4905701 166.2841492  -9.9195499  71.9387512 166.9994507 -10.5113649
  72.9671555 165.1255493 -10.5314407  72.7027817 165.0440369 -11.5754061
  73.4220200 164.0723419  -9.7366905  73.7276688 163.1153870 -10.1331892
  73.4233704 164.1813202  -8.2992907  73.7774353 163.3908234  -7.6541872
  73.0845413 165.3710785  -7.7331252  73.1233673 165.5180664  -6.6638794
  72.8365631 170.1680145  -7.5259023  72.7339249 170.4091187  -6.3087411
  72.5737457 171.0469208  -8.4712944  72.7429810 170.7664490  -9.4266968
  72.1965790 172.4310303  -8.2155762  72.5734863 172.7482758  -7.2432575
  72.8123550 173.3854065  -9.2352810  72.4879379 174.3658600  -8.8866005
  73.8977280 173.4045258  -9.1367664  72.3777466 173.2166901 -10.6749029
  72.8555984 172.1661682 -11.4695711  72.3118591 172.3559570 -12.6723509
  72.5162811 171.6144714 -13.4305182  71.4127808 173.3734436 -12.6672754
  70.9411774 173.6101685 -13.5284672  71.4591980 173.9541626 -11.3944607
  70.8415604 174.7914276 -11.1048117  70.6853104 172.6851196  -8.1390457
  70.2733459 173.4819794  -7.3092284  69.8706741 171.9116211  -8.8672571
  70.3006210 171.0942383  -9.2760801  68.4282532 172.0223694  -8.8613529
  68.1864700 173.0762634  -8.9989452  67.9912262 171.4937897  -9.7085342
  67.8361893 171.4837189  -7.6041870  68.5645447 170.9441528  -6.7382317
  66.5160370 171.7239227  -7.4561820  66.0254745 172.0920258  -8.2586422
  65.7383575 171.4002380  -6.2183795  66.2820969 170.6901398  -5.5953169
  65.5911331 172.7482300  -5.4622774  65.1794510 173.4842529  -6.1528606
  64.9709778 172.4889832  -4.6041980  66.8184280 173.4149780  -4.9427338
  67.5789413 173.4617157  -5.7221761  66.6438446 174.4203491  -4.5595493
  67.4291840 172.7270203  -3.7368233  66.8161087 172.7466431  -2.8357923
  67.4395676 171.6630402  -3.9733164  68.8236923 173.0414276  -3.4166272
  69.5129547 172.6567993  -4.0467739  69.2910919 174.0503540  -2.7318997
  68.6010208 174.9695740  -2.1918828  67.5992126 174.9232788  -2.3116217
  68.9642487 175.7008514  -1.5974236  70.5996552 174.2955933  -2.5656374
  71.2312317 173.7479706  -3.1324923  70.9262161 175.1596375  -2.1571152
  64.3625793 170.7568359  -6.4062905  63.5668526 171.0766602  -7.2797360
  64.0462646 169.8335724  -5.4932175  64.6852036 169.6904297  -4.7242093
  62.8547020 168.9621277  -5.6177397  62.3614082 169.0424805  -6.5864010
  63.3420982 167.4689026  -5.5795436  63.7853737 167.2094269  -4.6181517
  62.2746391 166.3987427  -5.9066033  61.9253120 166.5595245  -6.9265141
  62.6663361 165.3818512  -5.8818398  61.4612885 166.5391846  -5.1946750
  64.3887100 167.3014526  -6.5122008  64.6809464 166.3926544  -6.6135921
  61.8725128 169.2952576  -4.4569507  62.1812515 169.2330322  -3.3091693
  60.6745834 169.7390747  -4.7844567  60.4937477 169.7791901  -5.7773275
  59.4983788 169.9364471  -3.9254124  59.5450020 169.3034363  -3.0392821
  59.3769913 171.3698120  -3.4687541  59.2360878 171.8765259  -4.4234700
  58.4416161 171.4913025  -2.9224780  60.4584618 171.8444824  -2.5356686
  61.4550705 171.6048584  -2.9064038  60.3271866 173.3160706  -2.2796781
  59.3922691 173.5967102  -1.7946264  61.0765877 173.6732941  -1.5733540
  60.3875961 173.8487396  -3.2287433  60.3956070 171.2441559  -1.0992758
  60.4447784 170.1571503  -1.1633148  61.2894325 171.7133789  -0.6881857
  59.5233269 171.6472778  -0.5847592  58.1961098 169.4568634  -4.6150656
  58.1036453 169.5293274  -5.8556342  57.2156601 169.0455627  -3.8008652
  57.5611115 168.9254303  -2.8594136  55.8704071 168.4849701  -4.1556497
  55.8357277 168.4803162  -5.2450914  55.7058144 167.0695038  -3.5545912
  55.7833405 167.1213684  -2.4685888  54.7584190 166.6730804  -3.9198205
  56.7455559 166.0775909  -4.0184531  57.6607513 165.3355255  -3.1874082
  58.4010544 164.6400909  -4.0685916  59.2566071 164.0041504  -3.8953834
  57.9354134 164.7601929  -5.3341055  58.3096962 164.2627411  -6.1294417
  56.9092751 165.6954041  -5.2758493  56.4183426 166.1713867  -6.1118097
  54.7703667 169.4594269  -3.6423473  54.9445190 170.3022461  -2.7462103
  53.5775452 169.3789825  -4.2501521  53.5274658 168.7704163  -5.0546603
  52.3536034 170.1036530  -3.8521075  52.6625938 171.1484680  -3.8837621
  51.2459106 169.8010712  -4.8974409  51.1188431 168.7332764  -5.0756755
  50.3021317 170.1299896  -4.4624844  51.3949547 170.6416473  -6.1893568
  50.8468666 171.8209534  -6.2433262  51.8662529 170.1284790  -7.1982141
  51.8572044 169.7669220  -2.3869560  52.0182953 168.6126251  -1.8931127
  51.3204460 170.7776184  -1.6599243  51.0737267 171.6062775  -2.1819859
  50.9352074 170.6150360  -0.2712283  51.7867317 170.2127075   0.2775217
  50.6147079 171.9136658   0.4507904  49.6925735 172.1974182  -0.0564142
  50.3714180 171.7460938   1.5000000  51.7990189 172.9497528   0.3658590
  52.9844856 172.5941010   0.6070582  51.5475693 174.0931549  -0.0316961
  49.8323898 169.5898895  -0.1193710  48.7485771 169.7041626  -0.6709611
  50.0716667 168.6052551   0.7377087  50.9478073 168.6313171   1.2395014
  49.2911873 167.4283447   1.0705794  50.0326347 166.8680573   1.6401846
  48.0844078 167.8129578   1.9431556  47.6039810 168.6697235   1.4706495
  47.3789330 166.9841614   1.8840711  48.4903755 168.1123352   3.4208972
  48.9669914 167.1549683   4.0989990  48.1004181 169.2432251   3.8188057
  48.8368149 166.5390930  -0.1574151  47.8672791 165.7802887  -0.1422912
  49.5841446 166.6814117  -1.2761757  50.3597298 167.3275757  -1.2439413
  49.5496063 165.7124786  -2.4171371  48.5216103 165.6342926  -2.7709849
  50.2584724 166.3476868  -3.5780172  50.0549278 165.7596588  -4.4729457
  49.8956070 167.3593445  -3.7596238  51.6840057 166.3939972  -3.4484875
  51.9140778 167.1325226  -2.8799453  50.1291542 164.2976990  -2.0055346
  51.1140137 164.2240448  -1.2763592  49.4660072 163.2686462  -2.5038340
  48.5765343 163.4636230  -2.9407923  49.8519478 161.8657837  -2.3284080
  50.3733826 161.8097992  -1.3728573  48.6452103 160.9377136  -2.3173797
  47.9439049 161.3246918  -1.5781085  48.1649895 160.8408661  -3.2910874
  49.2481041 159.2372284  -2.0298753  49.4017601 158.9573669  -3.3271673
  50.9863663 161.4590149  -3.2751002  50.8230095 161.6537170  -4.4364624
  52.0893860 160.8742218  -2.7300529  52.0875015 160.7960205  -1.7230867
  53.3411980 160.6125488  -3.4642811  53.0719490 160.5776367  -4.5199256
  54.3504257 161.7116547  -3.1501365  54.5514374 161.5734711  -2.0877807
  55.2643356 161.4155426  -3.6650980  54.0126877 163.1840515  -3.4331496
  53.1590843 163.6142578  -2.9093280  54.8890419 163.7350922  -3.0918758
  53.8245773 163.4052582  -4.9248123  54.1735725 162.6208649  -5.8464394
  53.3011665 164.5469513  -5.3661017  52.8862267 164.6371460  -6.2825027
  52.8917007 165.1836395  -4.6974854  53.8199883 159.1062317  -3.2156644
  53.4422112 158.5592499  -2.1688211  54.6430130 158.5626678  -4.1042643
  54.9701958 159.1642914  -4.8466263  55.3718834 157.3419342  -3.7917769
  55.1319809 157.1085815  -2.7544286  54.8204460 156.0637665  -4.5277538
  53.7323151 156.1233215  -4.5046778  55.2024765 155.8834839  -6.0222821
  56.2832413 155.9044037  -6.1623335  54.8346405 154.9415894  -6.4292588
  54.7987747 156.7581329  -6.5323105  55.3750076 154.7388611  -3.8957832
  55.0349846 154.7253876  -2.8602626  54.8484688 153.8781586  -4.3081417
  56.4528351 154.6745758  -4.0449610  56.8599052 157.4801025  -3.9073286
  57.2824898 157.9537506  -4.9296894  57.6159592 156.9300995  -2.9081736
  57.1646729 156.4907379  -2.1186106  59.0782928 157.2160492  -2.6823571
  59.4539986 157.4064331  -3.6876955  59.0889015 158.4922791  -1.7804816
  58.7634315 158.1121216  -0.8121573  60.5375710 159.0579224  -1.6552078
  60.7696724 159.6456757  -2.5433364  60.5518227 159.7785034  -0.8374948
  61.3107567 158.3000793  -1.5289471  58.1802597 159.7234039  -2.2828877
  58.5217514 159.8941650  -3.3038311  57.1447372 159.4273529  -2.1151321
  58.3919868 161.0677643  -1.4977183  59.3860207 161.4841461  -1.6609147
  57.7305183 161.8266602  -1.9156370  58.1034737 161.0432739  -0.4468805
  59.8686943 156.0585480  -2.0641942  59.2772903 155.4210968  -1.1666055
  61.1091232 155.6506805  -2.5419419  61.7673569 156.2094116  -3.7074707
  61.9867096 157.2437439  -3.4426355  61.1296616 156.0954437  -4.5840893
  62.9902496 155.3860168  -3.9745231  63.8564529 155.9809265  -3.6849005
  63.1360893 155.0660248  -5.0062351  62.8559036 154.1045837  -3.0858109
  63.7828331 153.6108704  -2.7940011  62.3230438 153.3386841  -3.6493385
  61.9421997 154.6004181  -1.9657992  61.1935234 153.8250580  -1.8032656
  62.6415558 155.0047760  -0.6478781  63.2775002 156.0436096  -0.5149915
  62.5497322 154.0881195   0.3315110  62.0415192 153.2366028   0.1397928
  63.3101120 154.0919800   1.5379550  63.6833115 155.0993500   1.7223883
  62.4825363 153.5090179   2.7598040  62.4500084 152.4313965   2.5992968
  63.1776505 153.7327728   4.0806875  63.2977562 154.7902527   4.3160825
  62.6315765 153.2951508   4.9163899  64.1635437 153.2697601   4.1223788
  61.0155602 154.0589600   2.8735883  60.4593506 154.0920563   1.9367609
  60.4348412 153.5752716   3.6590240  61.0696220 155.0937042   3.2119365
  64.5438156 153.2117462   1.3063488  64.3437424 152.1030426   0.9294831
  65.7808990 153.7231140   1.6842963  65.9546738 154.6650391   2.0047526
  66.9549637 152.8887329   1.7466195  66.8936005 152.1870575   0.9147602
  68.2331619 153.7120667   1.6402584  68.2049561 154.5084991   2.3838987
  69.1076508 153.1434479   1.9565430  68.6925430 154.3688660   0.2619704
  67.8747253 154.9489288  -0.1655958  69.8721771 155.3524475   0.5325489
  70.7151566 154.8683777   1.0256619  70.1575851 155.8592834  -0.3892786
  69.4991989 156.0751038   1.2583252  69.0254974 153.2699738  -0.7285712
  68.1553802 152.9507904  -1.3022615  69.7712936 153.5598907  -1.4687393
  69.3451691 152.3726807  -0.1986973  67.0149307 152.0290833   3.0462573
  67.0518570 152.5662384   4.1435652  66.9730072 150.6780548   2.9719973
  67.0988846 149.8911591   1.7424219  68.0246735 150.1473083   1.2272489
  66.2012100 150.0522003   1.1454741  67.1079559 148.3967438   2.2195032
  68.1469421 148.1145935   2.3897979  66.7140503 147.7723999   1.4175440
  66.2603836 148.4363098   3.4927027  66.4530106 147.5772247   4.1353350
  65.2063141 148.3934937   3.2184751  66.5712051 149.8016510   4.0885572
  65.6412277 150.2250061   4.4680624  67.5447540 149.7982025   5.3219333
  67.0687943 149.5480347   6.4412704  68.8411102 150.0463562   5.1489391
  69.1045456 150.2776337   4.2017264  69.7945328 150.2405701   6.2435579
  69.4742126 149.6834412   7.1239600  71.1081924 149.6911469   5.7037172
  71.4464035 150.2255096   4.8159289  71.8301010 149.9110260   6.4902277
  71.0713882 148.2063751   5.5561180  70.4834061 147.4871521   4.5219364
  70.7345581 146.2084503   4.8061233  70.5026550 145.3795319   4.1538029
  71.2864304 146.1074524   6.0060573  71.5306091 145.1993103   6.3745213
  71.5296097 147.3555603   6.4863544  72.1052322 147.5261688   7.3841062
  69.9606781 151.6332703   6.8828421  70.8352890 151.8083344   7.7409658
  69.0983810 152.5944824   6.5682259  68.4376526 152.3991699   5.8297191
  69.2320633 154.0188293   7.0071216  70.2667618 154.2389526   7.2698846
  68.9589233 154.9487152   5.8487945  68.0381699 154.5621948   5.4118690
  68.7048416 156.4407806   6.1588626  69.4715805 156.8641510   6.8076730
  68.6164246 156.9730988   5.2118087  67.7568970 156.6033173   6.6717734
  70.0827179 154.8713379   4.8004174  70.2068863 153.9197388   4.2835555
  69.7775269 155.5873260   4.0373211  70.9652939 155.2614288   5.3073502
  68.3516159 154.2074585   8.2623405  67.3548584 154.8327789   8.2020798
  68.7378235 153.5942688   9.3825550  69.4837494 152.9231415   9.2673445
  67.7425079 153.5077057  10.5132437  66.7703705 153.2828522  10.0745039
  68.1999969 152.2882080  11.3688107  69.2131424 152.4602661  11.7321758
  67.6024857 152.1520386  12.2702160  68.1467285 150.9916992  10.6343279
  67.0978622 150.7942963  10.4129314  68.7449341 151.0253906   9.7237740
  68.5839081 149.5735474  11.6630621  68.2463989 148.3330688  10.4791613
  68.9757385 148.3535461   9.6693792  68.3736572 147.3200226  10.8607817
  67.2345123 148.4030304  10.0800447  67.4778442 154.7813110  11.3964214
  66.4634705 154.7780457  12.1565742  68.2989044 155.8155060  11.3612843
  69.1517868 155.7478333  10.8245239  68.0501556 157.0555267  12.1019564
  67.8162155 156.8131561  13.1386023  69.2566071 157.9670258  12.2286158
  68.9525299 158.8592682  12.7759295  70.3513565 157.2689667  13.1012726
  70.7661972 156.3605194  12.6645718  71.1892242 157.9336090  13.3118258
  69.8863449 156.8673553  14.0015936  69.9566803 158.3444824  10.8975544
  69.3649216 158.8356781  10.1251259  70.8047943 158.9981842  11.1012058
  70.2548141 157.4230042  10.3974638  66.8838425 157.9122925  11.5344763
  66.5787201 157.8293762  10.3397093  66.2904816 158.6600647  12.4076786
  66.5684509 158.6666718  13.3786507  65.2318344 159.5204010  12.0435925
  64.6223526 159.0120087  11.2964964  64.4121323 159.8616028  13.3149300
  63.8665047 158.9838562  13.6612930  65.1125717 160.3075104  14.0210857
  63.2399712 160.8161163  12.9055586  63.5814590 161.5563202  12.1819725
  62.6262894 160.2674255  12.1911049  62.3560066 161.6897888  14.1701632
  62.4916878 160.4315643  15.5024242  63.5397530 160.2935028  15.7681341
  61.8452797 160.6490784  16.3526840  62.1058693 159.4864655  15.1202745
  65.7964325 160.8619385  11.4046812  66.6242218 161.5729828  12.0399303
  65.4251785 161.1223145  10.1527710  64.6705933 160.5820465   9.7542629
  65.7977676 162.3743896   9.5526295  66.8004913 162.6323090   9.8933935
  65.8911057 162.1356201   8.0218239  66.6769867 161.3933563   7.8820519
  64.8873062 161.8173370   7.7404227  66.1954269 163.3565369   7.1915421
  65.4602203 164.1549835   7.2917500  67.5503464 163.8994446   7.4946575
  68.3364716 163.1824341   7.2580209  67.7870331 164.7433167   6.8466020
  67.5810394 164.1539612   8.5540829  66.2448044 163.0124054   5.6664062
  65.1965790 162.8292999   5.4301682  66.6539383 163.8394012   5.0860791
  66.8692169 162.1319122   5.5150213  64.7986908 163.4810028   9.8889675
  63.6116219 163.3562164   9.5676794  65.3083344 164.5364685  10.4960403
  66.2570114 164.4248199  10.8241405  64.6906357 165.8381500  10.6122112
  63.6169205 165.6828918  10.7177563  65.1347351 166.4525299  11.9738150
  66.1479416 166.8183746  11.8074274  64.3561172 167.7473145  12.3115768
  63.2798958 167.5836487  12.2562256  64.6368713 168.1818390  13.2709866
  64.5873489 168.4732819  11.5320892  65.0178680 165.5176239  13.1719704
  65.5985870 164.6028748  13.0532904  65.3757172 165.9846497  14.0895338
  63.6327286 165.0283813  13.5569925  63.1524849 164.5762329  12.6892166
  63.7646866 164.2474518  14.3058786  63.0247688 165.8402252  13.9562416
  64.9572525 166.7411804   9.3910332  66.0885010 166.7600555   8.8716097
  63.9124222 167.3953400   8.7761087  62.5238686 167.4240875   9.0471039
  62.2946777 167.9055023   9.9977875  62.1421738 166.4148102   9.2013607
  61.8852425 168.0785217   7.8684287  60.9888840 168.6150818   8.1794729
  61.6719284 167.3175201   7.1177697  62.8828278 169.0314178   7.3602667
  62.7742691 170.0123444   7.8229895  62.7978325 169.1711273   6.2826047
  64.2510986 168.4028931   7.6934881  64.5185547 167.8167725   6.8142672
  65.3259583 169.4481659   8.0886564  65.6826935 169.7117310   9.2648706
  66.0079041 169.9973297   7.0877562  65.6195297 169.8607330   6.1654696
  67.1775894 170.8987122   7.2731681  67.3936157 171.4106598   6.3354349
  66.9053192 171.5678558   8.0893822  68.4343567 170.1779327   7.6833940
  69.5349274 170.6857452   7.4584837  68.3439026 168.9934082   8.3303261
  67.4071884 168.6269989   8.4219704  69.5126419 168.1423950   8.7813520
  70.1487961 168.7836456   9.3914509  68.8957748 167.0432739   9.7282009
  68.2957916 167.4136047  10.5594482  68.3635330 166.3260040   9.1034250
  70.0075912 166.3063660  10.4370470  70.6527176 165.8086700   9.7130299
  70.6384354 166.9791718  11.0179644  69.5062714 165.1960754  11.3737411
  68.3152161 164.9481659  11.6397400  70.4475250 164.4023132  11.9647512
  70.2020874 163.5886993  12.5105486  71.4226837 164.4497223  11.7060452
  70.2181854 167.5784760   7.5770082  69.6410675 166.7861938   6.8466296
  71.5315170 167.8834686   7.4896345  71.8740540 168.5683746   8.1481819
  72.4245911 167.2738037   6.4809318  71.9272614 167.2783051   5.5110135
  73.6868057 168.1151123   6.2986369  74.0842133 168.3881531   7.2761908
  74.7954865 167.5319824   5.3857217  74.3097687 167.4409637   4.4141808
  75.6330338 168.2105103   5.2238069  75.1605911 166.5855408   5.7845235
  73.3643875 169.3297119   5.6046424  73.8174133 170.0098572   6.1083846
  72.7313080 165.7805786   6.8701644  72.7037430 165.4879761   8.0647316
  72.9467621 164.8637543   5.8461237  72.9096451 165.2154083   4.9000478
  73.0760727 163.4339600   6.0588498  73.4152679 163.4006500   7.0941935
  71.6494293 162.8360596   5.9583993  71.0098953 163.2850800   6.7183189
  71.1501007 163.0532990   5.0141668  71.6088028 161.2870026   6.0607090
  72.1220779 160.8225861   5.2187076  72.0342636 160.7911224   7.4304824
  71.5694504 161.4295197   8.1818075  71.7099457 159.7540894   7.5170436
  73.1228638 160.7971649   7.4852486  70.1554642 160.9377136   5.8860416
  69.8370361 161.3202820   4.9163203  70.1004791 159.8524933   5.8001037
  69.4669724 161.2385254   6.6757231  74.0645523 162.8945923   4.9614463
  73.6359558 162.6157837   3.8355026  75.2169266 162.5028534   5.3573194
  75.7843475 162.6507721   6.6831746  75.3631210 161.9022980   7.3543487
  75.7991486 163.7019958   6.9709358  77.2720184 162.2163086   6.5700364
  77.3938828 161.2839813   7.1214151  77.9104156 163.0177307   6.9418764
  77.5676346 161.9994049   5.1002827  78.2185898 161.1400604   4.9394302
  77.9144516 162.9278717   4.6466699  76.1574402 161.7478180   4.5408216
  76.1385727 161.9886627   3.4779305  75.7970581 160.2495575   4.6030197
  75.3273926 159.7801514   5.6073933  76.1608276 159.4343109   3.5677955
  76.4393921 159.8514099   2.6911418  76.0099564 157.9734802   3.5772324
  75.9397888 157.5534515   4.5806074  74.6852036 157.5497131   2.9211252
  74.8646393 157.7615814   1.8670803  74.6237717 156.4631805   2.8595781
  73.3163910 157.9699554   3.4947045  73.3044739 159.0390778   3.7066863
  72.2574692 157.6397400   2.3687429  72.3974304 156.6109924   2.0367711
  71.2921600 157.7430420   2.8643405  72.2757187 158.2683716   1.4784651
  72.9868774 157.2752686   4.8527989  73.7183380 157.6475525   5.5700698
  71.9768829 157.4286957   5.2328944  73.1722641 156.2158051   4.6759429
  77.1955338 157.3095551   2.8187256  77.7320786 157.8353882   1.8439268
  77.5221786 155.9962616   3.1111047  77.1237640 155.6398468   3.9680336
  78.4351578 155.0759277   2.4219775  78.7486420 155.5200806   1.4772220
  79.7749939 154.8240814   3.1821485  80.1185074 155.7713928   3.5976865
  79.6128464 154.2061615   4.0653238  80.9348068 154.1699677   2.3964958
  80.7585907 153.1053467   2.2427366  80.8899384 154.6101074   1.4003209
  82.3927689 154.3221283   2.8969681  82.7002029 155.0137939   3.8611186
  83.3912659 153.5987091   2.3995550  84.2381058 153.6112976   2.9498274
  83.3331223 153.0197601   1.5739956  77.7598572 153.7317505   2.0827823
  77.6151581 152.9079132   2.9535937  77.4063492 153.4893341   0.8245011
  77.5248947 154.1975861   0.1142619  76.5083160 152.3891449   0.4342389
  76.1220627 151.8814392   1.3180659  75.3038864 152.9267120  -0.4242732
  75.7230759 153.3430634  -1.3402600  74.7398605 152.0487061  -0.7390301
  74.4496689 153.9416199   0.3040442  75.0960693 154.5497742   0.9368215
  73.7412643 154.9070892  -0.6344084  73.2881851 154.4180908  -1.4967839
  73.1981354 155.5913239   0.0174676  74.4867859 155.5335083  -1.1242131
  73.3873215 153.2673340   1.2019532  73.7443542 152.4255829   1.7953255
  73.0022430 154.0020294   1.9090856  72.6064072 152.8132629   0.5919473
  77.2885513 151.3291168  -0.4296645  77.5562744 151.4911346  -1.6435630
  77.6553650 150.2489624   0.3123119  77.3036423 150.2278137   1.2588606
  78.4715958 149.1387634  -0.2364655  78.8179779 149.4148560  -1.2324002
  79.6216660 149.0396576   0.7577589  80.3433228 148.3211975   0.3690137
  80.2292023 149.9444427   0.7767507  79.2842712 148.5079651   2.2035105
  78.8235931 149.4125671   3.1787388  78.6556168 150.4541779   2.9479463
  78.5946960 148.9368591   4.5086193  78.1049957 149.6292419   5.1773510
  78.7631531 147.5647278   4.7596521  78.4988861 147.1224213   5.7088251
  79.2179184 146.6878662   3.7826033  79.2970963 145.6305389   3.9879868
  79.4191818 147.1502533   2.4842772  79.6383743 146.4804535   1.6659122
  77.7452621 147.7352753  -0.4933194  78.2687912 146.9177399  -1.2413169
  76.5101852 147.4852448   0.0236076  76.1748199 148.1309357   0.7241081
  75.6854324 146.3375092  -0.4607347  76.2893524 145.4326172  -0.3931333
  74.4957428 146.1398621   0.5078331  74.0214691 147.1027679   0.6975735
  73.7021561 145.5237274   0.0850982  74.9325790 145.5152893   1.7970226
  75.2036057 144.0922546   1.9628814  75.4090500 143.9443970   3.2762601
  75.7372284 143.0583954   3.7994211  75.3474731 145.1299896   3.8926525
  75.5796432 145.2327271   4.8702240  74.9157639 146.0818787   3.0333507
  74.5180588 147.0563507   3.2754924  75.0647964 146.5882568  -1.8612381
  74.3487778 147.5638733  -2.0106645  75.1225357 145.6356812  -2.8370254
  75.5915909 144.2669830  -2.6416683  74.9745178 143.7845459  -1.8836659
  76.6573410 144.2850342  -2.4137213  75.1919632 143.5125580  -3.9267027
  74.1508255 143.2123413  -3.8083558  75.8595352 142.6645813  -4.0797029
  75.2798767 144.6159058  -5.0357280  74.5412064 144.4675751  -5.8234224
  76.2771683 144.7380066  -5.4583349  74.9444275 145.9189606  -4.2941813
  75.6165314 146.6520996  -4.7401543  73.5469742 146.3786011  -4.6016059
  73.3689041 147.1885529  -5.5586505  72.5024261 145.9431763  -3.9237976
  72.5603714 145.1533661  -3.2969463  71.1224670 146.3844147  -4.2043056
  70.9697876 146.3740082  -5.2835088  70.0957184 145.3121796  -3.5619383
  69.1769333 145.4111176  -4.1399903  70.4863663 144.3522186  -3.8995407
  69.8523178 145.3502655  -2.0730841  69.7359161 146.3434448  -1.6393185
  68.8742218 144.9058685  -1.8888326  70.7840195 144.5124207  -1.1538213
  71.9089432 144.2245941  -1.5228975  70.3218155 144.0703735   0.0446679
  71.0714035 143.7543640   0.6433095  69.3495941 144.0887299   0.3176870
  70.9060898 147.8228149  -3.8231146  70.1993103 148.5602722  -4.5263376
  71.6325836 148.4363861  -2.8705282  72.2655411 147.8674011  -2.3267248
  71.4856796 149.8814392  -2.5161276  70.4172440 150.0804596  -2.5994809
  72.0317917 150.1356354  -1.1068029  73.0840530 149.8649139  -1.0198710
  71.9295120 151.2054749  -0.9249009  71.2461929 149.4344330  -0.0079541
  70.1930847 149.6945038  -0.1148318  71.4412918 148.3636475  -0.0667570
  71.7137909 149.8469086   1.3670465  72.8852158 149.4940186   1.7348971
  70.9085617 150.4421082   2.1255317  72.2510071 150.8663177  -3.3853171
  71.9714050 152.0201569  -3.6006715  73.3198395 150.3273468  -3.9733858
  73.6619949 149.3961182  -3.7840521  74.0305023 151.0192871  -5.0510645
  74.4423904 151.9558563  -4.6751976  75.2432098 150.2118835  -5.5391884
  74.8911133 149.3108826  -6.0414963  76.1392059 150.9718475  -6.5156441
  76.5746765 151.8918915  -6.1257901  76.9367828 150.2622986  -6.7359133
  75.5562592 151.2250977  -7.4011569  76.1562042 149.8091736  -4.3685689
  75.7577362 148.9847717  -3.7772226  77.1074066 149.3973846  -4.7058415
  76.2903366 150.6480865  -3.6856973  73.0891342 151.1084290  -6.2252760
  73.1215134 152.1121826  -6.8938475  72.2082443 150.0966492  -6.4981565
  72.3155670 149.1985931  -6.0486264  71.3791046 150.1663971  -7.6730328
  72.0443192 150.4433136  -8.4909058  70.8312912 148.7207184  -7.9011850
  71.6873779 148.0477600  -7.9496808  70.3046646 148.4121246  -6.9981127
  70.0157013 148.6639404  -9.0687943  69.7373047 147.7537079  -9.1935129
  70.2562714 151.2362518  -7.5553851  70.0427017 152.0124817  -8.4831734
  69.5744781 151.3375092  -6.4146180  69.8187485 150.7391052  -5.6385026
  68.5087662 152.3185730  -6.1834450  67.7111588 152.1894379  -6.9150524
  67.8664474 152.2461243  -4.7375255  67.7169189 151.1873016  -4.5262532
  68.5703888 152.6926117  -4.0352407  66.4463348 152.8640747  -4.4392481
  65.7394714 152.4489136  -5.1576481  66.2721558 152.5547180  -3.4086835
  66.2747879 154.6828613  -4.5957713  67.0420914 155.2599487  -3.0978973
  68.0221634 154.7926025  -3.0021768  67.2578201 156.3281403  -3.0751665
  66.3741379 154.9204102  -2.3062797  68.9598770 153.7662201  -6.3532968
  68.2585907 154.5698700  -6.9676838  70.1089554 154.1252594  -5.8042741
  70.5781631 153.4164581  -5.2588024  70.5170746 155.5258636  -5.8102531
  69.6135330 156.0981140  -5.5999074  71.6200409 155.8769531  -4.7901654
  71.8714371 156.9348755  -4.8655577  71.1789932 155.4817352  -3.3570189
  71.0702057 154.3978271  -3.3192611  71.9846039 155.8207855  -2.7057655
  70.2022324 155.9025726  -3.1184115  72.9634781 155.2333832  -5.0991173
  73.3702316 155.5086670  -6.0721917  73.6936111 155.5753784  -4.3656034
  72.8886871 154.1481323  -5.0301213  70.9802856 155.8480835  -7.2399778
  70.6600647 156.9572906  -7.7120848  71.6106415 154.8993225  -7.9645243
  71.8096542 154.0367432  -7.4782610  71.9824448 154.9250641  -9.3659792
  72.6395798 155.7707672  -9.5686312  72.7531738 153.6954498  -9.7846575
  73.5380020 153.6635132  -9.0289297  72.0850601 152.8344269  -9.7659340
  73.4322739 153.8988800 -11.1043873  72.7104568 154.1770630 -11.8723040
  74.1548004 154.7108459 -11.0220442  74.1273117 152.6021118 -11.5441608
  73.3304749 151.8594360 -11.5043297  74.5628815 152.7052307 -12.5380182
  75.2412109 152.3127289 -10.6431580  75.5841370 153.0782013 -10.0805283
  75.9152145 151.1579132 -10.5350027  75.6321716 150.0922241 -11.1941957
  74.8388596 150.2124329 -11.8076363  76.1779022 149.2583008 -11.0302839
  76.9756699 151.0869446  -9.7544699  77.2678604 152.0178223  -9.4933376
  77.6118851 150.3304443  -9.9619513  70.8150253 155.2660065 -10.2465038
  70.7976837 156.2958832 -10.8975735  69.7845459 154.3963013 -10.2175331
  69.8587265 153.5640717  -9.6500750  68.5250015 154.6382141 -10.9292498
  68.6977615 154.6604614 -12.0052423  67.6229248 153.3506012 -10.6753950
  67.4160843 153.3143311  -9.6058149  66.6904602 153.6062317 -11.1786509
  68.1589050 152.0273590 -11.2784176  69.3414688 151.8378143 -11.5530443
  67.2969513 151.1085510 -11.6778183  67.6472626 150.2653046 -12.1094427
  66.3007126 151.2307129 -11.5651340  67.7565689 155.8413086 -10.5350790
  67.1762924 156.4264221 -11.4606457  67.6761246 156.2866974  -9.2639160
  68.0472183 155.7045135  -8.5267258  67.0132751 157.5226898  -8.8103838
  66.0131454 157.5345306  -9.2436218  66.8905258 157.3365326  -7.2307982
  66.2080765 156.5446167  -6.9222026  67.8943710 157.2550354  -6.8139639
  66.3026428 158.5676117  -6.4791417  66.7786560 159.5060272  -6.7635522
  64.8325806 158.6928558  -6.8209720  64.3462448 157.7264557  -6.6881275
  64.3257599 159.4006500  -6.1650276  64.7176132 159.0967712  -7.8268189
  66.4705505 158.3056183  -4.9661427  67.4313431 157.8247986  -4.7822914
  66.5364914 159.2538300  -4.4326324  65.6942368 157.6166229  -4.6333838
  67.7105255 158.8386078  -9.2098589  67.0425720 159.8641510  -9.3938055
  69.0433044 158.8471222  -9.3739080  69.5650330 157.9862671  -9.2912912
  69.8517838 160.0139618  -9.7424698  69.6156845 160.9138184  -9.1744757
  71.4015884 159.7621155  -9.4546089  71.5761566 158.7740479  -9.0287476
  72.3624802 159.5614777 -10.6891851  72.4268799 160.5001221 -11.2395487
  73.3761215 159.3566895 -10.3446608  72.0769958 158.7699127 -11.3820286
  71.9000778 160.8552094  -8.4655743  72.9896851 160.8416443  -8.4393482
  71.6980591 161.8365479  -8.8948412  71.4075012 160.7242889  -6.9974623
  71.7480164 159.7642365  -6.6095614  71.9112244 161.4860535  -6.4024291
  70.3217621 160.8204193  -6.9911203  69.6362610 160.4424133 -11.1801100
  69.5911789 161.6464081 -11.4736414  69.4088211 159.5467834 -12.0874901
  69.6151810 158.5866089 -11.8517532  68.8848648 159.8409424 -13.4056530
  69.5354691 160.6186676 -13.8056288  69.0214310 158.5897369 -14.2794485
  68.7720261 157.6776276 -13.7372541  68.2147903 158.6374512 -15.0109911
  70.3251266 158.5656433 -15.1093225  70.2069778 157.7876740 -15.8635788
  70.4109497 159.4658051 -15.7179546  71.6519012 158.4116516 -14.3380213
  72.4715271 159.3430176 -14.3009195  71.8466873 157.2980499 -13.6682472
  72.7695084 157.0976715 -13.3099804  71.1618042 156.5557404 -13.6734953
  67.4738998 160.4995728 -13.4415388  67.0960312 160.9194641 -14.5433044
  66.7449188 160.5531769 -12.3473682  67.1389008 160.1529846 -11.5078945
  65.5134125 161.2986603 -12.1649446  65.6224823 162.0832825 -12.9136505
  64.3438568 160.3844910 -12.4849377  63.4257622 160.9383545 -12.2888403
  64.4380798 160.0778046 -13.5266504  64.3564453 159.0856628 -11.6454945
  65.2350388 158.5176086 -11.9512682  64.3654251 159.3388214 -10.5853357
  63.1160164 158.1648865 -11.9068899  63.0258636 157.3656769 -11.1712036
  62.1990662 158.7464142 -11.8112869  63.0664597 157.5440063 -13.3221626
  62.6560287 158.2286530 -14.0643988  64.0513611 157.2410889 -13.6775799
  62.1897888 156.3219757 -13.4039812  61.2676353 156.5147858 -13.0398884
  61.9860649 156.0389099 -14.3518581  62.5936623 155.5778961 -12.8532305
  65.4124756 162.1431732 -10.8913469  66.2363129 163.0480804 -10.7334414
  64.4438095 161.9281006 -10.0192137  63.7072105 161.2880554 -10.2797375
  64.0774918 162.9260254  -8.9427099  63.9770279 163.9318695  -9.3504772
  62.7744827 162.5124512  -8.2592821  62.4670029 161.5701752  -8.7128000
  62.9833870 162.1375885  -7.2573137  61.6096382 163.5319977  -8.2786303
  61.8726654 164.6083832  -8.8606987  60.4758835 163.2921448  -7.7363243
  65.0930710 163.1654816  -7.7552195  64.8168716 164.1032410  -7.0111876
  66.1283569 162.3323517  -7.6572676  66.2250443 161.6506653  -8.3962164
  67.0851898 162.3395538  -6.5531020  67.7549057 161.4804840  -6.5929804
  67.9688873 163.6055908  -6.6252375  67.2989731 164.4654236  -6.6240649
  68.5736084 163.7710266  -5.7335830  68.9444885 163.5793610  -7.8209205
  69.7358017 162.8379364  -7.7104187  68.4567184 163.4811859  -8.7907333
  69.6677933 164.9112854  -7.8563409  70.3109436 165.0775299  -6.9921546
  70.4988022 164.7466888  -8.5422173  68.7901306 166.0584106  -8.1980886
  68.3739395 166.0473480  -9.1182919  68.6239319 167.1056061  -7.4343271
  69.0370560 167.2635651  -6.2760496  69.7997284 166.6868896  -5.9506879
  68.6950073 168.0427704  -5.7320333  67.8750229 168.0770416  -7.8348703
  67.5105820 168.1213531  -8.7757845  67.7921524 168.9286804  -7.2982578
  66.5965652 162.2913361  -5.1065946  67.3745193 162.2304382  -4.1430883
  65.2465210 162.3440247  -4.8262849  64.6626358 162.5159607  -5.6322727
  64.6561279 162.1132050  -3.4983788  65.3401871 162.5218353  -2.7546105
  63.3989105 162.9092712  -3.1905506  62.8915787 162.4295349  -2.3535507
  63.6219292 164.3286133  -2.9374845  64.3938522 164.7037048  -3.6094515
  62.7217560 164.8583832  -3.2491465  63.8452034 164.2823486  -1.8716004
  62.5398026 162.9893341  -4.3343592  61.9532318 162.2377167  -4.4467196
  64.3982849 160.6817780  -3.1180105  63.7077141 159.9186554  -3.7299287
  65.0366669 160.3258209  -1.9578900  65.7353821 160.9659271  -1.6083825
  64.5907516 159.1798401  -1.1924431  63.9502602 158.5664825  -1.8262079
  65.8561401 158.2650604  -0.9306396  65.5279083 157.3088531  -0.5231773
  66.2207565 157.9874268  -1.9196168  66.9767761 158.7235413  -0.0307088
  68.0496368 159.4785004  -0.4772617  68.0843964 159.8522644  -1.4899290
  69.0752487 159.8114014   0.3927712  69.9215088 160.3934326   0.0588836
  69.0604324 159.4755249   1.7406454  69.8332138 159.8596039   2.3900185
  67.9550629 158.7960358   2.2292328  67.8707352 158.4674835   3.2545838
  66.8841858 158.4501953   1.3709056  66.0268173 157.9012451   1.7314315
  63.8992577 159.5603638   0.0706297  63.7161674 160.7458801   0.3724859
  63.3161850 158.5654297   0.7353723  63.5239334 157.6361847   0.3985635
  62.5754662 158.8581848   1.9881017  62.5182953 159.9033051   2.2923477
  61.1278419 158.2485809   1.8699169  61.2844582 157.1778870   1.7388361
  60.5378723 158.3958130   2.7745495  60.5550919 158.7401886   1.0835371
  63.3039894 158.2560883   3.1843679  63.7698898 157.1052094   3.0478797
  63.3018570 158.8991547   4.3382616  62.9733009 159.8489380   4.4386945
  63.7110977 158.2758636   5.6213937  64.0024872 157.2383728   5.4576082
  64.9965897 159.0047760   6.0706277  64.7317429 160.0592194   6.1487117
  65.5099258 158.5114899   7.3835106  65.6266937 157.4306641   7.3042746
  66.4949951 158.9571991   7.5216298  64.8326721 158.6803589   8.2207155
  66.1119995 159.0039215   5.0372515  65.8298416 159.6546173   4.2095447
  66.9754562 159.5704651   5.3859515  66.4435196 157.9826660   4.8495479
  62.5514641 158.2915192   6.6408782  61.7722359 159.2403412   6.7493939
  62.2747955 157.1079254   7.1478043  62.9415894 156.3657684   6.9906287
  61.1748352 156.8365784   8.0625238  60.3188591 157.4367065   7.7538905
  60.7974205 155.4157257   7.8295050  61.7222900 154.8458557   7.9187517
  60.0811691 155.1240997   8.5976524  60.2342491 155.0921478   6.4951644
  60.9425659 155.3852386   5.7202601  59.9325523 153.5827484   6.4598012
  59.1823807 153.2237244   7.1643815  59.5749092 153.2382660   5.4894795
  60.8537140 153.0397491   6.6712661  58.9429169 155.8361359   6.0869665
  59.2414055 156.8460083   5.8056164  58.4836922 155.3134613   5.2479057
  58.2574120 155.8150024   6.9341588  61.4495773 157.1613464   9.5695038
  62.5522346 156.7654572  10.0546284  60.5286484 157.7863922  10.2608738
  59.6315727 158.0609894   9.8867817  60.6145821 157.7613983  11.6698723
  61.6683807 157.9255524  11.8949509  59.9165077 159.0159454  12.2646341
  58.8383789 159.0180817  12.1041660  60.0744400 158.9878082  13.3427658
  60.3212051 159.9356689  11.8422346  60.2062035 156.3761902  12.2293482
  59.0651627 156.1416473  12.5342207  61.2268867 155.4903107  12.3966618
  62.2017212 155.6961823  12.2310896  60.8594704 154.1667023  12.9795523
  59.9494934 153.8495636  12.4701824  61.9827042 153.1738129  12.7139587
  62.9650955 153.5059509  13.0496588  61.7072830 152.2746887  13.2651567
  62.1736984 152.7805786  11.2187290  61.1061134 152.1326447  10.4593897
  60.2491798 151.7941437  11.0228481  61.3283348 151.7137909   9.1492672
  60.5969810 151.0895081   8.6575308  62.5451546 151.9595795   8.5415392
  62.6794128 151.4796143   7.2517366  62.0959282 150.7398224   7.0677314
  63.5370178 152.6709595   9.2487078  64.4352264 152.9365082   8.7110233
  63.3548775 153.1137848  10.5797462  64.0976944 153.7266846  11.0686007
  60.4727821 154.3182068  14.5010796  61.3807793 154.2774353  15.3804379
  59.1812057 154.2654266  14.8123693  58.6098022 154.0419159  14.0100927
  58.5176277 154.0573120  16.1008282  58.8147507 154.7961273  16.8451195
  57.0379524 154.3852234  15.9147930  56.4776268 154.4165039  16.8492222
  56.8314552 155.3045044  15.3667250  56.3838730 153.3393402  15.1144447
  56.3065987 152.5320129  15.6281185  58.7675476 152.6589355  16.6929455
  58.9925079 152.5773315  17.9317303  58.8956413 151.5924835  15.9034338
  58.9059105 151.7692566  14.9090776  59.5467110 150.3250732  16.2867832
  60.1010323 150.4513702  17.2167759  58.5157967 149.2624969  16.5063591
  57.8044014 149.5913849  17.2638893  58.0192299 149.0407562  15.5617161
  59.1435738 148.0455933  17.1108322  60.1735840 147.5297394  16.7044945
  58.5260506 147.5501404  18.1261692  58.9372978 146.7006836  18.4858570
  57.6742630 148.0191956  18.3992271  60.5393372 149.9438171  15.2347040
  60.1659203 149.6516418  14.1171103  61.8032875 149.9463043  15.6079512
  62.0520782 150.1870270  16.5567703  62.9103432 149.6669617  14.6601744
  62.6384315 150.0388336  13.6723137  64.0783005 150.5390167  14.9851437
  63.6281433 151.5221252  15.1227865  64.7682571 150.1384583  16.3192806
  65.1227417 149.1079865  16.3437920  65.5102386 150.8914490  16.5849190
  64.0819931 150.2339020  17.1607265  65.1580505 150.5231628  13.9351912
  64.7176819 150.7874908  12.9737787  65.8231735 151.3639374  14.1321974
  65.7155075 149.5929260  13.8255472  63.1452942 148.1755829  14.4662647
  63.6876144 147.8153534  13.4158688  62.8260651 147.3289642  15.4853544
  62.3445969 147.7617493  16.2605934  62.9143600 145.8684235  15.5106840
  63.8769379 145.4911194  15.1654491  62.8221931 145.3057251  16.8939857
  63.6350975 145.7111359  17.4964333  61.8672333 145.6308136  17.3068733
  63.0296898 143.8204498  17.1628304  62.4762154 143.3073120  16.3764153
  64.0818024 143.5755005  17.0173683  62.5066147 143.4411469  18.5642376
  62.9522018 144.0411835  19.3576660  61.4192619 143.5131989  18.5881348
  63.0195999 142.0140686  18.7775135  63.9048500 141.8900452  19.2476807
  62.5382233 140.8763580  18.2774506  61.4781494 140.7777710  17.5628014
  61.0146294 141.6177673  17.2471199  61.1090622 139.8786774  17.2880135
  63.0332069 139.7698975  18.7595844  63.7887802 139.8309326  19.4270325
  62.7322960 138.8895416  18.3665066  61.8550529 145.1963196  14.5911007
  62.1886520 144.3445282  13.7676411  60.5812225 145.6338196  14.7067137
  60.3292542 146.1853485  15.5144434  59.4944000 145.2283020  13.9009447
  59.5755043 144.1803589  13.6122732  58.1987724 145.2765503  14.7908401
  58.0899658 146.2948456  15.1640997  57.3264503 145.0223389  14.1887255
  58.2122765 144.3491516  16.0432053  59.0366440 144.6672821  16.6814098
  57.3111801 144.5733643  16.6140442  58.2963562 142.8412476  15.7399015
  57.2984543 142.1674805  15.3136806  59.4253616 142.2571259  15.8818245
  59.3162689 146.0644073  12.6658316  58.6478767 145.5878754  11.7363949
  59.9431610 147.2464447  12.5597334  60.5175819 147.4856873  13.3552866
  60.0180244 148.1263885  11.4179716  60.6925392 148.9140472  11.7537155
  60.6190071 147.5234985  10.1548719  59.8476448 146.9585571   9.6314659
  60.9357643 148.2711029   9.4276533  61.7267799 146.4900055  10.3249063
  62.3229446 146.6863251  11.2160521  61.3052216 145.4921112  10.4458342
  62.7872620 146.5420837   9.1968508  63.5548248 145.7702637   9.2538280
  62.2029076 146.5067139   8.2774067  63.6178513 147.8061676   9.3462105
  63.2865906 148.3693542  10.1164007  64.6185303 148.1172943   8.6013412
  65.3218613 147.2972565   7.8465042  65.0797729 146.3174744   7.8075194
  65.8608093 147.7050629   7.0959535  65.0122986 149.3140411   8.5866203
  64.5864029 150.0079651   9.1842737  65.8175888 149.5796356   8.0379124
  58.7160835 148.9171448  11.1621113  58.2255249 149.0135956  10.0542612
  57.9906769 149.3795319  12.2031345  58.4570999 149.4429474  13.0967388
  56.7591248 150.2066193  12.1121426  56.1380768 149.9505157  11.2537632
  55.8980026 149.9538269  13.3673687  56.4617577 150.1860809  14.2708797
  55.0692291 150.6611328  13.3365135  55.4488335 148.4643402  13.4313202
  54.9665070 148.2285919  12.4826956  56.3055000 147.8152008  13.6125059
  54.6072502 148.1436157  14.6858768  54.8148308 148.8517914  15.7202196
  53.8139076 147.2021027  14.6181192  57.0884705 151.7180786  12.0436153
  57.9827805 152.1954041  12.7734537  56.4051971 152.5633392  11.1590776
  55.5808525 152.1602325  10.7371092  56.6110802 154.0431213  11.0147581
  56.7813187 154.4936066  11.9926052  57.9220428 154.2977448  10.1784725
  57.7992821 153.7466278   9.2461119  58.0133286 155.3703156  10.0071611
  58.7505455 153.9651184  10.8038015  55.4555054 154.8043976  10.3487415
  55.1821785 154.5516510   9.1783724  54.8544121 155.6941833  11.1441545
  55.1462059 155.8286743  12.1016884  53.6495285 156.3463898  10.6639118
  53.1393967 155.6826172   9.9658613  52.6949120 156.6498413  11.8231640
  53.2041054 157.3672638  12.4666929  51.6751442 156.9352417  11.5648584
  52.4027367 155.4027557  12.6300087  51.5030823 154.4148712  12.3539648
  51.4727402 153.6057281  13.4042044  50.8597069 152.7167664  13.4227009
  52.2329712 154.0935669  14.3676834  52.3391953 153.6047363  15.2450933
  52.7780952 155.2563934  13.9250698  53.4434471 155.9406433  14.4305429
  53.9452248 157.5795441   9.7637262  53.0304298 158.1382294   9.1304836
  55.1892815 158.1809540   9.8532238  55.9103355 157.6862793  10.3586636
  55.6195984 159.5182190   9.2874279  54.9077568 159.8388367   8.5267792
  55.6248245 160.5457764  10.4326773  56.1811066 160.1470795  11.2810230
  56.0485039 161.4759216  10.0539637  54.2672729 160.9590454  10.9028130
  53.6562233 162.1211395  10.4088583  54.1608963 162.7291718   9.6726513
  52.5256462 162.6322174  11.0096369  52.2397232 163.6155396  10.6665258
  51.8682785 161.9820709  12.0576868  50.9930649 162.4289856  12.5056419
  52.3461876 160.7525330  12.4250631  51.8903770 160.1888580  13.2256298
  53.5450554 160.2787628  11.8710346  54.0180969 159.4321289  12.3462486
  57.0583992 159.4741821   8.7111616  57.7121162 158.4080505   8.7810030
  57.6625900 160.5487366   8.2325974  57.1366959 161.4003601   8.0974293
  59.1137695 160.6385193   7.9635949  59.5975189 160.5412750   8.9355173
  59.4545517 159.7705994   7.3990726  59.5339012 161.9406281   7.2139196
  58.7704086 162.8908081   7.2385998  60.6865425 161.9494324   6.5566773
  61.2081337 161.0920410   6.6703520  61.2691765 163.1687317   5.8822322
  60.4541016 163.8751526   5.7249813  62.2810364 163.8469543   6.8093548
  63.0293922 163.1610260   7.2062979  62.9300652 165.0292969   6.1098037
  62.1747055 165.7409821   5.7765770  63.5931396 165.4918060   6.8409171
  63.4528847 164.5846710   5.2630024  61.5866241 164.3822174   7.9196148
  61.8175850 163.8976288   8.7154942  61.8759575 162.7916260   4.5405655
  62.5411224 161.7671509   4.3738976  61.6354675 163.4780121   3.4271641
  60.9083481 164.1787262   3.4074137  62.3103981 163.2845306   2.1327524
  62.2918396 162.2161407   1.9176018  61.5218658 163.8824463   0.9680271
  62.1188889 163.7911987   0.0606454  60.0898933 163.4064941   0.7634270
  59.5185127 163.7404022   1.6295233  59.7191353 163.6842194  -0.2232354
  60.0421028 162.3175507   0.7614568  61.3090401 165.2852173   1.2371043
  62.1217041 165.6972351   0.9347606  63.7370377 163.8381500   2.1367600
  63.9021873 165.0660400   2.0663152  64.7079926 162.9127808   2.0793583
  64.4436722 161.9380646   2.0675797  66.0554733 163.2058105   1.7004397
  66.3561249 164.0846710   2.2708011  66.8947601 161.9831085   2.2091844
  66.4868469 161.1357727   1.6580628  67.9385986 162.1116180   1.9228616
  66.8780975 161.8397217   3.2895834  66.2213516 163.4244080   0.2110986
  66.1198959 162.4536285  -0.5582082  66.5770493 164.6675415  -0.2073609
  66.6380386 165.3951263   0.4905052  67.1132584 164.9477386  -1.6025264
  66.7088623 164.1774597  -2.2592089  66.6875839 166.3670197  -2.0581510
  65.6045227 166.4235535  -1.9491186  66.9965668 167.1255341  -1.3389355
  67.1892929 166.7582092  -3.4559019  68.2698822 166.6612549  -3.5608838
  66.6825867 166.1590271  -4.2124348  66.9662628 168.2644348  -3.7949080
  65.9336548 168.8152313  -3.3871059  67.8282013 168.8160553  -4.4358912
  68.6580887 164.8567657  -1.5665090  69.3644943 165.3799591  -0.6986214
  69.2784348 164.0411987  -2.4113178  68.6880341 163.5032654  -3.0295138
  70.7210770 163.9461060  -2.5469019  71.2385254 163.9227905  -1.5878366
  71.0781403 162.5816498  -3.2360880  70.5195007 162.4187622  -4.1577692
  72.5866547 162.5755157  -3.6817124  73.2036362 162.9335480  -2.8575513
  72.9367905 161.5982971  -4.0142384  72.7358627 163.3562927  -4.4275146
  70.6806259 161.3512726  -2.3147647  71.4355469 161.3837891  -1.5291867
  69.6675110 161.5578766  -1.9697908  70.7644958 160.0237274  -3.1107521
  71.8205948 160.0114746  -3.3801799  70.5107651 159.1729126  -2.4784291
  70.0628281 160.0328064  -3.9448361  71.3038788 165.0798950  -3.3017383
  71.0013046 165.2579346  -4.4645362  72.1932755 165.8992157  -2.6607404
  72.2720795 165.7111359  -1.6715399  72.8006821 167.0832977  -3.3025622
  72.2036591 167.2396088  -4.2010236  72.7179184 168.3455658  -2.4335959
  72.8632126 169.2519073  -3.0214236  71.7076797 168.3568726  -2.0244651
  73.6672974 168.3054962  -1.2126377  74.9690475 168.8343048  -1.3447442
  75.2764664 169.2233429  -2.3041961  75.8205795 169.0356293  -0.2132607
  76.7703476 169.5442047  -0.2886786  75.2887115 168.6161346   1.0483317
  75.9821014 168.6853638   2.2433963  76.6941223 169.3284149   2.2101953
  74.0273285 168.0206604   1.1875914  73.6694412 167.6677246   2.1434953
  73.1756134 167.8904419   0.0623722  72.2253265 167.4078674   0.2369480
  74.2392960 166.8502808  -3.8216403  74.5993195 167.5275726  -4.8058457
  75.0074005 165.8531342  -3.2667823  74.6320877 165.3467712  -2.4775805
  76.2896347 165.3951569  -3.7396171  76.3448715 165.8627930  -4.7226629
  77.4771271 166.1788330  -3.0292292  77.6598511 165.8909760  -1.9939275
  78.3980026 166.1256714  -3.6099782  77.2268372 167.2347870  -2.9271178
  76.4831848 163.9317474  -3.7713323  75.9550018 163.1610565  -2.9836354
  77.2465515 163.5169220  -4.8520241  77.6571808 164.2431946  -5.4212418
  77.1634064 162.1677399  -5.3057003  76.9842834 161.4522095  -4.5031819
  75.9591141 162.0399475  -6.2747421  75.0604095 162.2110291  -5.6821599
  75.9622726 162.8643494  -6.9878039  75.8179855 160.7767487  -7.0807447
  75.0096436 159.7507477  -6.5641055  74.5488205 159.8796082  -5.5958862
  74.9695282 158.5066833  -7.2364216  74.3024521 157.7277069  -6.8978748
  75.5674667 158.3540039  -8.4996014  75.3432922 157.3812256  -9.4491711
  75.1064987 156.5138702  -9.1126595  76.3826904 159.4026489  -8.9857206
  76.9084854 159.2540436  -9.9173117  76.5309219 160.6303253  -8.2813549
  77.1293030 161.4830322  -8.5663815  78.4935608 161.6484833  -5.9593487
  79.0872116 162.3957825  -6.7364779  78.9594879 160.3922729  -5.7560482
  78.4533005 159.8908386  -5.0401993  80.2743835 159.8585815  -6.1616845
  80.4157562 160.2686005  -7.1616845  81.3726578 160.3656311  -5.2879257
  81.1536102 161.3794250  -4.9527788  81.4595108 159.7019043  -4.4276700
  82.7574310 160.4363403  -5.9500079  82.9364319 159.4210052  -6.3037810
  82.6884384 161.1768646  -6.7468653  83.9283752 160.8006134  -4.9992499
  83.7271347 161.6198730  -4.3090119  84.0817337 159.9517975  -4.3328500
  85.1258850 161.1788940  -5.7716002  85.0606232 162.0580597  -6.2644567
  86.2011719 160.5480042  -6.0491710  86.6500702 159.4798584  -5.4391718
  86.0079193 159.0496979  -4.7890172  87.4667740 158.9850464  -5.7682099
  87.1578598 161.1455078  -6.7751765  86.9761810 161.9919128  -7.2954707
  88.0320435 160.6417084  -6.8208871  80.4313965 158.2596436  -6.2747712
  80.1710739 157.5547180  -5.2971811  80.7276764 157.6338806  -7.4449024
  81.1485977 158.1914978  -8.1742802  80.8273468 156.1497192  -7.5670424
  80.3572845 155.6601562  -6.7141218  80.0759735 155.7226715  -8.8056231
  80.1716003 156.4841309  -9.5796623  80.4595337 154.7585144  -9.1393661
  78.5273361 155.5851135  -8.4690771  78.3172836 155.3627167  -7.4228845
  78.0635071 156.5575104  -8.6345797  77.8572159 154.4759827  -9.3069124
  76.9677734 153.8488007  -8.7933283  78.1805878 154.1432190 -10.5175753
  82.3142166 155.7080994  -7.4028778  83.1827316 156.3013916  -8.0390759
  82.5072250 154.6863861  -6.6657662  81.7088470 154.1436005  -6.3689756
  83.8091507 154.0625610  -6.4646873  84.5344925 154.3672791  -7.2190905
  84.4979095 154.4825592  -5.2001777  83.7963791 154.3633270  -4.3745003
  85.3353653 153.8347321  -4.9411654  85.0016937 155.9698486  -5.3051171
  85.9200897 155.9285431  -5.8907328  84.2525330 156.6361084  -5.7328587
  85.3750153 156.5276489  -3.9002783  85.9026489 155.7228241  -3.1414866
  85.5226059 157.7759247  -3.6805260  83.8088150 152.5052643  -6.7299376
  82.8391342 151.8021698  -6.4450784  84.9347992 151.8840942  -7.1213245
  85.7992020 152.3658905  -7.3232484  85.0364380 150.4339294  -7.3120885
  84.3351135 149.8420868  -6.7239170  84.7927551 150.1234894  -8.8228464
  83.7784653 150.4735260  -9.0146370  85.4501495 150.7679443  -9.4064665
  85.0359955 148.6526794  -9.1444407  86.1102448 148.5266266  -9.0094910
  84.5348892 148.0306396  -8.4027786  84.5312424 148.1833649 -10.5271626
  84.3776245 146.9464111 -10.8424606  84.1418915 149.0480652 -11.4044323
  83.5327148 148.7677460 -12.1597004  84.1669617 150.0260773 -11.1535349
  86.3773880 149.9589691  -6.7417264  87.4819565 150.3361816  -7.2449284
  86.3835373 149.1555634  -5.6917272  85.5174255 148.7153778  -5.4156995
  87.5786667 148.6028442  -5.0091147  88.3153305 148.4165497  -5.7906098
  88.2906036 149.4789429  -3.9757795  87.5675125 149.6474304  -3.1777513
  89.1462326 148.9569855  -3.5473309  88.8807907 150.8585815  -4.5586314
  89.4608841 150.6121063  -5.4479222  88.0488205 151.4748535  -4.8994250
  89.7086411 151.6789398  -3.5634947  89.1106186 152.4126434  -2.7420044
  90.9382172 151.4597626  -3.5868859  87.2700729 147.2140656  -4.3789496
  86.0935898 146.8839417  -4.3144231  88.2455826 146.3611755  -3.9723434
  89.1530075 146.7994080  -3.9042335  87.9806442 144.9765778  -3.4576662
  88.9022980 144.4049988  -3.5670450  87.6090698 145.0642700  -1.9768430
  86.5835190 145.4326477  -1.9514759  87.6076584 144.0795288  -1.5095259
  88.4167328 145.9752045  -1.0940701  89.4883194 145.4387207  -0.3565670
  89.7628250 144.3972626  -0.4367369  90.1422119 146.2027893   0.6208148
  90.8980713 145.7655487   1.2563409  89.7951355 147.5820770   0.7881172
  90.3930130 148.3445282   1.7395813  91.2266312 148.0319061   2.0986743
  88.8079224 148.1461487  -0.0053827  88.5115585 149.1455383   0.2770850
  88.0850220 147.3293762  -0.9054424  87.2303162 147.7712250  -1.3960119
  87.0243301 144.0952148  -4.2431798  86.3274918 143.2923889  -3.6165714
  86.8951950 144.2523041  -5.5833783  87.4658203 144.9354706  -6.0606284
  86.0232239 143.3802185  -6.3590832  86.3349533 143.4991455  -7.3967633
  86.1161804 142.3267975  -6.0949507  84.5503540 143.7010956  -6.2198153
  83.7726212 142.8110809  -6.5982113  84.1841888 144.8552094  -5.6000710
  84.9462967 145.4354095  -5.2796683  82.8317261 145.2416992  -5.2241778
  82.2539291 144.3648224  -5.5162969  82.5716553 145.2810059  -3.6664693
  81.4932556 145.3226776  -3.5134475  83.0353546 144.0020752  -2.9985130
  84.0853882 143.7860413  -3.1956055  82.8699875 143.9518127  -1.9223021
  82.5114212 143.1620789  -3.4545805  83.3073959 146.4331055  -2.9154189
  84.3224716 146.0902252  -2.7150464  83.3248596 147.2739716  -3.6087749
  82.7210922 146.7905731  -1.5132067  83.0302658 145.9846344  -0.8476332
  83.2390060 147.6351776  -1.0587571  81.6406403 146.9270020  -1.5590978
  82.4756393 146.5128784  -6.0000029  83.3535843 147.3109131  -6.3095422
  81.1742325 146.7072601  -6.2669039  80.4854126 146.0190887  -5.9985242
  80.6321030 148.0233459  -6.6053939  81.3746643 148.5456848  -7.2086077
  79.3817978 147.9386139  -7.5310421  78.6278381 147.3128967  -7.0534272
  79.0393066 148.9542847  -7.7290878  79.7849350 147.2467651  -8.8352184
  80.7647858 147.6469879  -9.0955992  80.0386200 146.1915283  -8.7340498
  78.7812271 147.4817505  -9.9983149  77.9851608 148.4646454 -10.0177822
  78.9552460 146.7976685 -11.0026913  80.2266159 148.8104401  -5.3124461
  79.8625336 148.1500702  -4.3187623  80.3026886 150.1123047  -5.3422379
  80.7446060 150.5865326  -6.1167755  79.9892731 151.0106049  -4.1960378
  79.0827866 150.5925140  -3.7583508  81.0524826 150.8548126  -3.1000748
  81.2477493 149.8065796  -2.8738227  82.5032501 151.3493805  -3.5139570
  82.5925140 152.3293304  -3.9828231  83.2253876 151.2913361  -2.6995540
  82.8806992 150.6183167  -4.2289300  80.6285782 151.6619110  -1.9525951
  81.2520599 151.4312439  -1.2600182  79.7386856 152.4803467  -4.5028248
  80.0946274 152.9813080  -5.5957060  79.0440521 153.2293243  -3.6015728
  78.8679581 152.8623199  -2.6772335  78.6832123 154.6615143  -3.8014712
  79.4127045 155.0550385  -4.5093436  77.3408508 154.6875153  -4.6466889
  77.5992203 154.2692413  -5.6195149  76.1810760 153.9423676  -4.0302148
  75.9345016 154.4894409  -3.1202621  75.3118973 153.9331360  -4.6879001
  76.3760223 152.9104767  -3.7381525  76.8725510 156.0684357  -4.9939337
  77.6753387 156.6313782  -5.4701138  76.1026688 155.9621124  -5.7581758
  76.4171371 156.5177155  -4.1114039  78.5848007 155.5064545  -2.5575724
  78.0730438 155.1161041  -1.5283564  79.0708466 156.7874451  -2.6457343
  79.3671646 157.1438904  -3.5430875  79.1333237 157.7830811  -1.5341688
  78.8073120 157.3284760  -0.5986753  80.5595703 158.2740631  -1.6218686
  80.7036819 158.6531525  -2.6336067  80.6780853 159.1752167  -1.0202234
  81.6423187 157.2264252  -1.2122444  81.4810715 156.9493561  -0.1704541
  81.5603867 156.2665558  -1.7221780  83.0400085 157.8503113  -1.3173423
  83.3349380 157.9461823  -2.3622947  82.9209518 158.9147491  -1.1150829
  84.1984787 157.3634949  -0.4402052  83.9588394 157.4812012   0.6165917
  84.3341751 156.2971649  -0.6208474  85.5128250 158.0256195  -0.7057561
  85.4954453 158.9776001  -0.3687981  86.2508774 157.5169220  -0.2403438
  85.7160492 158.1091919  -1.6915630  78.1651917 158.9294586  -1.8714120
  78.1601334 159.4269867  -3.0075006  77.4059982 159.3652039  -0.8663377
  77.4924316 158.9475708   0.0492018  76.3901367 160.4277496  -1.0618883
  76.7496872 161.0344238  -1.8930219  75.0250015 159.9218140  -1.5378106
  74.4556274 160.8108826  -1.8088455  74.9475327 158.9276581  -2.6734526
  75.3823090 157.9815674  -2.3509848  73.8910522 158.7849274  -2.9005563
  75.3364258 159.3638153  -3.5935738  74.1198807 159.2568054  -0.4860384
  74.1764221 159.7677307   0.4751399  73.0879211 159.3792419  -0.8149155
  74.3737717 158.1978607  -0.4380671  76.2304001 161.3160706   0.0671396
  76.3418961 160.9367523   1.1907296  75.9987106 162.6116028  -0.1730247
  75.8361893 162.9023743  -1.1265136  75.6524963 163.6590118   0.8338274
  75.5272903 163.1505280   1.7898003  76.7558517 164.7549438   0.9542931
  77.0235672 164.9896851  -0.0759131  76.2858047 165.6095276   1.4409641
  77.9159317 164.2984161   1.7985570  77.6776047 164.2394104   2.8605464
  78.1232910 163.2675934   1.5113007  79.2160645 165.0761108   1.5525446
  79.9670792 164.8001404   2.2927659  79.6166916 164.7549286   0.5910643
  79.0109253 166.5868378   1.5551866  78.1816177 166.8616486   0.9034013
  78.7411270 166.7917786   2.5911891  80.2951431 167.2582703   1.1089431
  80.5015869 166.9721375   0.1625756  80.1764755 168.2612610   1.1060284
  81.0491867 167.0397644   1.7443858  74.2373352 164.2349854   0.4722669
  73.9525681 164.5481415  -0.6977032  73.3279724 164.3699341   1.4222543
  73.6472092 164.1684875   2.3590629  71.9031601 164.5475464   1.3047099
  71.6700592 165.0755005   0.3800246  71.2391205 163.1371002   1.3720385
  71.5558624 162.6100616   2.2720385  70.1634979 163.3122101   1.3503710
  71.5133438 162.5494690   0.4959126  71.3093567 165.4707947   2.4049881
  71.9793701 165.6924591   3.3898802  70.0789413 165.9961395   2.2495179
  69.5959244 165.9542389   1.3634945  69.4647446 166.8826752   3.1808472
  69.8081589 166.7111206   4.2010121  69.9878235 168.2935028   2.7883427
  71.0633316 168.1462860   2.6898811  69.4407272 168.8630066   1.4974347
  68.3565292 168.9572601   1.5585186  69.9319382 169.8194733   1.3185788
  69.6058426 168.1903381   0.6558059  69.7302933 169.3801422   3.8623316
  68.7135391 169.7315369   3.6867080  69.8100052 168.8942871   4.8348036
  70.6694336 170.5756683   3.9155262  70.5435944 171.2368011   3.0581090
  70.3844147 171.0994415   4.8279581  71.7118988 170.2591705   3.8810122
  67.9432297 166.7432404   3.1501815  67.3120956 166.4370117   2.1392951
  67.3494720 166.8686981   4.3231201  67.9076691 167.1156616   5.1278067
  65.8884125 166.6540680   4.4217758  65.5773163 165.7531738   3.8928838
  65.6741714 166.5094604   5.4806910  64.9699020 167.7818756   3.9002352
  64.9109726 168.8645782   4.5602708  64.3329163 167.7050781   2.7553904
  64.4394913 166.8633728   2.2074194  63.4482994 168.7924805   2.1692402
  63.9571228 169.7224731   2.4228418  63.3659592 168.6747284   0.6737902
  63.1377258 167.6194916   0.5238409  62.5725288 169.3667603   0.3915520
  64.5920410 168.9004517  -0.2223832  65.4767761 168.5713196   0.3226026
  64.4087677 168.3457642  -1.1426141  64.7640076 170.3719788  -0.6385999
  65.4053268 170.3826904  -1.5199013  63.8220177 170.8183594  -0.9571986
  65.3300476 171.1622925   0.5392314  64.6104660 171.5493927   1.1329092
  66.6086426 171.4547729   0.7334357  67.5667877 170.8740540   0.0122085
  67.3038330 170.1722107  -0.6648186  68.4953766 171.2696686   0.0485445
  66.8956757 172.4628906   1.4812179  66.1749573 173.0010529   1.9406118
  67.7975388 172.9173737   1.4672819  62.0557938 169.0013275   2.8230577
  61.7471962 170.0987854   3.2818220  61.2798424 167.8979187   2.9666135
  61.6425705 166.9623566   2.8515909  59.7915268 167.9668884   3.4041371
  59.5747223 168.9135437   3.8990529  58.8893661 167.8175354   2.1795166
  58.8875961 166.7454376   1.9827697  57.9176369 168.1991272   2.4929237
  59.3446846 168.6347351   0.9067258  58.8509521 169.6064758   0.9134523
  60.4136086 168.8469086   0.9288112  58.9769440 167.9774323  -0.3412104
  58.2732582 168.5159607  -1.1790582  59.3907127 166.7219086  -0.5281950
  59.0782661 166.2654419  -1.3732498  60.0355949 166.3198853   0.1370854
  59.5193062 166.8677063   4.3854756  60.0608711 165.7845459   4.2899141
  58.6438255 167.0953827   5.4211011  58.1491699 167.9759521   5.4245033
  57.9854317 165.9708557   6.1838436  58.8329735 165.3367462   6.4439845
  57.4219742 166.5732880   7.4833040  56.7037048 167.3613281   7.2570877
  56.8528023 165.9037018   8.1281357  58.4935303 167.3178101   8.3060932
  59.2382698 166.5548401   8.5326586  58.8973351 168.1645050   7.7509732
  57.9245720 167.7503662   9.6618481  57.3637886 167.0305176  10.2580347
  58.7464638 168.0548401  10.3098354  57.1626167 169.0332947   9.5604029
  57.7045212 169.8417969   9.2906609  55.9128761 169.2772369   9.8451843
  54.9875679 168.3709717  10.0989399  55.2269402 167.4781342  10.5059328
  54.0732994 168.7388000  10.3201046  55.4363785 170.5021667   9.7671347
  56.0739708 171.2607269   9.5718040  54.4515076 170.7117920   9.8458290
  56.8757248 165.2070770   5.4058800  56.3391953 165.8260345   4.4901032
  56.5114670 164.0200958   5.7882962  57.1398277 163.4843597   6.3698950
  55.3046837 163.3269501   5.4288845  54.6258583 164.0571136   4.9882436
  55.6192436 162.4325409   4.1725864  54.6677475 161.9268646   4.0080953
  55.8551712 163.1531982   3.3895812  56.7544060 161.4624329   4.3600435
  56.6411972 160.2819977   5.1333561  55.7157402 159.9682617   5.5932412
  57.7791252 159.4299774   5.2466846  57.5700302 158.5193939   5.7884679
  58.9310303 159.7080536   4.5413928  59.7953758 159.0702820   4.6534724
  59.0205421 160.8030853   3.6811817  59.9232101 160.9533691   3.1075909
  57.9353752 161.7046051   3.6469126  57.9814339 162.5475311   2.9732983
  54.5737915 162.4413300   6.5034595  55.1441269 161.9857941   7.5011368
  53.2604179 162.1150208   6.2002869  52.8258896 162.7205963   5.5186977
  52.4668579 160.9866028   6.7304015  52.9319725 160.7189484   7.6791525
  50.9971542 161.4093933   7.0301285  51.0531921 162.4284058   7.4129996
  50.3829765 161.4748230   6.1320128  50.3144302 160.4631195   8.0157471
  50.3987923 159.4548187   7.6103802  50.7631798 160.6195679   8.9966888
  48.7839088 160.6915894   8.1751423  48.3344040 160.7282715   7.1828208
  48.3540459 159.8429260   8.7072105  48.3554001 161.9019012   9.0162182
  48.9427414 161.9742432   9.9315844  48.5525703 162.8312836   8.4819393
  46.8651314 162.0055695   9.2322273  46.4418488 161.2981567   9.8157587
  46.6501427 162.9369507   9.5584402  46.4152412 161.9798584   8.3283262
  52.5553284 159.7601471   5.8343697  52.4911690 159.9144287   4.6148834
  52.6682091 158.5188599   6.3636842  52.7196426 158.4656830   7.3709707
  52.7779121 157.2465973   5.6550393  53.1382713 157.4310455   4.6430030
  53.7975502 156.2579498   6.3251967  53.5168686 156.1333466   7.3710413
  53.7933655 154.7898712   5.7888050  53.8596344 154.8073883   4.7009621
  54.6459045 154.2721405   6.2283802  52.8690071 154.2783051   6.0570621
  55.2078781 156.8600311   6.2168016  55.2424316 157.8207855   6.7304683
  55.9668999 156.3254852   6.7879834  55.4899368 157.0602112   5.1831274
  51.3721237 156.6038055   5.4670415  50.5482941 156.4839325   6.4002604
  51.1263123 156.0951691   4.2650614  51.7841873 156.0950623   3.4987044
  49.9018784 155.3794098   3.9549167  49.1320419 155.6291504   4.6850390
  49.3224945 155.9782715   2.6072774  49.9462204 155.7393799   1.7458854
  48.3872986 155.4385986   2.4580297  48.8961868 157.4788361   2.6059279
  49.7475204 158.1036530   2.8759973  48.3903198 157.8822937   1.2216455
  47.4661713 157.3919525   0.9156852  48.2577515 158.9634552   1.1814891
  49.1212158 157.6282654   0.4539407  47.7920532 157.6990967   3.6339381
  48.1793594 157.6603088   4.6520686  47.3154144 158.6572418   3.4268830
  47.0789070 156.8916321   3.4680388  50.0445633 153.8352509   3.8134205
  49.2282066 153.0255890   4.2260475  51.1443329 153.4096527   3.2464781
  51.8713570 154.0845490   3.0566328  51.4124298 151.9893951   2.8943496
  51.1328926 151.3785248   3.7527332  50.5281219 151.5758209   1.6956569
  49.5024796 151.8411407   1.9520985  50.8500862 152.1078644   0.8004627
  50.6420746 150.0570984   1.3937663  51.6723595 149.7719421   1.1809313
  50.2694931 149.4891663   2.2462513  49.7632370 149.7569122   0.1706110
  48.5223312 149.7756195   0.2286044  50.3368454 149.4400482  -0.8972560
  52.9213753 151.8083801   2.6889155  53.6002998 152.7142029   2.1781740
  53.4623337 150.6284637   3.1265671  52.9094734 149.9005585   3.5562265
  54.8820457 150.2216492   2.7964351  55.3379860 150.9105682   2.0853691
  55.8197975 150.3668671   4.0295682  55.6253624 149.5782013   4.7564073
  57.2581215 150.1529388   3.5476685  57.5434608 150.7738342   2.6984563
  58.0026398 150.3231049   4.3253798  57.3751945 149.1342163   3.1780615
  55.7264671 151.6985931   4.7498450  56.1437492 152.4472351   4.0764213
  54.6774483 151.9217224   4.9444675  56.4805679 151.7785034   6.1488523
  57.5532608 151.6060181   6.0612531  56.3078079 152.7560730   6.5989928
  56.1811028 151.0802917   6.9304624  54.8738403 148.8483734   2.1278205
  54.3266296 147.8864441   2.6257493  55.6241417 148.7791595   0.9897449
  56.1587372 149.6115723   0.7863216  55.7970047 147.6190491   0.0301455
  55.1997910 146.7868958   0.4029102  55.3002205 147.9495087  -1.3837670
  54.3138390 148.4133606  -1.3841785  55.8557968 148.8018799  -1.7748125
  55.4085312 146.7126465  -2.3476102  56.4365196 146.6124420  -2.6958892
  55.1159706 145.7691956  -1.8867217  54.3695068 146.8790283  -3.4473112
  53.4071007 146.5906677  -3.0245574  54.3280869 147.9248352  -3.7517152
  54.6692505 145.9808655  -4.6259470  55.0207558 145.0780334  -4.3405466
  54.6323051 146.2649231  -5.9016151  54.2651596 147.4629669  -6.2410350
  53.9342155 148.1601562  -5.5894938  53.9737663 147.5698700  -7.2021613
  55.1386261 145.4139099  -6.7846761  55.4626961 144.5159302  -6.4549875
  55.1393433 145.7109070  -7.7500215  57.2559624 147.1724548   0.0325276
  58.1144600 147.9964447  -0.2739214  57.4722328 145.8953857   0.3619296
  56.7222290 145.2358093   0.5121107  58.8785629 145.3542328   0.1182136
  59.6266594 146.1456909   0.1636116  59.2470322 144.2311401   1.1131197
  58.7002525 143.3074799   0.9233540  60.7318535 143.9683380   0.9871457
  61.2745895 144.9125214   0.9417320  61.2072754 143.4426575   1.8152447
  60.9286842 143.4036713   0.0758227  59.0502930 144.6624908   2.4521070
  58.1141739 144.8483582   2.5557251  59.0289192 144.7481537  -1.2617635
  58.2201385 143.8368683  -1.5923088  59.8341370 145.3424377  -2.1612997
  60.3763046 146.1471710  -1.8809990  60.0610008 144.8043213  -3.5271032
  59.0847549 144.5836487  -3.9587774  60.8029556 145.8501434  -4.3597126
  61.6524010 146.2483063  -3.8047266  61.2422523 145.3235168  -5.2069316
  59.8363762 146.9524231  -4.9743538  58.8482094 146.5871887  -5.2540412
  59.6428413 147.6849213  -4.1907072  60.3088646 147.6811829  -6.2244086
  60.2322083 148.8651733  -6.4095984  60.8624344 147.0182800  -7.2382860
  61.2238693 147.6020813  -7.9789867  60.9244995 146.0104980  -7.2638283
  60.9536171 143.5250244  -3.3908455  61.6683311 143.2657318  -2.3957925
  61.0307426 142.8790131  -4.5161519  60.4944954 143.2443848  -5.2901278
  61.5729141 141.5333557  -4.7364731  61.0808067 140.8947906  -4.0028648
  61.2702370 140.9709015  -6.1414514  61.9928017 141.4209290  -6.8222356
  61.4601097 139.8976593  -6.1562095  59.9108925 141.2482758  -6.5594006
  59.8794060 141.4321594  -7.5010991  63.0613174 141.4349213  -4.5259738
  63.5706940 140.4504242  -4.0094934  63.8377762 142.4064941  -4.9770508
  63.3464928 143.2167664  -5.3266244  65.2834015 142.4317169  -4.9029860
  65.6918411 141.4715576  -5.2181959  65.7579422 143.4188843  -5.9772892
  66.8418274 143.3623505  -6.0777359  65.4813385 143.0793457  -6.9754419
  65.4765472 144.8923645  -5.7846522  64.6688309 145.2759857  -4.8998690
  65.9949799 145.7021637  -6.5890040  65.7705460 142.8325806  -3.5324528
  66.9477921 142.6125641  -3.2400389  64.9076538 143.4491425  -2.6622777
  63.9732971 143.6474762  -2.9905150  65.3580933 143.8741302  -1.3345759
  65.0682831 143.1761475  -0.5491276  66.4296112 144.0740051  -1.3328897
  64.7488403 145.1895752  -0.8617631  64.2278976 145.1925354   0.2902938
  64.7799530 146.2823639  -1.6467202  65.0850677 146.2064056  -2.6065300
  64.4011536 147.6255951  -1.1726762  64.9537430 147.7710266  -0.2444564
  64.9236069 148.7961731  -2.0354676  64.5505142 149.6922302  -1.5395187
  66.4802170 148.9374847  -2.1147015  66.8953018 148.1271057  -2.7139452
  66.8606796 149.8793488  -2.5099692  67.0606766 148.7898254  -1.2040095
  64.3299789 148.7807159  -3.5377820  65.0665588 149.0562744  -4.2925186
  64.0051422 147.7636871  -3.7573831  63.1537170 149.7362213  -3.6184499
  63.5208473 150.7616577  -3.5761957  62.6481056 149.4184113  -4.5302887
  62.4602547 149.4581451  -2.8247979  62.9059181 147.8634491  -0.8728114
  62.0631561 147.2172241  -1.4770551  62.5233231 148.8189240  -0.0157446
  63.2792435 149.2574310   0.4906146  61.1791725 149.1813812   0.3337515
  60.5591087 148.4032135  -0.1113029  60.8919754 149.2948761   1.9248494
  61.4020691 150.1687317   2.3301687  59.8351135 149.5462799   2.0139813
  61.1480789 147.9815216   2.6777742  60.6560669 147.2076874   2.0885255
  62.2123566 147.7969666   2.5316408  60.6530380 147.8322754   4.1416440
  61.0653801 148.6119843   5.0328617  59.8478699 146.8041687   4.4126768
  59.4927979 146.7482605   5.3565550  59.7509270 146.0322571   3.7685766
  60.6791649 150.4297943  -0.4570498  61.3160477 151.4764252  -0.5221582
  59.4591637 150.3807831  -1.0152053  58.8993225 149.5417786  -0.9627911
  58.6908760 151.5016174  -1.5212721  59.3230896 152.3607178  -1.7456236
  57.9538498 151.0513000  -2.7994998  57.3985558 150.1202393  -2.6860015
  57.2116013 151.8323059  -2.9643917  58.8185539 150.8158875  -4.0749912
  59.6767883 150.1768036  -3.8673759  58.2259407 150.1855927  -4.7380404
  59.3209991 152.0710602  -4.7883248  59.1629410 153.1885071  -4.3018541
  59.9137192 151.9000397  -5.9762096  60.3039589 152.7133484  -6.4304671
  60.0204391 150.9428558  -6.2803612  57.6522408 151.8775940  -0.4397755
  56.9912338 151.0653381   0.2281998  57.3091774 153.1800079  -0.4632578
  57.8621712 153.9012299  -0.9038588  56.3059158 153.7352753   0.4932280
  55.5932541 152.9440918   0.7261124  57.0438118 154.2032013   1.7821608
  57.5948372 155.1278229   1.6102842  56.4228973 154.4080963   2.6542766
  57.7844696 153.4706268   2.1028919  55.5063248 154.8406525  -0.1700463
  56.1207428 155.8097687  -0.6318895  54.1946869 154.6994629  -0.1794394
  53.8953705 153.8321686   0.2428441  53.2284813 155.7501984  -0.3985486
  53.6199989 156.3657379  -1.2084316  51.8932457 155.1742859  -0.9005910
  51.4465904 154.5753937  -0.1069067  51.2587242 156.0509796  -1.0305909
  51.9092903 154.4616699  -2.2479937  52.2688599 155.1434631  -3.0186849
  52.5520363 153.5908051  -2.1192677  50.4675789 154.0052490  -2.6360850
  50.1356888 153.2691193  -1.9039278  49.8487968 154.8970642  -2.5366821
  50.3914375 153.4902954  -4.0812521  49.3341293 153.4996796  -4.3460379
  50.8357048 154.2318115  -4.7452316  50.9275627 152.0368195  -4.2961164
  50.4494781 151.3395081  -3.7435775  50.9224777 151.7257690  -5.2570152
  51.9218330 151.9823608  -4.1271081  53.0379562 156.6027985   0.8546938
  52.8959198 156.0882568   2.0074258  53.1699295 157.9649963   0.6528098
  53.3492508 158.2364197  -0.3033630  53.2230873 159.0673370   1.6647142
  52.7948532 158.5144348   2.5007949  54.7017288 159.4473114   1.9321520
  54.6231956 160.0560608   2.8329115  55.6856804 158.3106537   2.1963992
  55.8159218 157.6625824   1.3297186  56.6345139 158.7735748   2.4675403
  55.3186340 157.7530365   3.0580535  55.2843513 160.2932434   0.8224726
  54.7436790 161.2234039   0.6475741  56.2747269 160.6867523   1.0514101
  55.3891296 159.6811523  -0.0733245  52.4091530 160.2409821   1.2457819
  52.0067482 160.3529510   0.0639577  52.1905060 161.1897583   2.1494520
  52.5263329 161.0876617   3.0964985  51.4804459 162.4854889   1.8496938
  51.4554138 162.6207886   0.7684134  49.9693794 162.4633179   2.3570895
  49.4929428 161.6690063   1.7824851  49.9686012 162.2236328   3.4204123
  49.2194443 163.7613373   2.2790909  49.8858986 164.5332947   2.6638310
  49.0428276 163.9372864   1.2179837  47.8983231 163.7923431   2.9577789
  47.0239677 162.9405975   2.8735075  47.6525993 164.8836060   3.6942923
  46.7525787 165.0043640   4.1364250  48.3686752 165.5678406   3.8921995
  52.2788277 163.5924988   2.5016336  52.5757332 163.5528107   3.7113264
  52.7437363 164.5093689   1.6386223  52.5282974 164.4141388   0.6564729
  53.6895905 165.5703888   2.0044611  54.3392105 165.1117096   2.7499232
  54.5775719 166.1075745   0.7863683  53.8925438 166.2331390  -0.0521315
  55.0940666 167.5438843   0.9488332  55.6416054 167.6336517   1.8870486
  55.7446136 167.8603058   0.1334997  54.2512474 168.2319183   0.8828419
  55.8271790 165.2734680   0.4302717  56.4381943 165.6548309  -0.3878556
  56.5250778 165.4548950   1.2476574  55.5818024 163.7867737   0.1928717
  54.8389206 163.5616455  -0.5723336  56.4629288 163.1766815  -0.0058793
  55.1792679 163.3651276   1.1138961  53.0591927 166.6861725   2.8182235
  52.1148529 167.3908234   2.3619962  53.6228981 166.8678284   4.0217900
  54.5308609 166.4853210   4.2440438  53.0629539 167.8125610   4.9895988
  51.9912529 167.9306793   4.8295650  53.3262749 167.1437225   6.3610511
  54.3952713 166.9360809   6.4082265  53.1945610 167.8180084   7.2072797
  52.6771812 165.7799072   6.5935121  53.0858917 164.9980469   5.9533863
  53.0479012 165.1900024   7.9764862  52.6984749 165.8536377   8.7674332
  52.5730782 164.2152557   8.0882730  54.1121712 164.9761505   8.0749893
  51.0739517 165.8267365   6.5638280  50.6534119 165.8907013   5.5602541
  50.5973015 164.9766998   7.0520458  50.7750397 166.6910095   7.1569338
  53.6850967 169.2143555   4.9773560  54.9030457 169.2598724   4.8890524
  52.8919868 170.2276459   5.0575914  51.4850845 170.2567902   4.7437458
  50.9955750 169.6117249   5.4733882  51.4841347 170.0287018   3.6778781
  50.9978600 171.7086639   4.9609685  50.7751656 171.9787140   5.9932380
  50.1449738 171.9236908   4.3171887  52.2604980 172.4562836   4.5164590
  52.2433090 173.5057678   4.8103671  52.3929367 172.4871674   3.4349737
  53.3687172 171.5969391   5.1473670  54.3363571 171.6869049   4.6537261
  53.5585785 172.0187531   6.5981722  52.8845100 171.5972595   7.5336771
  54.3579788 173.0769043   6.7751431  54.7791328 173.4703522   5.9457312
  54.2904663 173.9880371   7.9314613  54.3800240 173.4424286   8.8708239
  55.3950043 175.0537872   7.7825227  55.2805214 175.5653534   6.8268528
  55.3198090 175.7065125   8.6522436  56.7756233 174.3698120   7.8584404
  56.7790337 173.5013123   7.1998191  57.6137009 175.0125732   7.5890226
  57.0326805 173.8508911   9.2672834  57.6866875 174.5943298  10.0505791
  56.6672745 172.7152100   9.5875320  52.9238052 174.7869873   7.9307637
  52.5407410 175.4482422   6.9932117  52.2319832 174.8018036   9.0602417
  52.6253128 174.3788910   9.8888111  50.9696579 175.6338196   9.2854729
  50.5079842 175.6789398   8.2991047  49.9885902 174.9759979  10.2528238
  50.4498367 174.7093506  11.2037468  49.2233200 175.7324371  10.4267416
  49.4851799 173.6393890   9.6976795  49.0247993 173.7471008   8.7155666
  50.3034325 172.9209137   9.7462015  48.4087906 173.1016541  10.6464033
  48.1865311 172.0806580  10.3361654  48.7195854 173.0137177  11.6874475
  47.1027107 173.7687683  10.6178150  46.6542168 173.5640869   9.7363071
  46.3740425 174.3435211  11.5853605  46.7991180 174.4790802  12.7972231
  47.7839355 174.3486023  12.9794655  46.1970596 174.9070282  13.4860611
  45.2321510 174.8724365  11.4026289  44.8351173 174.8494415  10.4742250
  44.7274399 175.2706451  12.1816034  51.2847633 177.0384064   9.7121859
  51.1702232 177.3867340  10.8765450  51.7192497 177.8062897   8.7484293
  51.7427521 177.4259644   7.8130684  52.4221420 179.0611572   9.0451794
  53.1018829 178.9161377   9.8848352  53.2442665 179.5525970   7.8339200
  52.5916748 179.7713318   6.9887085  53.9624138 180.9123230   8.1748371
  54.2734413 180.9207611   9.2194901  54.8498917 180.9923248   7.5470757
  53.1990089 181.6760254   8.0262632  54.2859764 178.4823761   7.4946280
  53.8527985 177.6314087   6.9689760  55.0585594 178.8093567   6.7987113
  54.9022636 178.1710815   8.3380671  51.2979584 180.1024933   9.3965816
  50.4452591 180.3135529   8.5913057  51.3303223 180.7743073  10.5804491
  52.1533394 180.6821442  11.1585903  50.3060341 181.6887360  11.1330404
  49.4133453 181.4688873  10.5474863  50.1485367 181.3417816  12.6191893
  51.0811768 181.4463501  13.1735792  49.3893471 182.0155182  13.0164585
  49.6926003 179.9328613  12.9260807  50.4633141 179.1939545  12.7067661
  49.2167625 179.7796783  14.3988228  48.3373680 180.3785248  14.6357746
  48.9572792 178.7430420  14.6136570  50.0154343 180.0926819  15.0713158
  48.3608360 179.6428986  12.2200594  48.5100403 179.6061096  11.1409435
  48.0319099 178.6352081  12.4739723  47.6340027 180.4446411  12.3504810
  50.7600288 183.1456757  10.8884172  51.9399948 183.4822083  11.0187225
  49.7910271 184.0763855  10.6809416  48.3667526 183.7895660  10.4668360
  47.9487915 183.0410919  11.1400471  48.4079971 183.5187988   9.4118080
  47.6630287 185.1416321  10.6360884  47.3409996 185.2179718  11.6746292
  46.7979393 185.1876373   9.9745750  48.7522507 186.1276398  10.2385750
  48.6049194 187.0835419  10.7412367  48.8239517 186.2842560   9.1622705
  50.0564079 185.4788055  10.7157946  50.8984146 185.6631317  10.0485935
  50.4522018 185.9154816  12.1102476  50.1576881 185.2477570  13.1406231
  50.8643036 187.2336731  12.2590399  51.2317505 187.7918549  11.5017309
  50.9168777 187.7988892  13.6431494  51.6231041 187.2561035  14.2714300
  51.3081741 189.2735443  13.4395905  52.3018570 189.3793945  13.0042915
  50.6594467 189.8388519  12.7705021  51.2517586 189.8986359  14.6722670
  51.5252838 190.8071594  14.5260754  49.5025787 187.6755829  14.3320055
  48.4907494 187.7947083  13.6612911  49.3690910 187.4200592  15.6495514
  50.1603394 187.3590698  16.2742977  48.0334435 187.2971802  16.2813301
  47.5764656 186.3921967  15.8809834  48.2616081 187.0209961  17.7847290
  47.3191452 187.0184021  18.3323250  48.9601479 185.6736603  17.9646606
  49.7991753 185.5384064  17.2821350  49.3323631 185.6822968  18.9891033
  48.2689323 184.8604279  17.7433529  49.0980988 188.0877533  18.3274956
  48.6008301 188.7866058  18.7586861  47.1194916 188.4593964  16.2100887
  45.9161186 188.2725067  16.1678391  47.7259369 189.6506195  16.2042732
  48.7231750 189.6018829  16.0518188  47.0757828 190.9269562  16.2937908
  46.2926559 190.8686981  17.0497112  48.0399017 192.0441284  16.8253307
  48.7543373 192.2884216  16.0391998  47.3867798 192.9103088  16.9314537
  48.7506256 192.0078125  18.1688557  49.2693329 191.0492096  18.1579399
  49.4686203 192.8277283  18.1870804  47.7510529 192.1907806  19.7042542
  46.8019905 190.6192932  19.8875523  47.5296326 189.8628387  20.1815014
  46.0951805 190.8059692  20.6960526  46.1692848 190.2532654  19.0789700
  46.5008621 191.2607574  14.9303970  45.6301155 192.0671692  14.8061247
  46.9222870 190.6620941  13.7872992  47.5633163 189.8836212  13.8436508
  46.6053886 191.1242676  12.3805752  46.9540329 192.1569824  12.3739653
  47.3896637 190.3513031  11.3361187  47.5464668 190.9192963  10.4191132
  48.4018402 190.2135010  11.7163877  46.7233849 189.1196442  11.0817261
  46.9554100 188.7081299  10.2460051  45.0330429 191.1878357  12.0952578
  44.5724030 192.0916595  11.4113226  44.3005714 190.2218475  12.5671053
  44.7386398 189.4902649  13.1083775  42.8394775 190.0796967  12.4834805
  42.5155220 190.5502319  11.5551815  42.5460358 188.6257782  12.6455441
  42.7482872 188.4852905  13.7073660  41.5209770 188.4361572  12.3271093
  43.1880264 188.0393524  11.9882393  42.0466652 190.9423981  13.5105257
  40.8414879 190.9327545  13.5468941  42.8368149 191.7050476  14.3069477
  43.8450928 191.6801605  14.2534676  42.3036232 192.6278992  15.3928270
  41.2312126 192.6952515  15.2097855  42.4183540 192.0512238  16.8488159
  42.5378914 190.9808044  16.6815281  43.7024117 192.4781952  17.5925255
  43.5293694 193.5053253  17.9137096  43.8872681 191.8830414  18.4867992
  44.6077042 192.3396301  17.0014725  41.1211243 192.2380524  17.6880341
  40.3291817 191.6183319  17.2674675  41.3156357 191.8993530  18.7056522
  40.9434242 193.3118591  17.7469177  42.7340355 194.1327820  15.3392487
  41.9255829 195.0476990  15.6610727  43.9090462 194.3560486  14.7968397
  44.4513664 193.5061951  14.7358532  44.6042366 195.6766815  14.8232918
  44.2667236 196.2716827  15.6719093  46.0878677 195.3643188  15.0830431
  46.5532112 196.2651215  15.4831791  46.1686859 194.6029968  15.8588953
  46.8283844 194.8731842  13.8633385  46.3397942 193.9425964  13.5745525
  46.6089439 195.5278931  13.0199594  48.3534584 194.8055878  13.9242420
  48.9797020 194.8526001  14.9896088  49.0806160 194.7597504  12.8163729
  50.0672684 194.9589996  12.8995619  48.6145515 194.8552094  11.9254341
  44.3322334 196.6058197  13.6198282  45.1975174 197.3871613  13.1889572
  43.1816788 196.4811401  12.9725866  42.4633141 195.8553009  13.3078136
  42.8512764 197.3596649  11.8223009  43.7368698 197.5892944  11.2297649
  41.8388443 196.6506500  10.8339081  40.8445930 196.6420288  11.2805510
  41.7890015 197.3366241   9.9883013  42.3596001 195.2430878  10.3526459
  43.4304466 195.1961670  10.1546679  41.8900185 194.1242981  11.3215704
  40.8319931 194.2448883  11.5542593  42.0701752 193.2149811  10.7481613
  42.5152550 194.0868225  12.2136335  41.6296043 194.9361572   9.0820951
  41.8683281 195.6306763   8.2766304  41.7689781 193.8914948   8.8040218
  40.5799141 195.1422272   9.2913580  42.3452263 198.6544800  12.3774004
  41.1724854 198.9982300  12.3211451  43.2524643 199.4655151  12.9148693
  44.1956062 199.1338501  12.7713871  43.0464973 200.8829041  13.2702942
  42.2975082 201.3105927  12.6038208  42.4308624 200.9080048  14.7068624
  42.0897789 201.9382324  14.8087387  41.5404129 200.2795410  14.6914587
  43.5533485 200.5278168  15.7081165  44.2937317 199.8651276  15.2600327
  44.0930443 201.4102478  16.0518227  43.0189285 199.6482239  16.8686962
  43.3567429 198.4548492  16.9999981  42.1429939 200.2112122  17.6470165
  41.7723083 199.6037750  18.3637505  41.9389610 201.1708069  17.4068909
  44.3281403 201.6438751  12.9132652  45.2756577 201.0673523  12.4070339
  44.3409805 202.9153900  13.2024908  43.5276451 203.3422241  13.6224842
  45.4625130 203.7973328  12.9237347  45.5753403 203.7243042  11.8420506
  45.1026192 205.2348633  13.2624083  45.8856239 205.8858948  12.8736086
  44.1529922 205.5149384  12.8064775  45.0011292 205.4673157  14.6381874
  44.4643364 206.2615967  14.6888809  46.8115082 203.3523254  13.5586691
  47.8873863 203.8220673  13.0556755  46.8516159 202.5856934  14.6336269
  45.9782906 202.4214325  15.1136494  48.0343132 202.1068115  15.3488855
  48.7236023 202.9282990  15.5441875  47.6611443 201.6156464  16.7423630
  46.7965508 200.9577026  16.6546936  48.5196571 201.0714569  17.1359463
  47.3190536 202.6673889  17.7433624  48.0106430 203.5041809  17.6453972
  45.9150047 203.3873901  17.6826172  45.1309929 202.6929016  17.3807545
  45.7133636 203.9175110  18.6134300  46.0629196 204.1207886  16.8899307
  47.4661217 202.0214844  19.0930042  48.5334511 201.8387756  19.2176323
  47.1061325 202.7213440  19.8471279  46.9286156 201.0812225  19.2158794
  48.8252029 201.0031738  14.5731144  49.9526176 200.5933533  14.9808216
  48.3146286 200.4566498  13.4570026  47.4264717 200.7940216  13.1142855
  48.9381256 199.2044067  12.8394699  48.9399414 198.4503784  13.6265821
  48.0660362 198.7408447  11.6210012  48.5037689 197.8053741  11.2725611
  47.1034470 198.5703735  12.1031408  48.0441246 199.6916504  10.5430155
  47.3742523 200.3168793  10.8293028  50.3905296 199.3855591  12.3276482
  51.3031845 198.5948029  12.5633831  50.6249657 200.5516968  11.6619148
  49.8427010 201.1760864  11.5266266  51.8743820 201.0830383  11.0045290
  52.2251358 200.4436340  10.1944399  51.4358673 202.3842163  10.2397537
  52.2328758 202.6914978   9.5626659  50.6497307 202.0814667   9.5480623
  50.8139877 203.4064178  11.1344328  49.7644005 203.2048187  11.3484993
  51.3227005 203.5468903  12.0881500  50.7700081 204.7426453  10.3809986
  51.7721634 205.0664520  10.1000528  50.1862640 204.5494537   9.4809866
  50.1086464 205.7646942  11.2117176  49.7418747 205.5558777  12.1293087
  49.8717842 206.9695740  10.8429222  50.4881744 207.6240234   9.8798380
  50.9206009 207.0655518   9.1578741  50.1863632 208.5583801   9.6432590
  49.0596809 207.6399994  11.6203794  48.5134735 207.1480560  12.3130302
  48.9114838 208.6239929  11.4475040  53.0868416 201.3787384  11.9653835
  54.1126137 201.8522949  11.3899460  53.0073929 201.1501160  13.3071308
  52.2824097 200.5518951  13.6767626  54.2417908 201.2920074  14.1100454
  54.7261925 202.2156982  13.7934151  53.8706856 201.4301453  15.5932941
  53.5333176 200.4256897  15.8489504  54.7645073 201.6280060  16.1849308
  52.8305283 202.4645691  16.0247135  53.1664963 203.4267578  15.6381578
  51.8363342 202.2012787  15.6636696  52.8050652 202.4720612  17.5988598
  51.7742844 202.6392670  17.9113197  53.1000557 201.4813690  17.9447269
  53.5950050 203.4907837  18.3088570  54.1019859 204.1032104  17.6859646
  53.5334473 203.8079071  19.5751553  52.6534615 203.3179321  20.3677273
  52.0676079 202.5875702  19.9889946  52.5296707 203.5647278  21.3392620
  54.2903175 204.7861176  20.0440140  54.8814201 205.2919464  19.3999271
  54.1660614 205.0670319  21.0061722  55.1943817 200.1053619  13.8562965
  55.0357857 198.9363403  14.3050451  56.0909500 200.3622589  12.9258766
  56.1998711 201.3105011  12.5956011  56.8389053 199.3064880  12.1795816
  56.2435532 198.3944092  12.2215691  57.0813408 199.7172241  10.7533188
  56.2677689 200.2951813  10.3149633  57.9894562 200.3199768  10.7641230
  57.3073540 198.6062927   9.7535248  58.3384628 198.6355438   8.7640963
  58.2529182 197.4980164   8.0481291  58.7794075 197.3215790   7.1218061
  57.2675781 196.7306671   8.4729662  56.9021301 195.9327698   7.9730554
  56.6160316 197.4226074   9.5271654  55.7024994 197.1324310  10.0248222
  58.1097908 198.9271545  12.9433136  58.6716843 199.6620483  13.7569437
  58.7094841 197.8158569  12.6030264  58.4198341 197.3868408  11.7357559
  59.8641701 197.2228546  13.3501968  59.7338028 197.3894653  14.4194708
  59.7659454 195.7127533  13.1642895  60.5523262 195.2828522  13.7846832
  58.4746819 195.0819550  13.7030621  57.6171837 195.2726135  13.0577354
  58.6454582 194.0093079  13.7944698  58.3357124 195.4690094  14.7125111
  60.0855141 195.2873230  11.7198477  59.2595558 195.4783173  11.0347052
  60.9562340 195.8435974  11.3727036  60.4886513 193.8344421  11.6866875
  59.6146584 193.2023926  11.8440495  60.9894485 193.6315002  10.7400503
  61.1699524 193.5881042  12.5010881  61.2803001 197.8995209  13.0301199
  61.4359207 198.5942383  12.0166874  62.4394188 197.7787323  13.7048168
  63.1327477 198.3129578  13.2008486  63.0081863 196.8028717  14.5541811
  63.9512939 197.2229462  14.9037590  62.3298340 196.6322327  15.8973837
  61.4704628 195.9672394  15.8115606  63.0690460 196.1430817  16.5317345
  61.8182220 197.9271851  16.6391602  62.7126999 199.0764465  16.6959076
  63.6694107 199.0316772  16.1968136  62.3852615 200.2093964  17.3696995
  62.9931145 201.1016541  17.3978710  61.1917915 200.2324066  18.1499844
  60.9270897 201.1417847  18.6689930  60.3435287 199.1018829  18.1513786
  59.4631310 199.1264954  18.7764378  60.5953293 197.9896698  17.3426476
  59.9482574 197.1252441  17.3212605  63.5958786 195.5835266  13.7423983
  63.9947624 195.7591553  12.6112452  63.7491722 194.3569031  14.3429718
  62.8487587 193.7392578  15.3604612  61.7983093 193.8916016  15.1125860
  63.0430145 194.1652527  16.3447857  63.1111679 192.2726898  15.3357925
  62.5089417 191.7821655  14.5710583  62.8751831 191.7948151  16.2866116
  64.5746613 192.2067871  14.9435463  64.7473297 191.3867188  14.2465858
  65.1709213 192.0147858  15.8355665  65.0298080 193.5706635  14.3716230
  65.6043777 194.1190796  15.1180868  65.7705231 193.4382019  13.0571938
  65.1852264 193.2338104  11.9518347  67.1262436 193.4155731  13.0267944
  67.5718765 193.4307404  12.1205444  68.0474701 193.9401703  14.1138544
  68.9743958 193.9592285  13.5406685  68.1461792 193.0069885  15.3604946
  68.7685928 193.5035095  16.1049175  67.1437302 192.9316101  15.7818222
  68.6538391 191.7271423  15.0631294  69.5619583 191.7268982  15.3744564
  67.7548752 195.3892517  14.5835686  66.8304825 196.0281677  14.0869722
  68.5795364 196.0199738  15.4941349  69.2502594 195.4600983  16.0008736
  68.2191925 197.2819672  16.1196957  67.5478516 197.7011261  15.3702259
  67.3497543 196.9245300  17.3773556  66.8107452 195.9865417  17.2441654
  68.0555496 196.6980438  18.1765175  66.3405838 197.8285065  17.7238827
  66.1386642 197.8582764  18.6619339  69.2968903 198.3746185  16.3476772
  69.3649750 199.0449371  17.3547421  70.4102325 198.5448456  15.5788612
  71.0198441 199.3076477  15.8369770  70.9147186 197.8692627  14.3862038
  71.8407593 198.4197693  14.2204247  69.9920349 198.1592102  13.1738930
  69.0715027 197.5828247  13.2660074  69.7172089 199.2139893  13.1719265
  70.5716476 197.7480164  11.7851677  70.4030533 196.6765900  11.6768074
  69.9326859 198.2808380  11.0809526  72.0810852 198.0144348  11.5818958
  72.6896362 197.5936432  12.3823299  72.4188232 197.5098724  10.6766586
  72.4756622 199.4788361  11.4852810  71.7364120 200.1435547  11.9322262
  73.4781570 199.5641174  11.9046059  72.5205917 199.9028625  10.0641184
  71.6462250 199.7450409   9.5838184  72.8416824 200.8588562  10.0088968
  73.2733841 199.4986267   9.5256090  71.5431442 196.4626770  14.6219053
  71.6405869 195.6145477  13.7329855  72.0733871 196.1729736  15.8549185
  71.6556854 196.5940094  17.2220669  70.5766525 196.5507507  17.3701248
  71.9842072 197.6290436  17.3162155  72.1466751 195.6161804  18.2560768
  71.3884506 195.2078094  18.9242287  72.9061508 196.1365051  18.8396492
  72.7703094 194.5572205  17.3870983  73.6376266 194.1339722  17.8937931
  72.0196686 193.7778320  17.2559242  73.1443405 195.2122345  16.0618725
  73.1930237 194.4402466  15.2939119  74.5372849 195.8198395  16.1903763
  75.5264893 195.1342926  16.4370918  74.6234894 197.1521454  16.2603455
  73.7774811 197.6732178  16.0791092  75.8552399 197.9272461  16.3207150
  76.4241486 197.7413330  15.4097357  75.5215759 199.4176331  16.3747845
  74.7884750 199.5806274  15.5847883  75.2239990 199.7708130  17.3621101
  76.7470856 200.3059998  16.1061535  77.3818741 200.0538177  16.9555874
  77.1117401 200.1095734  15.0979156  76.5152435 201.8428040  16.2837811
  76.0393066 202.0778961  17.2357864  77.5015182 202.3016052  16.2141094
  75.6768188 202.4461670  15.2272329  76.1177063 202.1485901  14.2758265
  74.6840210 201.9967346  15.2486973  75.5680389 203.9649811  15.4462013
  76.4532928 204.4453278  15.5216503  75.0406342 204.3767700  14.6896467
  75.1366272 204.3465576  16.2758923  76.6531754 197.4894714  17.5299702
  77.8840408 197.4673004  17.3942089  76.0516663 197.0845795  18.6369610
  75.0444412 197.0834808  18.5621204  76.7019272 196.9258118  19.9699860
  77.6150436 197.5150452  19.8856487  75.8721161 197.4897614  21.1618233
  76.5376663 197.4023285  22.0205994  75.7395401 199.0014801  20.9387035
  75.0686646 199.2353821  20.1120739  75.3610764 199.4048004  21.8779640
  76.7442398 199.3696899  20.7311058  74.5772858 196.7517242  21.4536076
  74.7838135 195.6833038  21.5163689  74.0805054 197.0838776  22.3651886
  73.8424530 196.9848480  20.6830368  77.2046585 195.4855957  20.3521461
  77.3380356 195.1814575  21.5569458  77.3950958 194.6664124  19.3238125
  77.1885452 195.0979309  18.4343052  77.9760818 193.2858124  19.3004360
  77.9111481 192.8497467  18.3035793  79.4989624 193.4876404  19.7022324
  79.5418396 193.8069458  20.7435341  80.1417618 192.6114807  19.6171360
  80.3037872 194.4534912  18.8809872  81.2429733 195.3684998  19.3343925
  81.5300751 195.5423279  20.3609180  81.9324722 195.8667755  18.1910763
  82.6925583 196.5274048  18.2681866  81.4471207 195.2603607  17.0446568
  81.9677887 195.1871490  15.7423725  82.8400345 195.7699890  15.4856882
  81.4452820 194.4320679  14.7301035  81.8077774 194.5601959  13.7208586
  80.2491379 193.7229919  15.0744686  79.6999130 193.1264496  14.3611069
  79.7837448 193.6487885  16.4314079  78.9622955 193.0101318  16.7207794
  80.4273071 194.3818512  17.4325829  77.3215332 192.1639557  20.1814957
  77.8054047 191.0515137  20.0352592  76.3265305 192.4560699  21.0778656
  76.0992126 193.4295044  21.2222500  76.0543976 191.6406555  22.2525864
  76.8727570 190.9394073  22.4157925  74.7947006 190.7319489  22.0269814
  74.1479187 190.7208710  22.9042740  74.2295990 191.1689301  21.2036915
  75.0516968 189.2062836  21.8420906  74.0798264 188.7134552  21.8681622
  75.4975052 189.0680542  20.8570805  75.9995422 188.4877167  22.8155022
  76.4292831 189.0675049  23.8113155  76.3818512 187.2172089  22.5618725
  76.8613205 186.6497955  23.2461605  76.0867691 186.6917419  21.7513638
  75.8403168 192.4410553  23.5712814  74.8846664 193.1818237  23.5997009
  76.6705093 192.1317902  24.5949497  77.2818756 191.3361359  24.4796867
  76.5501175 192.6914673  25.9654388  76.2341309 191.8551636  26.5890045
  77.9703751 193.0306091  26.5588150  77.9587936 193.5722961  27.5046139
  78.4163208 192.0447998  26.6908207  78.8837509 193.6819916  25.5411110
  78.8742599 194.9529572  25.4591045  79.6085739 192.9524536  24.7731743
  75.5681763 193.8403625  26.1894360  75.6940536 194.9428101  25.5721970
  74.6181946 193.5990143  27.1124973  74.8321915 192.7654572  27.6411667
  73.5654449 194.4645538  27.6758575  72.7296982 193.9166107  28.1110554
  74.1479721 195.2688446  28.8982372  73.4403000 195.9397430  29.3852634
  74.3056793 194.5288544  29.6828671  75.4783936 196.0435181  28.8605804
  75.8034286 196.0243988  29.9008160  76.1910477 195.5077515  28.2335396
  75.4650040 197.5246277  28.4622154  74.4949493 197.9387665  28.7371292
  76.2439499 198.0822906  28.9821587  75.6571350 197.6209259  26.9630413
  74.8068771 197.6445770  26.4184246  76.8256989 197.6862640  26.3073006
  78.0187683 197.8330688  26.9141922  78.1454163 197.7832336  27.9149818
  78.8732529 197.7394714  26.3839149  76.7690964 197.6109467  24.9712124
  77.6440353 197.7093506  24.4763336  75.9016724 197.4165649  24.4917393
  72.8316193 195.3316956  26.7052517  72.4363937 194.8546448  25.6426353
  72.4618835 196.5826111  27.0200634  72.5472717 196.7824249  28.0064106
  71.7302628 197.5222778  26.1731968  71.7305069 198.4694061  26.7126846
  72.5324249 197.7299805  24.8533726  72.6185226 196.8515015  24.2138634
  72.0669327 198.5271606  24.2737808  73.5738144 197.9521179  25.0863228
  70.2209778 197.3443451  25.9547729  69.3505249 198.1353149  26.2394962
  69.8354340 196.3179016  25.1690540  70.4937363 195.6122589  24.8710480
  68.4278717 196.0792084  24.7334099  67.9960709 197.0676422  24.5764771
  68.3808365 195.4026337  23.3384495  67.3707886 195.0518646  23.1266193
  68.5442352 196.1694183  22.5811901  69.3575439 194.2486420  23.0931282
  69.1953049 192.9442902  23.6108990  68.3595505 192.7263031  24.2592793
  70.0147476 191.9156799  23.1344357  69.9203415 190.9260712  23.5565281
  71.0528412 192.1611633  22.1648045  71.6109848 191.3594818  21.7041950
  71.2799530 193.5467987  21.7843285  72.0031281 193.8239594  21.0316029
  70.4135208 194.5444794  22.1646519  70.5918274 195.5716858  21.8827839
  67.4205627 195.4492645  25.7807140  66.3347855 195.0691681  25.4230843
  67.8174286 195.4414062  27.0878620  68.6977005 195.8610229  27.3508320
  66.9650192 194.9852753  28.1979389  66.6648560 193.9588928  27.9868717
  67.7294464 195.0760651  29.5411949  67.9571609 196.1254425  29.7284622
  67.0042191 194.8701019  30.3284225  69.0413437 194.2592163  29.6758938
  68.8550873 193.2628174  30.0766430  69.5178680 194.2627411  28.6955833
  69.9914246 195.1091766  30.6069221  70.8510208 194.4914551  30.8669586
  70.2928543 196.0078888  30.0688190  69.3821945 195.5033112  31.9174175
  69.1067505 194.7709045  32.5560265  69.3411560 196.6968384  32.4464722
  69.5076904 197.8197784  31.8187943  69.8506851 197.8758392  30.8704758
  69.4408417 198.6590118  32.3767586  69.0392761 196.7741852  33.7158089
  69.0708618 195.9545441  34.3051262  68.8354568 197.6279144  34.2155037
  65.6191025 195.7456055  28.1379757  64.5955887 195.1106720  28.0445690
  65.6504135 197.0916748  28.2071381  66.5822601 197.4522705  28.3545361
  64.5704422 198.0070038  28.0596027  63.8126793 197.8321533  28.8233624
  65.0299683 199.4296417  28.3252678  65.9444580 199.6045837  27.7585201
  64.2666931 200.1629333  28.0649223  65.4671860 199.7288208  29.8386898
  64.7127533 199.1939392  30.4155979  66.3758698 199.1654053  30.0507393
  65.5731583 201.2059784  30.2410641  65.8039017 202.1269226  29.4433422
  65.2540436 201.4402008  31.4771366  65.2288208 202.4000092  31.7905769
  65.1406708 200.7030487  32.1582146  63.8883781 197.8924866  26.6940441
  62.6556244 197.7529449  26.5903530  64.6077652 197.6705322  25.5755730
  65.6121140 197.7563782  25.6389103  63.9878120 197.4307404  24.2698364
  63.2538300 198.2158051  24.0879974  65.0147476 197.5683441  23.1633472
  65.3218002 198.6141663  23.1706085  65.9161606 196.9587402  23.2260513
  64.3374023 197.2792816  21.8302460  63.7659302 198.2149506  21.0419312
  63.5898476 199.2324371  21.3583641  63.0078697 197.5956726  20.0799122
  62.3750534 198.1163940  19.4895725  63.1495476 196.2203522  20.1002235
  62.6118889 195.2220306  19.2476845  61.9483490 195.5789948  18.4739323
  62.9872513 193.8686218  19.4988327  62.5477562 193.0897369  18.8933601
  63.9452934 193.6299438  20.5154533  64.2315979 192.6061249  20.7057686
  64.5016556 194.6432495  21.3429108  65.2786942 194.3767700  22.0440445
  64.0965729 195.9953156  21.1511879  63.1515465 196.1231537  24.1310863
  62.0335693 196.1863556  23.6280727  63.5967331 194.9963379  24.6267185
  64.5236511 194.9684448  25.0268955  62.7737885 193.7357330  24.6839218
  62.5623665 193.5315399  23.6342983  63.6075516 192.5315399  25.1614399
  64.3505707 192.9637756  25.8316555  62.9739876 191.8499298  25.7289734
  64.2470627 191.7985840  24.0550575  65.5205536 191.7915649  23.5912991
  66.3582001 192.2840271  24.0627079  65.6058121 191.0982056  22.4096661
  66.3883057 191.0837402  21.7712288  64.4299240 190.6109924  22.0142365
  63.9610481 189.9122314  20.8576298  64.6540604 189.6635284  20.0675163
  62.5688858 189.5913391  20.7560329  62.1723900 189.0609283  19.9028816
  61.7017441 190.0602875  21.7424927  60.6343307 189.9066925  21.6837902
  62.1793175 190.8305359  22.8348484  61.4412003 191.0660706  23.5872536
  63.5446281 191.0181580  23.0290298  61.4998589 193.8796997  25.4641953
  60.5245285 193.2667389  24.9724960  61.3885269 194.7546844  26.5382557
  62.2295036 195.2020874  26.8739319  60.0909157 195.0539551  27.1473770
  59.5709381 194.1140747  27.3326988  60.3257256 195.7699890  28.4882278
  60.9104424 196.6814117  28.3636513  59.4033165 196.2089844  28.8684254
  60.9527359 194.8972931  29.5863857  60.3205261 194.0301208  29.7772427
  61.9306450 194.5516968  29.2511959  61.1613922 195.6702576  30.9057083
  61.3442650 196.8953400  30.8987274  61.3336105 195.1116791  32.1086960
  61.6355286 195.7228546  32.8539581  61.2986641 194.1200256  32.2970619
  59.2693291 195.8794250  26.1789036  58.1670227 195.5436707  25.8969727
  59.9001770 196.9682007  25.7042694  60.9099464 196.9740906  25.6836548
  59.2273140 197.9959106  24.9361782  58.3892899 198.3442993  25.5398731
  60.1575165 199.1838379  24.6369038  60.9171944 199.3666840  25.3968792
  60.6684303 199.0347748  23.6856689  59.2692566 200.4507141  24.4913597
  58.3900642 200.2077789  23.8946133  58.8660164 200.7924194  25.4446392
  60.0502815 201.5604858  23.8187923  60.9104156 201.8706512  24.4121513
  60.4911842 201.1797028  22.8975353  59.2229767 202.9211273  23.5576572
  59.9496117 203.6551361  23.2093239  58.4159508 202.6598053  22.8731747
  58.6043282 203.5608368  24.7211304  59.2530746 203.7847595  25.4621353
  58.2416306 204.4746094  24.4896927  57.8657837 202.9965210  25.1163502
  58.6594582 197.3936005  23.6903477  57.6032410 197.8544617  23.2406368
  59.3817291 196.6094208  22.9794273  60.2860794 196.3409424  23.3402309
  58.9334488 195.8576050  21.7774849  58.7045555 196.5251923  20.9467983
  60.0846863 195.0039520  21.2228489  60.7280998 195.7194061  20.7107391
  60.6979713 194.5973358  22.0269909  59.8174095 193.8418274  20.1910915
  59.7068520 194.1628265  18.8179607  59.8568611 195.1560059  18.4210892
  59.3418236 193.1999969  17.8711987  59.2096443 193.4403229  16.8266087
  59.0224113 191.8722839  18.2505131  58.3496208 191.0080566  17.3742657
  58.1264687 191.4138794  16.5333710  59.0892715 191.5574493  19.6311150
  58.7305832 190.5983887  19.9745426  59.4518547 192.5093231  20.6067448
  59.5143929 192.2503510  21.6533699  57.6971817 195.0644226  22.0918369
  56.6559372 195.3783417  21.5345917  57.7168694 194.2809753  23.1471863
  58.6098633 194.0644531  23.5664501  56.4982300 193.6419678  23.6337547
  56.0930862 192.9140778  22.9307995  56.8239288 192.7691650  24.8757477
  57.4266739 191.9705963  24.4432163  57.5385513 193.2877808  25.5148525
  55.6107750 192.2930145  25.7325077  55.0083771 193.1777649  25.9385014
  55.0662918 191.5409088  25.1615601  56.0630531 191.7188873  27.0923901
  56.0566368 190.5323334  27.3079262  56.3824425 192.5670166  28.0322552
  56.7701569 192.2397308  28.9055576  56.1959686 193.5433655  27.8532276
  55.3608818 194.6225433  23.9943047  54.2053757 194.3002625  23.5960903
  55.6463356 195.7425690  24.7044067  56.5854530 195.8234711  25.0671978
  54.5884056 196.6856537  25.1421452  53.8572464 196.0857697  25.6840363
  55.2149239 197.6319733  26.1484165  55.6006317 197.0000763  26.9484482
  56.0511932 198.1832581  25.7184982  54.1933403 198.6230316  26.7193794
  53.7555885 199.1524506  25.8730984  53.3377724 198.0933990  27.1384182
  54.8981323 199.5473633  27.7025928  55.4528084 198.9089966  28.3902931
  55.5796585 200.2518768  27.2258472  53.7652206 200.4087982  28.3035603
  53.2831154 200.9578247  27.4946976  53.0143623 199.7977448  28.8044777
  54.2617950 201.4130859  29.4019241  55.0508232 201.9951630  29.1595707
  53.5159340 202.0678558  29.5892143  54.4737396 200.9742432  30.2865677
  53.9478493 197.4048920  23.9329014  52.7637215 197.6995087  23.9236298
  54.7302017 197.5943146  22.8530903  55.7152672 197.4700317  23.0382862
  54.3905907 198.2641754  21.6073227  53.7435799 199.0877075  21.9094124
  55.6510696 198.8990936  20.9718456  56.0336456 199.4810791  21.8103142
  56.2747612 198.0481262  20.6980877  55.3538780 199.7544250  19.7397423
  54.9509621 199.0650787  18.9977551  54.6111526 200.5258026  19.9433746
  56.5093193 200.4967804  19.0558491  57.4160957 199.9066010  19.1883335
  56.3112297 200.5199127  17.9842491  56.8153725 201.8715820  19.6009655
  56.3285027 202.1686707  20.4345131  57.5954056 202.7847595  19.0629749
  58.2364006 202.5674896  17.9215431  57.9652328 201.8277893  17.2895489
  58.6251221 203.3239746  17.3768291  57.8492203 203.9691925  19.5669022
  57.5160484 204.2814789  20.4677734  58.3950233 204.6392670  19.0442123
  53.5624008 197.4258118  20.6551819  52.5631447 197.9536896  20.0888577
  54.0565453 196.1857452  20.5126591  54.9374962 195.9098206  20.9224052
  53.4555244 195.2806244  19.5409584  53.2737732 195.8134613  18.6076088
  54.5053291 194.1438141  19.2839470  55.4108086 194.6542511  18.9558067
  54.7089119 193.6605377  20.2395077  54.0585251 193.1083069  18.2432137
  53.2049370 192.6041565  18.6963367  53.7416725 193.6105499  17.3291740
  55.2280769 192.1646271  17.7612896  56.0675240 192.7852173  17.4477673
  55.6160812 191.6612549  18.6468201  54.8462410 191.1056061  16.7409992
  55.6075859 190.3272095  16.6903839  53.9525719 190.5706940  17.0624676
  54.5295944 191.7349854  15.4190502  55.1864243 192.4606323  15.1698227
  54.5117798 190.9813080  14.7469149  53.6115417 192.1541138  15.4592085
  52.1790581 194.7401123  20.1431808  51.1885452 194.7068329  19.4096508
  52.0638847 194.3733673  21.4070625  52.7877579 194.5465698  22.0897789
  50.8613052 193.6278839  21.9031296  50.2845497 193.2995758  21.0384464
  51.1577187 192.2444153  22.6014500  51.6414528 192.4895020  23.5469837
  50.2056198 191.7327576  22.7422180  52.1338997 191.3962555  21.8219128
  51.6560669 190.6580963  20.7194939  50.6248779 190.7456818  20.4106693
  52.5318871 189.8749542  19.9322014  52.1944656 189.1966705  19.1624832
  53.8799706 189.7830200  20.2961864  54.5566902 189.1389618  19.7542973
  54.3838882 190.4574127  21.4369698  55.4182663 190.4589844  21.7475452
  53.5233192 191.3196106  22.1000710  53.9756622 192.0012512  22.8051662
  49.8835068 194.5514374  22.5862961  49.0638771 194.1191254  23.3625088
  50.0477867 195.8822479  22.4129314  50.7967911 196.2238770  21.8277950
  49.1573753 196.8298187  22.9206238  49.1867905 196.7162323  24.0042915
  49.5533867 198.2605896  22.5425415  50.4074478 198.5344391  23.1619644
  49.9516068 198.3207245  21.5296707  48.4686089 199.3596344  22.5630398
  48.0663147 199.9835052  23.7374687  46.9529495 200.6766968  23.3975105
  46.4688683 201.3822021  24.0565376  46.6188431 200.4496613  22.0902500
  45.8144150 200.8775024  21.6544228  47.5858383 199.6578217  21.5394688
  47.6346893 199.1771698  20.5735531  47.7113800 196.5345459  22.4426613
  46.7399559 196.7178192  23.2000465  47.4829865 196.1272430  21.1853485
  48.2847862 195.9517059  20.5967903  46.1578217 195.7587891  20.6982555
  45.5266991 196.6367950  20.8356991  46.1850662 195.6725616  19.2290897
  46.9387093 194.9638214  18.8858585  45.2554932 195.2846985  18.8124790
  46.5708733 197.3547211  18.5491943  45.3722420 197.5676117  17.9988689
  45.4024124 194.6031799  21.3375893  44.1937027 194.4406281  21.1322231
  46.0025368 193.8071136  22.1808605  46.9583702 194.0676270  22.3773479
  45.4332809 192.8246460  23.0232906  44.9705734 192.1437073  22.3089161
  46.5560150 192.0942078  23.6769123  47.0888329 192.7911835  24.3237801
  46.0969353 191.2834625  24.2426167  47.1150055 191.7171783  22.8204823
  44.3765297 193.3804474  24.0295467  43.4982605 192.5879517  24.3605328
  44.2920837 194.6817627  24.3343945  44.8660355 195.4003448  23.9168758
  43.1619453 195.2967682  25.0872726  43.1521454 194.7152405  26.0091286
  43.4604187 196.8292236  25.3566303  42.6057281 197.2196808  25.9090309
  44.3583679 196.9273071  25.9666882  43.5873108 197.5999451  24.1884289
  43.6660690 198.5257874  24.4297466  41.7659988 195.0441589  24.5147495
  40.7993202 195.1313324  25.3506317  41.5621376 194.8463440  23.1898212
  42.3946190 194.6559296  22.6505451  40.3449821 194.4143677  22.5565510
  39.5886803 194.9355011  23.1435242  40.3434067 194.7017822  21.0833683
  41.0412865 193.9635468  20.6883068  39.3328667 194.5551300  20.7020435
  40.7799606 196.1580353  20.6722355  41.8599739 196.0705261  20.7906208
  40.4885979 196.4585266  19.2015896  39.4024620 196.5118408  19.1268959
  40.9953270 197.3731689  18.8937702  40.8483543 195.5663147  18.6891212
  40.1815109 197.2517548  21.5043926  40.4103508 196.9944916  22.5385838
  40.7204628 198.1385040  21.1707630  39.1044922 197.3867188  21.4048538
  39.9023323 192.9725800  22.8731785  38.7735519 192.5542603  22.5782814
  40.7657738 192.1499023  23.5129681  41.7271461 192.4491730  23.5923176
  40.5179749 190.7664948  23.9716778  39.4717712 190.4812164  23.8613167
  41.3212433 189.7472839  23.1407108  40.8317833 188.8017578  23.3742371
  41.3853645 189.9957428  21.6175785  41.9390755 190.8651886  21.2632141
  41.7918854 189.0887756  21.1700993  40.3853645 190.0550232  21.1879425
  42.6691093 189.6823883  23.5693817  43.1180000 189.1026154  22.9497375
  40.7463722 190.5581970  25.4707832  41.2626953 191.3773499  26.1802788
  40.3890762 189.3281097  25.9140778  39.9558563 188.6619568  25.2906513
  40.4555550 188.9879761  27.3140202  40.1023941 189.8407593  27.8937950
  39.5479431 187.7358551  27.5211639  39.5944061 187.4149780  28.5618248
  38.5360756 188.0826874  27.3115578  39.8897705 186.6843109  26.5734158
  39.1325455 186.1741791  26.2767830  41.8073235 188.6192780  27.9704609
  41.8139610 188.2611694  29.1435318  42.8756332 188.7096252  27.2300911
  42.8327675 189.0884705  26.2948151  44.2985268 188.2381592  27.5687771
  44.2166672 187.7647858  28.5471992  44.7664299 187.1853027  26.5226402
  44.9484787 187.7071838  25.5831718  45.7616463 186.8021698  26.7481461
  43.8491287 185.9709778  26.3469067  42.9818954 185.7315826  25.3337898
  42.7064514 186.3379822  24.4836063  42.2560883 184.6264648  25.6218796
  41.4307213 184.3416290  25.1141987  42.6073456 184.0841217  26.8275070
  42.2026062 182.9533691  27.5169315  41.4647331 182.2914581  27.0881939
  42.8611450 182.5332794  28.6813793  42.6496658 181.5406952  29.0507679
  43.7275887 183.4340515  29.3270588  44.2130547 183.2177734  30.2672424
  44.1078339 184.6358185  28.6587429  44.6956863 185.3364105  29.2331963
  43.6229248 184.9471283  27.3463039  45.3777275 189.3398895  27.7019176
  45.2864342 190.4162750  27.0595284  46.4019279 189.0758209  28.5328350
  46.5418930 187.9450684  29.4588413  46.5758705 186.9640656  28.9849453
  45.7834244 187.9331970  30.2415867  47.8869476 188.1419830  30.1004353
  48.6473885 187.6120148  29.5268879  47.8979263 187.7846069  31.1301289
  48.1311760 189.6174011  30.0843105  49.1970940 189.8416443  30.1246338
  47.6650124 190.1246185  30.9290085  47.4532547 190.0544739  28.8016453
  46.9857368 191.0292969  28.9403934  48.4803810 190.2429047  27.6705170
  48.7693977 189.3325958  26.8958244  49.2361565 191.4023132  27.7237816
  48.8999138 192.6292267  28.4300213  49.3773422 192.7144928  29.4061832
  47.8260651 192.7970886  28.5123539  49.5215111 193.7080078  27.5675240
  49.6798363 194.5661621  28.2206764  48.8744049 194.0605164  26.7643490
  50.8162804 193.1265869  27.0097790  51.5661850 193.1856232  27.7986107
  51.0417480 193.7172089  26.1218395  50.2659836 191.7118835  26.7150345
  49.9548988 191.7233124  25.6704311  51.4696083 190.6824341  26.7433414
  52.0702019 190.3260803  25.7553921  51.7855339 190.1077881  27.9033642
  51.4103394 190.5265961  28.7423725  52.7843628 189.1141510  28.1251469
  53.6084709 189.3594360  27.4552402  53.2320442 189.1129761  29.6229286
  54.0236244 188.3743286  29.7490063  53.7869644 190.0333099  29.8050251
  52.2927322 188.9066925  30.7846394  51.8635368 189.9136658  31.6064091
  52.1156006 190.9504242  31.4390278  50.9451408 189.4215851  32.5371437
  50.3530693 190.0159607  33.0995178  50.7649231 188.0508270  32.3119507
  49.9335136 187.1366730  33.0025787  49.2755852 187.4708405  33.7911682
  49.9565735 185.7935486  32.5533676  49.2566452 185.0856323  32.9721184
  50.8330956 185.3795166  31.5178242  50.8297729 184.3950348  31.0737724
  51.6490974 186.3100281  30.8609676  52.1256332 185.9544067  29.9593887
  51.6562462 187.6708527  31.2545185  52.4147415 187.6679688  27.5674534
  53.3154449 186.8448334  27.5001507  51.1502380 187.3842468  27.2135963
  50.4464836 188.1082916  27.1896095  50.8092575 186.0311890  26.7284203
  51.3763695 185.3292084  27.3397427  49.3158646 185.7437439  26.9512749
  48.9774284 185.9894104  27.9578590  48.8197174 186.4142914  26.2496262
  48.8957443 184.2864227  26.7051086  49.2604065 184.1060638  25.6938725
  49.4056549 183.3405457  27.7488708  49.1555672 183.5136566  28.7955761
  48.9143372 182.4053040  27.4804878  50.4779778 183.1509705  27.7967339
  47.4050179 184.1340179  26.4404411  47.1370163 184.8933258  25.7057877
  47.2369461 183.1589813  25.9831009  46.8252831 184.2929077  27.3497105
  51.3260345 185.9258270  25.2970829  52.1428566 185.1145020  24.9793873
  50.9367905 186.8336945  24.3889084  50.4004784 187.5985107  24.7729816
  51.2378082 186.7312317  22.9325409  50.8373566 185.7764130  22.5918655
  50.4194527 187.7783966  22.2075901  50.6803856 188.7611542  22.6002941
  50.6420517 187.6734619  21.1457348  48.9234543 187.5912170  22.3184395
  48.2872009 186.3654785  21.8667297  48.8616867 185.6427765  21.3063107
  46.8869057 186.1654358  22.1121540  46.3634491 185.3631287  21.6134396
  46.1493263 187.1970978  22.6995316  44.7683640 187.1706696  22.7388306
  44.4266167 186.5200348  22.1211891  46.8133965 188.3610077  23.1403561
  46.1793556 189.1260681  23.5635395  48.1822472 188.5803528  22.9459591
  48.6284409 189.4905701  23.3185635  52.7424126 186.7283020  22.5522003
  53.0891953 186.0862579  21.5495338  53.6357002 187.2887115  23.3790531
  53.2128372 187.8634338  24.0938911  55.1271095 187.0036926  23.2237072
  55.5147324 187.4421539  22.3041401  55.9069443 187.7496338  24.2718029
  55.7735863 187.4099121  25.2988892  56.9331818 187.5130615  23.9907894
  55.7092896 189.1072388  24.1427002  56.0297050 189.5283966  24.9436760
  55.5534859 185.5105133  23.3341312  56.4462357 185.1245880  22.6736698
  54.7328911 184.7228394  24.0376740  53.9306183 185.1979065  24.4259605
  54.8365250 183.2169952  24.1553612  55.9001236 182.9786682  24.1476479
  54.1637497 182.7895355  25.4847069  53.0889969 182.7600403  25.3054600
  54.4249878 181.7545776  25.7054729  54.5102539 183.5871277  26.8072205
  54.1108932 184.5926819  26.6750698  53.7769814 183.0584869  28.0741253
  54.2829437 182.1110535  28.2598209  53.8123741 183.8078918  28.8648586
  52.7385216 182.7924194  27.8768997  56.0039177 183.6943512  27.1309280
  56.4647827 184.4122314  26.4524384  56.2212143 184.0450287  28.1398411
  56.5184288 182.7644806  26.8886433  54.2087212 182.4165955  23.0105305
  54.2129669 181.1882324  23.0012817  53.7350464 183.1581421  22.0357819
  53.7006798 184.1566315  22.1839275  53.2996025 182.5691986  20.7461281
  53.6875801 181.5543365  20.6587696  51.7104149 182.3633423  20.7970848
  51.1425896 183.2010193  21.2020226  51.3279266 182.0683899  19.8199425
  51.2925148 181.1889954  21.6409473  50.9591484 181.4277954  22.9881611
  51.1042519 182.4457550  23.3184605  50.3963699 180.4264984  23.8133698
  50.1117935 180.5986176  24.8408871  50.0825806 179.1439514  23.2773685
  49.4907684 178.0964050  23.9727974  49.3077011 178.1750793  24.9118900
  50.4258194 178.8582306  21.9274254  50.1917458 177.9154358  21.4554520
  51.0293388 179.8729401  21.1474419  51.1442566 179.6587982  20.0951405
  53.7555122 183.3426819  19.4740028  53.7858086 182.8300018  18.3636322
  54.4467468 184.4705200  19.6498737  54.4349594 184.9230194  20.5527554
  55.1881447 185.1402130  18.5890388  54.5295296 185.2115173  17.7234459
  55.3654366 186.6061401  18.9766712  54.3875542 187.0413666  18.7707214
  55.5589905 186.7102051  20.0442905  56.5396690 187.2433014  18.2528267
  56.4796333 187.3734436  17.0038071  57.4542809 187.8119812  18.9086933
  56.4505157 184.3993988  18.1675339  57.3186722 184.0448303  19.0033512
  56.5812607 184.1279907  16.8776455  55.8397064 184.3242798  16.2206306
  57.8414383 183.5779572  16.3200455  58.0391235 182.5897827  16.7353935
  57.6539536 183.3921204  14.8318176  57.4661674 184.3608398  14.3687477
  58.5256310 182.9306641  14.3677731  56.7532997 182.7901459  14.7112217
  59.0777092 184.3773193  16.5657520  60.0701256 183.7669220  16.9059868
  59.1558914 185.7149811  16.5301838  58.2807961 186.1992950  16.3896427
  60.4168091 186.4959564  16.6948738  61.1869431 186.0231018  16.0854492
  60.2059135 187.9505005  16.0952759  59.6246071 188.5458527  16.7993641
  61.2058067 188.3822937  16.1386414  59.6452370 188.0307312  14.6855736
  58.6430244 187.6260834  14.8267412  59.6434250 189.0921326  14.4375639
  60.4043465 187.2108002  13.6177263  61.6517410 187.0997620  13.6212950
  59.6839790 186.6517639  12.7620611  60.8845749 186.4904633  18.1348190
  62.0769539 186.4004364  18.4144516  59.9985695 186.5461426  19.1604748
  59.0174980 186.5533295  18.9205875  60.4100075 186.4983063  20.5538597
  61.2810631 187.1477051  20.6412983  59.2064705 186.7503967  21.4856071
  58.3651810 186.1359100  21.1650963  59.5585175 186.5415497  22.9503613
  60.3191948 187.2692566  23.2330647  58.7329330 186.6590424  23.6522961
  59.9200974 185.5317993  23.1446457  58.6552162 188.0985413  21.3006001
  58.0029144 188.0147552  20.6012535  60.8647156 185.0435944  20.8556633
  61.8658524 184.7936707  21.4816074  60.0793839 184.0292969  20.3748608
  59.3877258 184.2181091  19.6634808  60.5418663 182.5565338  20.5902767
  60.5512543 182.3385773  21.6582260  59.4525528 181.5859528  20.0255718
  59.1807709 181.9516754  19.0353775  59.8750572 180.5823059  20.0731754
  58.0534515 181.4540558  20.6247540  57.8017120 182.4693298  20.9312668
  56.8884125 180.9968109  19.6976833  57.1582184 180.0451050  19.2399235
  56.0157547 180.8397522  20.3316383  56.6085701 181.6921692  18.9063168
  58.0862770 180.6377106  21.9476719  58.7627029 181.1011047  22.6658783
  57.1341629 180.5483551  22.4707336  58.4623947 179.6246338  21.8051434
  61.9119377 182.1613159  20.0132256  62.6887360 181.5162201  20.7569389
  62.2859268 182.6816406  18.8512402  61.5841827 183.2558136  18.4062920
  63.6435928 182.5184479  18.3467884  63.9081573 181.4621582  18.2978897
  63.8313293 183.1245575  16.9776287  63.3698006 184.1117096  16.9527340
  64.8695679 183.3571625  16.7408791  63.2106438 182.1735077  15.9443483
  63.7538185 181.2287140  15.9236383  62.1948433 181.8785706  16.2075176
  63.1613998 182.9716492  14.3296051  64.7989349 182.7032776  13.7663946
  65.2397614 183.6787415  13.5608015  65.3675995 182.0896912  14.4651289
  64.6830139 182.2072296  12.8027563  64.6812973 183.1662598  19.2008324
  65.7833405 182.6273651  19.4401703  64.4590607 184.4403076  19.5931263
  63.6026573 184.9149017  19.3452606  65.4616241 185.0729980  20.4271564
  66.4191513 185.0886078  19.9065781  65.0953293 186.5491943  20.6857548
  64.8325653 186.9416656  19.7033978  64.2662201 186.4947510  21.3912525
  66.2346954 187.3977509  21.3594379  65.7927094 188.2981415  21.7861042
  66.7366867 186.7883759  22.1109505  67.3234863 187.7143250  20.2731113
  66.9944839 188.0801544  19.1402454  68.5295868 187.6775513  20.6922874
  65.6796265 184.3373871  21.8382511  66.8554001 184.1247864  22.1743584
  64.5745316 183.8536072  22.5261879  63.6277084 184.0552063  22.2381134
  64.8169708 182.9343567  23.6994667  65.2796478 183.5787201  24.4470043
  63.3921738 182.4555817  24.2332687  62.7521133 182.1337280  23.4117851
  63.4691620 181.7007751  25.0158653  62.5459518 183.5728302  24.8746262
  63.1630936 184.0535736  25.6336479  62.3228989 184.3722992  24.1681004
  61.2001801 183.2038116  25.5472660  60.6846504 184.1201324  25.8347950
  60.5571861 182.7420044  24.7979946  61.5139618 182.3922882  26.7559891
  62.3642197 182.5843964  27.2661438  60.6465759 181.6975250  27.4735584
  59.3859749 181.4792328  27.1190052  59.0523834 181.7949371  26.2194786
  58.8637772 180.8321991  27.6923885  61.1039658 181.2519836  28.5747814
  62.0922508 181.2881012  28.7799282  60.4558029 180.8652954  29.2459393
  65.7352448 181.7465820  23.4141922  66.7465134 181.5183105  24.1083202
  65.4917450 180.9981232  22.3040733  64.6790771 181.1670532  21.7286224
  66.3649139 179.8910828  21.8702641  66.5410080 179.1607056  22.6599808
  65.7420044 179.1051941  20.6202393  65.6374741 179.7840118  19.7738476
  66.6125259 177.9313812  20.3289070  66.8433914 177.4077606  21.2566071
  66.1559296 177.2348633  19.6257114  67.5821228 178.2090759  19.9155369
  64.3149033 178.6315765  20.9130459  63.8173294 179.4435120  21.4434223
  63.8443947 178.4789886  19.9417362  64.3326035 177.6815643  21.4471283
  67.8061752 180.2944183  21.6840668  68.7709351 179.6860352  22.1498833
  68.0423813 181.4142609  20.9786873  67.2646942 181.9249268  20.5855923
  69.4158401 182.0265808  20.7528954  69.9212952 181.2466888  20.1833477
  69.3403931 183.3077240  19.9024982  68.4781036 183.8692017  20.2620831
  70.2422714 183.9014130  20.0516186  69.0455246 183.1273499  18.4557858
  69.9369659 182.5837708  18.1428165  68.1299744 182.5958252  18.1962643
  69.0404434 184.5079651  17.8544273  68.3137589 185.1064758  18.4038143
  69.9365997 185.1096954  18.0058861  68.6212234 184.3809814  16.4117699
  69.3431015 183.6833344  15.9871607  67.6094742 183.9974365  16.2800045
  68.8202362 185.6574097  15.7407351  69.7677307 186.0062561  15.7666082
  68.6901093 185.4722137  14.7564230  68.3052292 186.4254608  16.1468906
  70.1519165 182.2176666  22.0785713  71.2666550 181.7747803  22.2393913
  69.5381241 182.8757324  23.0761681  68.6656647 183.3772736  22.9903107
  70.1459961 182.9900208  24.4344406  71.0762939 183.5503235  24.3409958
  69.1506653 183.8494873  25.2830029  68.7825928 184.5993805  24.5828094
  68.3511658 183.1737518  25.5867767  69.8381653 184.5102081  26.4738007
  70.0292053 183.7194977  27.1993237  70.6385880 185.0990753  26.0258560
  68.9382095 185.5409851  27.2296982  69.5681992 186.1245880  27.9009762
  68.5045395 186.2507935  26.5252838  67.8097687 184.8025970  27.8634167
  67.9525909 183.8572235  28.1889629  66.5793686 185.2922363  28.0010242
  66.3165436 186.5810394  27.7497120  67.0727615 187.2164154  27.5386734
  65.4149933 186.9698792  27.9866047  65.6521988 184.4852753  28.4605026
  65.9363022 183.5749817  28.7933064  64.7764206 184.9302673  28.6952343
  70.5584030 181.7022400  25.1420021  71.3594742 181.7717438  26.0678883
  70.2273636 180.4821777  24.6452217  69.5583572 180.5228424  23.8896523
  70.8443680 179.2093811  24.9044495  71.3732986 179.3217163  25.8508701
  69.7150803 178.2595520  25.1406994  69.0674210 178.6481628  25.9265862
  69.1016617 178.1157684  24.2512341  70.1599350 176.8942413  25.6251335
  69.2926331 176.2341614  25.6116676  70.7471390 176.5281677  24.7829380
  70.9293747 176.8288269  26.9244576  70.3100357 176.8036652  27.9954224
  72.2314835 176.7152405  26.8497391  72.7921295 176.7408905  27.6894512
  72.6516800 176.6703644  25.9323959  71.9225006 178.8451538  23.8852215
  73.0145035 178.4572906  24.2550087  71.6621628 178.8493500  22.5619812
  70.7946243 179.2186737  22.1999226  72.7028198 178.5810852  21.5439358
  72.8911972 177.5080872  21.5798550  72.1728210 178.8119049  20.1060810
  72.0844498 179.8983154  20.1092014  72.9220428 178.5266418  19.3675766
  70.8159790 178.1391754  19.7308006  70.0166855 178.4983978  20.3790264
  70.4761124 178.4934998  18.2468357  71.2181091 178.0787354  17.5645390
  69.4915161 178.0784454  18.0314293  70.4854660 179.5766296  18.1251011
  71.0448990 176.6451263  19.8265228  71.2146225 176.2747040  20.8375072
  70.1339569 176.1789093  19.4511204  71.8475037 176.3841705  19.1367111
  74.0952301 179.4267731  21.6845989  75.1732330 178.8978424  21.4289608
  73.9996719 180.7015381  22.1299171  73.0670624 181.0738373  22.2382030
  75.1212311 181.5108948  22.4816303  75.7460938 181.4690094  21.5895023
  74.7030258 182.9875793  22.5843124  73.7424164 182.9646454  23.0989075
  75.3846283 183.5308228  23.2388325  74.6645126 183.7230225  21.2774849
  75.8454132 184.0033112  20.5284805  75.3875656 184.8050842  19.5164299
  76.0245132 185.3531494  18.8379478  74.0968781 185.1380920  19.6618996
  73.5430374 185.7018890  19.0330124  73.5901947 184.3716125  20.7030945
  72.6120758 184.5158234  21.1377087  75.9336929 181.1663055  23.7088890
  77.1412811 181.4027252  23.6487465  75.2981262 180.5844421  24.7366943
  74.2975235 180.4589233  24.7927303  75.9708862 179.8730164  25.7879009
  76.7023087 180.5895081  26.1617527  75.0178375 179.4937439  26.9027863
  74.1659546 179.0025482  26.4325371  75.4807587 178.8166809  27.6207047
  74.3924103 180.6391602  27.7204208  73.9500504 181.3259430  26.9987946
  73.5122452 180.2386627  28.2234306  75.4567947 181.1856384  28.7784004
  76.3220901 182.0157776  28.4190025  75.3600464 180.7076874  29.9251747
  76.7029953 178.6655884  25.1531811  77.8238907 178.3494873  25.5672779
  76.1105576 177.9296875  24.2103558  75.2396011 178.2841339  23.8417091
  76.6439133 176.6934357  23.6329327  77.1787949 176.2660522  24.4810772
  75.5204926 175.7563782  23.0640068  74.9051743 176.4070129  22.4425945
  75.9546967 175.0442047  22.3623047  74.6623230 175.0383606  24.0755901
  74.9557724 174.7542419  25.3173809  75.8663254 175.0498657  25.8172817
  73.9780807 173.9432526  25.8646011  74.1747589 173.5925598  26.7911205
  73.0172653 173.5241852  24.9463024  71.8909607 172.6813202  25.0040760
  71.7642822 172.1110840  25.9124718  71.0941467 172.5958557  23.8314724
  70.2234192 171.9577484  23.7989578  71.5319061 173.2189789  22.6223812
  70.9999084 173.1021576  21.6897831  72.6957245 173.9979858  22.6715145
  73.0192184 174.3906555  21.7188492  73.3951035 174.3189392  23.9029675
  77.6695633 176.9382782  22.5322704  78.2587204 175.9654236  22.1453876
  77.8498306 178.2122345  22.0760269  77.1973801 178.8976135  22.4290962
  78.7234955 178.5478668  20.9527817  79.5640793 177.8594360  21.0398216
  77.9716797 178.3240509  19.6366844  77.4858627 177.3540802  19.7427807
  77.2154694 179.1035309  19.5436382  78.9110947 178.3305511  18.3799629
  80.1366043 178.5581665  18.4951706  78.4472198 178.1138458  17.2232780
  79.3367081 179.9720154  21.0112858  78.8591461 180.9516602  20.4356785
  80.3920746 180.0091553  21.7920780  80.6031494 179.1232300  22.2287254
  80.9399414 181.2994232  22.3296623  80.1883240 181.9412537  22.7892570
  81.8983765 180.8899384  23.5032864  82.7081985 180.2179718  23.2191296
  82.3371811 181.8368378  23.8178139  81.1735382 180.3311310  24.7170334
  81.7219391 180.7610016  25.5552254  80.1435852 180.6771088  24.8041592
  81.1307983 178.7957458  24.8771172  80.8157501 178.0653839  23.8986912
  81.4906082 178.3799896  25.9535770  81.6378326 182.1739807  21.2559929
  81.8748703 183.3495026  21.5431747  81.9101334 181.7296906  20.0707970
  81.5300217 180.8237457  19.8365459  82.5454025 182.5266876  19.0044518
  82.9799805 183.4469604  19.3947392  83.7500076 181.8021698  18.3490162
  83.4581146 180.7621765  18.2030201  83.9911652 182.1414948  17.3416405
  85.0338440 181.8259125  19.2934513  85.2301331 180.9204559  20.0774422
  85.9067764 182.8226318  19.0830536  86.8364487 182.8209381  19.4777775
  85.7516174 183.4908600  18.3417797  81.5158463 182.9963531  17.8866119
  81.7864075 183.7919464  16.9803581  80.3109970 182.4445648  17.8845119
  80.0819244 181.7306824  18.5612621  79.2974396 182.6626282  16.8544445
  79.7327347 182.3527679  15.9043884  78.1252289 181.7218933  17.2159901
  78.4770737 180.7020416  17.0603104  77.7957916 181.9852295  18.2210884
  76.8894348 181.7810211  16.2540054  77.1777878 182.0899200  15.2492447
  76.1948395 180.4567566  16.1361275  76.0864182 180.0315247  17.1338844
  75.2306519 180.6055603  15.6500206  76.8037033 179.7403412  15.5846443
  75.9047546 182.7970734  16.8808022  76.4015427 183.7259979  17.1607952
  75.0617828 182.9178772  16.2004318  75.5277023 182.3930511  17.8203259
  78.9428940 184.1498108  16.7287865  78.7601700 184.8301239  17.7595215
  78.6485901 184.5106964  15.4555302  78.9413834 183.9126587  14.6961060
  77.7410431 185.5881653  15.0472994  77.3619537 186.1951141  15.8694925
  78.5011139 186.4307251  13.9895725  78.8899231 185.7347870  13.2462091
  77.7812653 187.0912476  13.5062199  79.6752625 187.2709503  14.5376053
  79.2389069 188.2595978  14.6800108  79.9707642 186.9283447  15.5292730
  80.9437408 187.3015137  13.6591825  81.7894516 187.7153168  14.2084160
  81.2413712 186.2697601  13.4721003  80.7975388 187.9412231  12.2921619
  81.4881821 187.5431366  11.5487623  79.8217316 187.6610413  11.8954315
  80.9307327 189.3484344  12.3903627  81.9045029 189.5232239  12.5936260
  80.6021957 189.9161072  11.6223087  80.5072937 189.6521912  13.2555399
  76.5063400 185.0595856  14.3812943  76.5162277 183.9531097  13.8600569
  75.4386597 185.8652496  14.4115639  75.4424591 186.6837921  15.0032454
  74.1119232 185.4518738  13.9382362  73.8711014 184.5651245  14.5245733
  73.0782242 186.4328156  14.3984203  73.3919983 187.4380341  14.1170321
  72.1897812 186.1035614  13.8595629  72.7324371 186.4955444  15.8777151
  73.6287918 186.3660736  16.7192478  71.4982834 186.5138397  16.2148933
  74.0279007 185.2173615  12.4000244  73.0503693 184.6472168  11.8825045
  75.0663528 185.6571045  11.6443501  75.7783737 186.0529633  12.2413568
  75.2540283 185.6526794  10.1975441  74.3935776 186.2144165   9.8339787
  76.5619278 186.3324890   9.9192400  77.2940140 185.7517242  10.4803600
  76.7132645 186.3807373   8.8408737  76.7953186 187.7852478  10.4205570
  76.6750946 187.9904785  11.4842920  77.8111649 188.0509186  10.1280365
  75.8070450 188.7360229   9.6867762  75.5664215 188.5646515   8.4820738
  75.2411194 189.6920013  10.2991495  75.2248993 184.2364197   9.5146847
  75.2344589 184.0294647   8.3219299  75.1638184 183.1717072  10.3192377
  75.2769470 183.3927460  11.2982445  75.2010651 181.7079010   9.9060183
  75.2480240 181.5215302   8.8330965  76.4673615 181.0984039  10.4665337
  76.8508530 180.2467346   9.9046602  77.2949371 181.8018188  10.3748188
  76.2364655 180.7405396  11.8309269  76.2999802 181.5451355  12.3507395
  73.8143234 180.9782257  10.2440710  73.6724625 179.8083496   9.8577900
  72.9043503 181.6213989  10.8834944  73.0554581 182.6150208  10.9833841
  71.5495453 181.1405640  11.1487732  71.4807053 180.0533142  11.1133299
  71.1760406 181.5195770  12.6150312  71.2045212 182.6091156  12.6297312
  70.2549057 181.0536194  12.9650049  72.2616196 180.9952698  13.6402016
  73.2361298 181.2875366  13.2490301  72.1865311 181.4993591  15.1030722
  71.2293549 181.2000122  15.5300570  72.9475784 181.1076355  15.7779512
  72.3169174 182.5809326  15.1387386  72.1733170 179.4468079  13.6701555
  72.5352020 179.0893402  12.7061234  72.8692169 179.0122070  14.3877516
  71.1234131 179.1596680  13.7280893  70.4861526 181.7040558  10.1926594
  70.5986710 182.8369598   9.7314520  69.4074707 180.9459229   9.9882174
  69.4077148 179.5103912   9.9950752  69.0223770 179.0841827  10.9213381
  70.3999939 179.1315155   9.7502308  68.3889008 179.1524506   8.8817310
  68.0069656 178.1389771   9.0046196  68.9538193 179.2854462   7.9590812
  67.3010025 180.2571259   9.0819025  66.6713104 180.0208588   9.9396687
  66.7792435 180.2492676   8.1249170  68.2342377 181.4674530   9.3011713
  68.5746613 181.8973236   8.3591442  67.4958115 182.4910736  10.1104670
  67.3254089 182.3195953  11.2955666  67.1791153 183.6068573   9.5298138
  67.4910431 183.7667999   8.5825968  66.2636490 184.5853119  10.0847692
  66.4097519 184.6204376  11.1643620  66.4625092 186.0281219   9.5856495
  65.7427597 186.7260437  10.0133896  67.8483124 186.4623108  10.0451155
  68.5378723 186.1215820   9.2727642  67.9187241 187.5470581  10.1255398
  67.9982071 186.0263367  11.0328245  66.4059143 186.1734772   8.1495533
  66.2115173 187.0733032   7.8772945  64.7516251 184.2357941   9.9143152
  63.8617058 184.9241180  10.4156046  64.3960648 183.0597992   9.3255672
  65.0983276 182.4708099   8.9012918  63.0102234 182.6048431   9.1415577
  62.3368301 183.4604034   9.1930285  63.0048370 181.9863586   7.7726693
  63.4614754 182.5827637   6.9828029  63.5555496 181.0536346   7.8944759
  61.6614761 181.8173523   7.1981940  60.8118935 182.6602631   7.3448753
  61.3863029 180.6342163   6.6802654  60.4566689 180.5910339   6.2878218
  62.1654701 180.0710449   6.3706741  62.6771317 181.5949707  10.2489538
  63.5609360 180.7857513  10.5027895  61.5041885 181.5486450  10.9056787
  60.3814583 182.4752502  10.7539568  60.0317726 182.6868134   9.7434835
  60.6579285 183.4553223  11.1426916  59.2949371 181.9206085  11.6414690
  58.6456337 181.2702332  11.0553608  58.7701187 182.7080231  12.1824322
  59.9785423 181.0258026  12.6857128  59.2795792 180.2568054  13.0146332
  60.2562332 181.5252838  13.6138868  61.2745667 180.5498352  11.9797945
  62.0148582 180.6493530  12.7736235  61.1672897 179.1151581  11.5663738
  61.6863823 178.2631073  12.3004198  60.6905403 178.8117981  10.3575220
  60.2732697 179.5709686   9.8382502  60.6436729 177.4725037   9.7898502
  59.9838181 176.8653107  10.4095459  60.0751076 177.4712372   8.3493443
  60.5925179 178.2706299   7.8189297  60.3599510 176.2357178   7.5439186
  59.9943047 175.3743744   8.1029301  59.8073082 176.1784821   6.6061502
  61.4398804 176.1788483   7.4074440  58.5854034 177.7236481   8.4040995
  58.0541649 177.1017456   7.6835985  58.1547432 177.4733276   9.3736200
  58.1909523 179.1910858   8.1403103  58.5537033 179.4067993   7.1353283
  57.1012650 179.2152863   8.1307840  58.7067146 179.8711395   8.8182640
  61.9957886 176.8699646   9.8282471  62.2158432 175.8604279  10.5113306
  62.9534721 177.4621429   9.1221676  62.6885529 178.2871857   8.6032953
  64.2544250 176.8330383   8.9233799  64.0982056 175.7851562   8.6671457
  65.0069199 177.5401764   7.7702098  65.0802460 178.5589447   8.1507740
  66.0257645 177.2066956   7.5731463  64.2178116 177.7505188   6.4296021
  63.5688438 178.7950897   6.2519813  64.1797485 176.8385010   5.5529237
  65.1725616 176.8995209  10.1432810  65.9438400 175.9934845  10.4437704
  65.0250015 177.9004211  11.0163565  64.4793854 178.6916962  10.7060595
  65.5930786 177.9426575  12.3196392  66.6667786 177.7975769  12.2003622
  65.2912903 179.2707825  12.9454165  65.5974045 180.0125732  12.2077665
  64.2185974 179.4513245  13.0149899  65.9616013 179.4787445  14.2822313
  65.4127045 178.7981567  15.3670578  64.4742966 178.2666321  15.3097782
  65.9732056 178.9929047  16.6455936  65.6130524 178.4797516  17.5250092
  67.0948792 179.8275909  16.8512688  67.5375900 180.0133362  17.8186932
  67.7045517 180.4351196  15.7028694  68.6301880 180.9473419  15.9202051
  67.1712723 180.1989594  14.4518013  67.6457520 180.5579987  13.5504885
  65.1095581 176.7667999  13.2412720  65.9283295 176.0922241  13.8020697
  63.7650528 176.5278931  13.3939238  63.1263809 177.0816193  12.8411369
  63.2893219 175.5023193  14.2527494  63.7404633 175.5126343  15.2449541
  61.7792206 175.6984863  14.5809450  61.3917503 174.9012451  15.2152681
  61.6246300 176.6555634  15.0791512  61.0068169 175.6959991  13.3603325
  61.0425758 176.5538025  12.9308062  63.7065811 174.1352234  13.6525984
  64.1275406 173.1898193  14.3678551  63.7191544 174.0410156  12.2686415
  63.2620697 174.7678375  11.7367535  64.1718063 172.7891235  11.5825644
  63.5610695 172.0232239  12.0605841  63.7685432 172.8066864  10.1320086
  63.9250450 173.8340912   9.8032808  64.4603577 172.1707458   9.5796728
  62.4373665 172.2942200   9.7292624  61.8558159 171.1323853  10.1959791
  62.4436111 170.5219116  10.8654747  60.5929527 170.6980438   9.7654419
  60.1991653 169.7615814  10.1320314  59.9865227 171.4557800   8.7411966
  58.6983719 171.1956635   8.3532438  58.5410385 171.6651611   7.5307999
  60.5313072 172.6404572   8.2136593  60.0635109 173.1420593   7.3794122
  61.7982941 173.0183868   8.7225094  62.3209534 173.8424988   8.2598400
  65.6630936 172.4894867  11.8469858  65.9758682 171.4152069  12.3240433
  66.5559540 173.4964447  11.8788490  66.1960449 174.3785706  11.5435667
  67.9011154 173.4672394  12.4300938  68.5351868 172.7118378  11.9659529
  68.5956345 174.8303986  12.1718559  68.6767654 175.0941772  11.1173697
  67.9391403 175.5830536  12.6084728  69.9993362 174.9162140  12.7924252
  70.2433472 175.9779205  12.7557993  70.0166626 174.5679321  13.8251438
  71.1430206 174.1974487  12.1220808  72.0237198 174.6623993  12.5651302
  71.1690521 173.1293945  12.3381271  71.1380234 174.4508362  10.6495962
  70.4212646 173.9665070  10.1282816  71.8637772 175.3827362   9.9854212
  72.6991653 176.2751770  10.5714970  72.7913971 176.2949829  11.5770817
  73.3773346 176.7167816   9.9672089  71.7113953 175.5322723   8.7070141
  71.2094193 174.8575439   8.1476727  72.3306198 176.1837921   8.2464037
  67.9373856 173.0201111  13.8682756  68.6288834 172.0659485  14.1806355
  67.2505493 173.6770172  14.7864141  66.5395813 174.2956238  14.4231701
  67.3299179 173.3016510  16.2513943  68.3746185 173.2867737  16.5620174
  66.6291580 174.2666168  17.1319103  65.5914993 174.4608154  16.8604908
  66.6341705 173.7770081  18.6011124  67.6849899 173.6302643  18.8508053
  66.1850967 174.5614014  19.2103443  66.1732635 172.8069000  18.7869606
  67.2839737 175.6260223  17.0837746  66.9569778 176.0785217  16.1476002
  67.0483932 176.2222595  17.9653091  68.3718185 175.5688934  17.0460663
  66.7597427 171.8613129  16.4909859  67.3474197 171.0705414  17.2915821
  65.6164246 171.4896393  15.8309097  65.2101440 172.2286835  15.2751760
  64.8941269 170.2692719  15.9722471  64.4402924 170.1666412  16.9579487
  63.6362152 170.2483215  15.0961294  63.8823814 170.3840027  14.0429935
  63.0639000 169.3216248  15.1383085  63.0583038 171.1190491  15.4059067
  65.8777924 169.1359406  15.6172266  65.8268738 168.0579681  16.2390652
  66.7917557 169.2751923  14.6454430  66.7556229 170.1844025  14.2070856
  67.8180313 168.3336945  14.2366371  67.3050995 167.4133911  13.9572687
  68.5411301 168.9718933  12.9832668  68.9871216 169.9500580  13.1632566
  69.2953568 168.2606354  12.6465874  67.8285675 169.0774536  12.1652155
  68.7244644 168.1057281  15.4072256  68.9343872 167.0237122  15.9069128
  69.3973465 169.1369324  15.9471083  69.1041718 170.0592804  15.6582785
  70.6449509 169.0491486  16.8483028  71.2898483 168.2318268  16.5254917
  71.5142441 170.2940521  16.6219940  72.4180298 170.3402252  17.2295647
  71.8171234 170.3758545  15.5781202  70.6273117 171.7946625  17.0621624
  69.8300552 171.9578705  16.0026169  70.3573914 168.8370361  18.3019829
  71.3029480 168.7033234  19.1175079  69.0749588 168.7585754  18.7203789
  68.3729095 168.7754059  17.9944649  68.6692886 168.5764771  20.0899334
  69.3647461 169.2158356  20.6336689  67.2224045 168.9919128  20.3976440
  66.6488647 168.6487122  19.5366173  66.8084412 168.4788513  21.2656860
  67.0412674 170.5038147  20.6598587  67.5213852 171.0291138  19.8342419
  65.5595627 170.7391510  20.7693043  65.1190720 170.2068787  21.6123714
  65.5108719 171.7926788  21.0446091  65.1243362 170.5531006  19.7874336
  67.7363358 170.9344330  21.9702435  68.8172913 170.8568420  21.8535385
  67.4872513 171.9669800  22.2150497  67.3219147 170.3403168  22.7847195
  68.9365921 167.0713196  20.5270920  68.4472046 166.1076355  19.8490028
  69.6441345 166.7504272  21.6402550  70.4716263 167.6984406  22.4507389
  69.9702530 168.5299683  22.9460068  71.1420212 168.1905670  21.7461224
  71.2863235 166.8393707  23.4506073  70.7047501 166.8062134  24.3718929
  72.2669678 167.2642517  23.6649151  71.2465057 165.4204407  22.8548527
  71.3811722 164.6596985  23.6237793  72.0272980 165.3539429  22.0971947
  69.9238815 165.3724518  22.0704861  70.0563431 164.7149506  21.2112656
  68.9026489 164.7218170  22.9333267  68.8461304 164.8151398  24.1335602
  67.8927994 164.0899048  22.3078957  67.8662872 164.0698547  21.2984428
  66.6428299 163.5048065  22.9111633  66.7943802 163.2924194  23.9694767
  65.4697189 164.4792175  22.7391739  64.4969635 163.9881134  22.7136192
  65.3221588 165.4889221  24.0087032  66.1970444 166.1378021  24.0490761
  64.3270874 165.9308624  23.9576187  65.5066910 164.9087677  24.9128437
  65.5488739 165.3945160  21.4573002  66.3223190 166.1320190  21.6717300
  65.9317551 164.7524109  20.6640835  64.2243271 166.0195007  21.0528507
  63.9758110 166.7996216  21.7724037  64.5041809 166.4986572  20.1146622
  63.4607201 165.2705231  20.8430386  66.2834167 162.1661377  22.2679062
  66.7997971 161.8402557  21.1841621  65.5395508 161.3084412  22.9418793
  65.1555862 161.5686035  23.8390903  65.0940857 160.0024261  22.2824383
  65.9575195 159.4966583  21.8502464  64.6137161 159.1116486  23.4693394
  64.4188080 158.0934906  23.1325054  65.4052124 159.0017090  24.2106609
  63.3188438 159.6097107  24.1200542  63.2819099 160.8212738  24.5212383
  62.4009094 158.7549286  24.3089294  64.0280838 160.0446930  21.2367592
  63.4824638 161.0777283  20.9135475  63.9582634 158.9440460  20.5204773
  64.4012070 158.0885468  20.8238335  63.2916679 158.9311218  19.1814957
  63.5741653 159.8208618  18.6187630  63.5796509 157.7499695  18.2212086
  63.3038673 156.8221741  18.7224579  63.1533508 157.8022919  17.2193966
  65.0835419 157.6198730  18.0269241  65.6655197 158.5509644  17.4320011
  65.7988358 156.6356964  18.4001465  61.7406158 158.9828796  19.3176823
  61.0646172 159.4544373  18.4160671  61.1886520 158.5232544  20.4561424
  61.8087692 158.1268005  21.1477928  59.7369499 158.6398163  20.7445812
  59.2525291 158.3251495  19.8202324  59.3403816 157.7129669  21.9633904
  59.7529449 158.0493317  22.9145737  58.2624893 157.7850189  22.1084843
  59.5233154 156.6537170  21.7827320  59.3246880 160.0808716  20.9169559
  58.1994057 160.4170074  20.4476566  60.1851654 160.9737244  21.4315624
  61.0984192 160.6247864  21.6851616  60.1176224 162.4346771  21.5107174
  59.0794754 162.6994629  21.7113361  60.9561806 162.9537048  22.6568470
  60.5661278 162.5197601  23.5775261  61.9993668 162.6622009  22.5348167
  60.9319649 164.4614258  22.9070473  61.4955177 164.9441833  22.1086464
  59.5430641 165.0499115  23.0353031  58.9503021 164.5254669  23.7847633
  59.6814117 166.0919189  23.3237286  59.0551682 165.0565186  22.0606155
  61.7380028 164.6849365  24.1772499  62.6792679 164.1353455  24.1856899
  61.9954796 165.7440033  24.1899376  61.1438408 164.4771729  25.0671406
  60.5207596 163.1032562  20.1705132  59.7980461 164.0871124  19.8210239
  61.5111008 162.7203064  19.4240570  62.0568771 161.9937286  19.8648643
  61.7787857 163.3417816  18.0865860  61.7149544 164.4299164  18.0877171
  63.1555748 162.9173431  17.5322571  63.1808052 161.8300629  17.6050282
  63.2868996 163.1961212  16.4867268  64.3021393 163.5947723  18.3679981
  64.4310989 164.6582031  18.1664925  64.0403519 163.4885712  19.4207497
  65.5864639 162.8881531  18.1191025  66.2841110 163.1382751  18.9183674
  65.3616028 161.8281403  18.2370110  66.2751083 163.1604156  16.7850552
  66.3227234 162.3496399  16.1846695  67.0298233 164.1900330  16.4704247
  67.2266235 165.1714478  17.2681599  66.9066391 165.1399536  18.2256145
  67.8070602 165.9335480  16.9481621  67.6831360 164.2464600  15.3644562
  67.5664978 163.5227661  14.6696405  68.2448959 165.0483398  15.1164379
  60.6455383 162.9579315  17.0813141  60.4801483 163.7075348  16.1183395
  59.7366524 161.9558716  17.3642273  60.0344238 161.2911224  18.0638924
  58.4435234 161.6785126  16.6436005  58.6619682 161.8331451  15.5869656
  58.0057144 160.2019348  16.8698845  57.9992599 160.0131836  17.9433994
  56.5428963 159.9680939  16.4024296  56.3496170 160.3208313  15.3893566
  56.3749466 158.8914185  16.3766041  55.8626289 160.4289093  17.1186600
  58.9332314 159.1959381  16.1091213  58.5796623 159.0854187  15.0840015
  59.9729691 159.5161133  16.0417118  58.8705482 157.7528381  16.6833763
  57.8529396 157.3648834  16.6380196  59.4276314 157.1181183  15.9942493
  59.3755341 157.7037659  17.6480961  57.4280586 162.7303772  17.0328064
  56.8237190 163.2696991  16.1114464  57.3460121 163.0479431  18.3650913
  58.0183563 162.5893555  18.9632168  56.4383240 164.0456696  18.9715633
  55.4665489 163.6932678  18.6257687  56.4747047 164.1748657  20.5086021
  57.4439812 164.5111237  20.8767605  55.7842255 164.9582825  20.8210125
  56.0145645 162.9635620  21.2934284  56.9062347 162.3480988  21.4127159
  55.6728363 163.2917786  22.2750549  54.9375076 162.0297089  20.6404686
  53.8892021 162.4270630  20.1532402  55.1611557 160.7263489  20.7985249
  54.4681625 160.0492249  20.5133038  56.0937233 160.4092560  21.0218582
  56.7683754 165.4311371  18.3438129  55.9829178 166.1028290  17.7688560
  58.0756569 165.8882904  18.3725681  58.7372055 165.4096832  18.9670353
  58.5559349 167.0184631  17.6924343  58.0259171 167.8821869  18.0938873
  60.0108109 167.1964417  17.9688129  60.3077812 166.8802185  18.9687729
  60.6124382 166.6563416  17.2377567  60.5790253 168.6206360  17.8386936
  60.3824615 168.9300842  16.8121891  59.8765755 169.5640869  18.7907696
  60.0461121 169.1997223  19.8039780  60.2254181 170.5895996  18.6694050
  58.8164597 169.6826935  18.5667324  62.0654106 168.6067505  18.1718006
  62.7005501 168.1085510  17.4393368  62.3964920 169.6267242  18.3671036
  62.2902489 168.1728821  19.1461220  58.3497772 166.9986725  16.1976089
  57.9793320 167.9750061  15.5890427  58.7551918 165.9312439  15.4555159
  59.0662537 165.1109009  15.9558783  58.4476700 165.7935486  14.0109959
  58.9526634 166.6477051  13.5598679  59.0370750 164.4888763  13.4975138
  60.0881348 164.4412537  13.7822886  58.5246506 163.6588440  13.9839191
  58.9634399 164.1713715  11.9886932  57.9950638 164.3659210  11.5277205
  59.9482918 165.0916595  11.2786465  60.9651222 164.8853760  11.6127119
  59.9674759 164.9676361  10.1958952  59.6448746 166.1337738  11.3789673
  59.3622208 162.7197723  11.6195965  58.6011353 162.0923157  12.0834236
  59.3622627 162.5451813  10.5436687  60.3178062 162.5510712  12.1160803
  56.9738922 165.9139404  13.6608839  56.6422157 166.6312103  12.7020416
  56.0438843 165.3241882  14.4400082  56.3801689 164.7820740  15.2230320
  54.5450020 165.3806610  14.3293295  54.1905632 164.9116516  13.4114466
  54.0274162 164.5556793  15.4747438  54.7513466 164.4703217  16.2851353
  53.2045670 165.0582581  15.9831257  53.5224495 163.1418304  15.1678829
  52.7170372 163.1804657  14.4344521  54.3255920 162.6246643  14.6428919
  52.9884186 162.4300232  16.4439201  53.8381004 162.3475037  17.1216602
  52.2382507 163.0074310  16.9842434  52.3036537 161.1642303  15.9551392
  51.6384430 161.4622650  15.1447277  53.0585175 160.5717468  15.4381809
  51.6089439 160.3728485  16.9837990  50.7670021 160.8738251  17.2292728
  51.3383560 159.4989319  16.5558529  52.0747261 160.2906342  17.8762035
  53.9315910 166.7845459  14.4142714  52.8116112 166.9979248  13.9965258
  54.5965271 167.7270813  15.1208267  55.5034637 167.4809418  15.4909611
  54.1335182 169.1286926  15.2488222  53.1861076 169.1950989  15.7837105
  55.2244873 169.8122253  16.1290035  56.2055969 169.5143585  15.7591362
  55.3137131 171.3630829  16.0313835  54.4115334 171.8982544  16.3276405
  56.1252670 171.6762848  16.6881847  55.5342216 171.6580200  15.0054731
  54.9950523 169.4044342  17.6195850  54.7701721 168.3386078  17.5801907
  55.8690147 169.6616058  18.2180405  53.7350502 170.0688019  18.2486610
  52.8467789 170.0675659  17.6169395  53.4435692 169.5001678  19.1317291
  53.9648285 171.0681305  18.6183167  53.9798775 169.8610077  13.8943434
  54.5669975 169.4803009  12.8635607  52.9309387 170.6962280  13.8224754
  52.4227066 170.9041138  14.6701651  52.3259125 171.2241516  12.6299953
  52.4976349 170.5132904  11.8217402  51.2790108 171.3851776  12.8872433
  52.9756203 172.4836426  12.2533035  53.2383537 172.8240204  11.1249409
  53.3754539 173.3086700  13.2998285  53.1787415 172.9857635  14.2363844
  53.9166756 174.6566467  13.0790215  54.0321541 174.7472382  11.9989471
  52.7979546 175.6316833  13.5445509  51.8604698 175.3916016  13.0429735
  52.5646515 175.4664001  14.5963840  52.9661179 177.0241547  13.2835779
  52.3149490 177.3146057  12.6407576  55.3013458 174.9681702  13.7622461
  55.5617371 174.4822845  14.8518953  56.0503807 175.8988037  13.1972561
  55.7475090 176.3290253  12.3351183  57.3044930 176.3791656  13.8154125
  57.8856659 175.4587708  13.8722982  57.9788628 177.3755951  12.8623896
  57.2089233 178.0746002  12.5357265  58.7787590 177.8381348  13.4405928
  58.3349304 176.8643341  11.9680080  57.0915451 177.0989075  15.2328377
  57.9575043 176.9643250  16.0642757  55.9723473 177.8037109  15.3831968
  55.3082886 177.7567444  14.6236429  55.5675278 178.3546295  16.6871548
  56.3414154 178.9730682  17.1418266  54.2419357 179.1403656  16.5259037
  53.5957527 178.4556580  15.9766226  53.5435295 179.3290863  17.9245510
  54.1202545 180.0218048  18.5374508  52.5725136 179.7944489  17.7552109
  53.3707466 178.3997192  18.4672356  54.5642624 180.4386139  15.7352943
  54.7207565 181.2228851  16.4759216  55.4923592 180.2753906  15.1874714
  53.4507523 180.8441467  14.8098583  52.5298119 181.0011139  15.3713999
  53.7948380 181.7573090  14.3242483  53.3284683 179.9935608  14.1393032
  55.3546638 177.2782288  17.7500134  55.8293762 177.4158630  18.8533611
  54.6444092 176.2067108  17.4451752  54.2341576 176.1585693  16.5235062
  54.5120010 175.0616913  18.2945633  54.0819359 175.3019104  19.2669010
  53.5461197 174.1573944  17.5513916  53.8572693 174.2894440  16.5151253
  53.6332054 173.1086426  17.8353882  51.9759293 174.4649811  17.5903645
  51.6458893 174.2629089  18.6093540  51.8134766 175.5261688  17.4017048
  51.2219772 173.6183624  16.5763340  51.8343811 172.9258423  15.7512798
  49.9066162 173.5924377  16.6184139  49.3764534 173.1000824  15.9137096
  49.5062408 174.3206177  17.1924744  55.8293152 174.2703705  18.4160366
  56.0706673 173.7845154  19.4673328  56.6870308 174.0865173  17.3914661
  56.5554924 174.5351868  16.4962082  57.9893417 173.5027771  17.5260944
  57.8535576 172.4987335  17.9280472  58.4929886 173.1949463  16.0743694
  57.6101074 173.0815582  15.4452686  59.0241394 174.0795746  15.7230549
  59.4133224 171.9045715  15.9219875  60.3950577 172.1573029  16.3225136
  58.9266586 171.0995789  16.4726849  59.4604111 171.4529877  14.4548798
  60.1823273 170.6376190  14.4089108  58.4815941 171.0386047  14.2134266
  59.8764915 172.5417786  13.5543098  60.6200752 173.1551819  13.8558483
  59.2432060 172.8312225  12.4173450  58.3020706 172.0523682  11.8384819
  58.1331062 171.1153717  12.1755114  57.9323387 172.3540955  10.9483347
  59.6007805 173.8871765  11.8291702  60.1869812 174.5917053  12.2535629
  59.0722198 174.0674744  10.9876165  58.9010735 174.2360992  18.4277782
  59.4507370 173.6711578  19.3454056  59.0328102 175.5802612  18.2810535
  58.5503540 175.9658203  17.4818783  59.6893578 176.5158234  19.1812191
  60.7260895 176.1871643  19.2538357  59.5587769 177.9092255  18.5303001
  58.5210457 178.0011749  18.2097340  59.7910728 178.6917725  19.2526398
  60.3515816 178.2934723  17.2302246  60.2134018 177.5428925  16.4520016
  59.9179955 179.7049103  16.8008461  60.3308487 180.4571075  17.4730453
  60.0971375 179.8049927  15.7303343  58.8313789 179.7857666  16.7720699
  61.8833694 178.3778229  17.4270897  62.2335854 177.3581543  17.5875359
  62.3532295 178.7493286  16.5164185  62.1561279 179.0129242  18.2699070
  59.1711044 176.4112244  20.6126308  60.0260086 176.3777313  21.5307961
  57.8272934 176.2226105  20.8230286  57.1967468 176.2979431  20.0376396
  57.2432861 176.0372772  22.2013760  57.6340218 176.7712402  22.9061527
  55.7191162 176.1680145  22.0698318  55.4196587 175.6754303  21.1447430
  55.1912384 175.6540985  22.8731747  55.3309975 177.6126404  22.0108242
  55.7437477 178.0474854  22.9211292  55.6984100 178.1591644  21.1422386
  53.8137970 177.7997894  22.1246166  53.5641022 178.8589935  22.1865883
  53.4258118 177.4489288  21.1683388  53.1849403 177.0892944  23.2578087
  52.8207588 176.1654968  23.0732250  52.9437180 177.5227356  24.4852180
  53.3387833 178.7284241  24.8816128  53.7702293 179.3541107  24.2164268
  52.9790421 179.1277924  25.7367115  52.4038811 176.6677246  25.3425159
  52.1841927 175.7195740  25.0726318  52.6629829 176.8763428  26.2961636
  57.6420441 174.6997223  22.7877789  58.0875397 174.6224060  23.9863586
  57.5785065 173.6593628  21.9347839  57.1910439 173.7957916  21.0120926
  58.1092567 172.2974396  22.2876549  57.5056648 171.9328766  23.1188488
  57.8376007 171.3183746  21.1417255  56.8413544 171.4508820  20.7197819
  58.5578308 171.5339508  20.3524818  58.1993103 169.6386719  21.7011719
  56.9237518 169.2480927  21.6283798  59.5712891 172.3730316  22.6781387
  59.9390144 171.9011230  23.7579651  60.3747482 172.9670868  21.8285236
  59.9696732 173.2170105  20.9377098  61.7925797 173.1125641  22.1029835
  62.1256065 172.0838776  22.2407532  62.5427055 173.8576813  20.9345360
  61.9026794 174.6860657  20.6308231  63.4639854 174.1687469  21.4270592
  62.7714157 173.1349487  19.6244850  63.7427292 172.6421051  19.6664047
  61.9974976 172.3820496  19.4751015  62.7542458 174.0189819  18.3837337
  63.1171265 175.2374878  18.4194088  62.4258308 173.4563599  17.2916298
  62.0200119 173.8428345  23.4312630  62.8268318 173.3932495  24.2674618
  61.2613487 174.9258881  23.7013893  60.6386948 175.3027802  23.0011330
  61.4908066 175.6988373  24.9313393  62.5543060 175.9370575  24.9134655
  60.7815018 177.0953064  24.8267460  59.7857971 176.9738922  24.4002056
  60.6782837 177.4926453  25.8364792  61.6333656 178.0600586  23.9695015
  62.0250511 177.4688568  23.1417503  60.9471474 179.3571167  23.5406189
  60.6842690 179.9378052  24.4248066  61.5888405 179.8490906  22.8096619
  60.1439476 179.0747223  22.8600178  62.8827019 178.5478516  24.6439686
  63.4177055 177.6939850  25.0596256  63.5545502 178.9734802  23.8986015
  62.6395226 179.2962646  25.3981895  61.1742744 174.9985199  26.2398586
  61.7657928 175.2666779  27.2765350  60.2326622 174.0114594  26.1723118
  59.7411194 173.8964691  25.2975197  59.8838997 173.0945282  27.2574635
  59.6437340 173.5883026  28.1990623  58.5215836 172.4532776  26.8939342
  57.7950897 173.2658386  26.8873501  58.5547180 171.9334869  25.9364204
  57.9431000 171.3908997  27.8102379  58.1074524 171.4308319  29.0351849
  57.2429428 170.5343475  27.2976151  60.9739876 172.0091095  27.5431423
  61.3905563 171.8583679  28.6519165  61.4814568 171.3470612  26.4871960
  61.2395935 171.7482605  25.5924129  62.6747932 170.4962311  26.5613861
  62.3976021 169.7724915  27.3278522  63.0061760 169.8949738  25.1623020
  63.0268707 170.7411804  24.4755726  64.3681412 169.1964264  25.1125660
  64.6420517 168.6398926  26.0088654  64.3771973 168.4541321  24.3144245
  65.1470337 169.9473572  24.9801483  61.8582115 168.8750916  24.7783566
  61.8747749 167.9733276  25.3904400  60.8790359 169.2971954  25.0045147
  61.7728500 168.4832458  23.2789364  62.5480385 167.7724609  22.9926300
  60.8227081 168.0244446  23.0053844  61.9005127 169.3365631  22.6128483
  63.8589935 171.2769928  27.1593513  64.5040894 170.7026215  28.0906410
  64.2334900 172.4967346  26.7375565  63.7192078 172.8455048  25.9413300
  65.4424057 173.2060547  27.1602097  66.2635574 172.4999390  27.0368443
  65.6785660 174.4844971  26.3474255  64.8117371 175.1397858  26.2619247
  66.4724197 175.0713654  26.8094616  66.1300430 174.1323547  24.8733940
  66.7679367 173.2516785  24.7985668  65.1752472 173.8903351  24.4066010
  66.8475266 175.6019897  24.0657558  67.8136597 174.9518738  22.7452202
  67.1787338 174.4444733  22.0189190  68.3586655 175.7628021  22.2620182
  68.4633942 174.2074738  23.2054501  65.3804855 173.6770630  28.6181450
  66.4405289 173.8454590  29.1745281  64.2472153 173.7971344  29.3008060
  63.3872147 173.6020813  28.8084164  64.1941681 174.0815125  30.7581882
  64.9960556 174.7942352  30.9508190  62.7961731 174.6885986  31.0931873
  61.9719238 174.1046448  30.6836700  62.8044701 174.6233215  32.1812019
  62.6073761 176.1659698  30.7556839  63.4905205 176.9286194  30.4500656
  61.4590225 176.6963043  30.9641590  61.5040741 177.7027740  30.8929977
  60.7520370 176.1494446  31.4345016  64.4733353 172.8673096  31.6675701
  64.8801422 173.0405273  32.8498077  64.2021332 171.6217651  31.1976376
  63.7015572 171.6001740  30.3206768  63.9719810 170.4388123  32.0463562
  64.0396652 170.7501526  33.0887489  62.5175056 169.8950043  31.7911663
  62.3886719 169.8446960  30.7099762  62.3658447 168.9035187  32.2178726
  61.4358406 170.8303223  32.4003067  61.3310471 170.5514221  33.4487991
  61.6938553 171.8818207  32.2742538  60.0656090 170.6769104  31.7271614
  60.0535545 171.2294769  30.7876797  59.8806992 169.6224518  31.5221977
  58.9544754 171.2768250  32.5481682  58.7834244 170.8045197  33.5155220
  59.1573906 172.3347015  32.7149582  57.6834869 171.2148895  31.7410889
  57.2115746 170.3259125  31.8255405  56.9744453 171.8497772  32.0791283
  57.8316498 171.5182953  30.7891998  64.9933929 169.3012848  31.7680912
  65.2356720 168.4813080  32.6355438  65.7299423 169.3594818  30.6793137
  65.4398117 170.0415802  29.9932499  66.9743271 168.6393433  30.3990803
  66.9288330 167.6072998  30.7468338  67.2872162 168.7181854  28.9117756
  66.4327164 168.3023529  28.3779125  67.5752258 169.7384491  28.6583519
  68.7311172 167.7317657  28.5063744  68.5075455 167.8387451  27.1935654
  68.1847610 169.1946716  31.2395954  68.5089417 170.3585510  31.2351761
  68.9237747 168.3170166  31.9524403  68.7888947 167.3267975  31.8061790
  70.0447769 168.7544556  32.8437271  70.4976883 169.6473083  32.4126663
  69.5024414 169.0960541  34.2763405  70.3741379 169.1076965  34.9306374
  68.6254501 170.3678589  34.3666344  67.7451782 170.2266388  33.7395058
  68.3544769 170.4181061  35.4212189  69.2379456 171.2477875  34.1699562
  68.7388000 168.0262299  34.6929550  67.9461288 168.3348389  35.1379662
  71.1763229 167.7635345  32.9193840  72.3050537 167.9584503  32.4309540
  70.8551941 166.4766998  33.3331337  69.9313507 166.3923798  33.7325096
  71.7611237 165.3230743  33.3258591  72.7934265 165.6717224  33.3559456
  71.6201324 164.4568787  34.5559883  71.8088226 165.0857391  35.4260597
  70.6526108 163.9579468  34.6113472  72.6361542 163.4420319  34.4720497
  72.6206131 162.9842987  35.3157539  71.5708847 164.4893799  32.0303383
  70.4511642 164.4431763  31.5141220  72.6156387 163.8395233  31.5008373
  73.4972000 163.9205322  31.9870319  72.5425262 162.9270630  30.3252163
  71.4813461 162.7319946  30.1704674  73.0966873 163.7004852  29.1328697
  74.0807800 163.9799347  29.5091438  73.2400589 163.0222931  28.2916851
  72.2369080 164.8794250  28.5166626  72.0376663 165.7109222  29.1927032
  72.9631119 165.5047913  27.3555241  73.1364975 164.9135590  26.4563789
  72.5524063 166.4758148  27.0788784  73.9957275 165.6918640  27.6501617
  70.8352661 164.4374237  27.9191513  70.2474670 163.9660797  28.7068291
  70.3802261 165.3102417  27.4509392  70.9907532 163.7467194  27.0903854
  73.2350845 161.6150970  30.6079445  74.4488678 161.4257050  30.6236286
  72.3757324 160.6309509  30.8349228  71.3996506 160.8442230  30.6870041
  72.8339005 159.3203430  31.4071178  73.7891083 159.4610748  31.9129562
  71.8751907 158.8366394  32.4955025  70.8928223 158.7729340  32.0275307
  72.1046906 157.8156433  32.8004341  71.7384796 159.8773804  33.9562073
  70.9149399 159.0856628  34.6489334  72.9935760 158.2898102  30.2465801
  72.6300659 158.6184082  29.1043777  73.5638199 157.1113739  30.4922886
  73.7595825 156.9075317  31.4619446  73.4828796 156.0183716  29.5286655
  73.5806198 156.4562378  28.5352783  74.6841812 155.1315308  29.7711525
  75.5438995 155.7210693  29.4526424  74.8166885 155.0240326  30.8477135
  74.5641937 153.5684814  28.8108978  75.8382492 153.5171967  28.4120808
  72.1152725 155.2844238  29.6396217  71.6425400 155.0468140  30.7385426
  71.5149689 154.8934326  28.4938793  71.9442368 155.2261200  27.6423225
  70.2621689 154.1755981  28.4272003  69.5323334 154.7414246  29.0062466
  69.7884521 154.1634216  26.9548874  69.7233353 155.2033081  26.6347466
  70.6269302 153.7557220  26.3902264  68.4801712 153.5466461  26.6710110
  68.4946136 152.5315094  27.0677471  67.6957092 154.1436920  27.1360340
  68.2078094 153.3705750  25.1406612  69.1166306 153.0464478  24.6336212
  67.5849380 152.4800568  25.0563278  67.6529770 154.6752319  24.4680061
  66.8760757 155.0172119  25.1517963  68.4806671 155.3844757  24.4687481
  67.2498550 154.4332733  23.0332584  66.4336090 153.8461304  22.9378223
  66.9364777 155.2901459  22.6000710  67.9710464 154.0189819  22.4602413
  70.2860260 152.7587280  28.9193935  69.3320236 152.3215027  29.6139336
  71.4165726 151.9594574  28.7212009  72.2337418 152.3080750  28.2407970
  71.3815384 150.6425476  29.3022289  70.4271774 150.2091675  29.0030842
  72.3894043 149.7255249  28.5361176  72.0504761 149.6170959  27.5058403
  73.3663330 150.1979065  28.4333115  72.4756546 148.3202209  29.1701546
  72.8195419 148.4404602  30.1974716  71.4832458 147.8723297  29.2213326
  73.2884369 147.3309021  28.3025208  74.0143967 147.6533813  27.3363552
  73.1694031 146.0579224  28.6201572  73.6492081 145.2629852  28.2226849
  72.6035843 145.8289795  29.4248543  71.3977814 150.5414276  30.8433075
  70.6545105 149.7502594  31.4469776  72.0177536 151.4935455  31.5198040
  72.5856552 152.1149902  30.9617729  71.9317322 151.7222900  32.9922256
  71.8708572 150.7664337  33.5125542  73.2354431 152.4602509  33.4006615
  73.2749405 153.4670868  32.9849510  73.0437012 152.6505737  34.4566498
  74.8666840 151.6020813  33.1791801  75.6765366 152.2823639  33.9954224
  70.6325302 152.4824371  33.3813934  70.1279526 152.2855225  34.5209007
  70.2177582 153.4290466  32.5425034  70.8049469 153.5475006  31.7293148
  69.2528915 154.5471954  32.8479042  69.1268692 155.1252441  31.9324341
  67.8329544 153.9665222  33.0964584  67.8868027 153.3587494  33.9996796
  67.1444473 154.8066864  33.1869583  67.4133682 153.1264038  31.9310131
  67.6762543 153.7044373  31.0450821  67.9734344 152.1913910  31.9443417
  65.9259949 152.8100891  31.8689194  65.0383072 153.2031250  32.6311836
  65.5517883 151.9354248  30.9367981  64.6038742 151.5899506  30.8898125
  66.2566299 151.6538391  30.2704563  69.7092667 155.5370483  33.9018631
  69.4413986 156.6919403  33.6712532  70.3758850 155.0868225  34.8981056
  70.3475723 154.0862885  35.0330887  70.6873016 155.9351044  36.0552940
  70.0334778 156.8071747  36.0452614  70.2386169 155.0858002  37.2798309
  70.2620621 155.7465973  38.1463776  69.1810379 154.8247070  37.2418098
  71.1114044 153.8676758  37.6071815  71.9670029 153.4195099  36.7920761
  70.9312134 153.2703552  38.6516266  72.1179657 156.4812317  36.2538834
  72.4395599 157.3297729  37.0736732  73.0844116 155.9277649  35.5569077
  72.8204651 155.1040497  35.0354424  74.4861221 156.3728943  35.4981728
  74.8299942 156.4734650  36.5276108  75.3240967 155.2912292  34.8136673
  74.9569626 155.3601837  33.7896729  76.8435364 155.4175568  34.9056549
  77.0995636 155.0105286  35.8838577  77.3119049 154.7443390  34.1876678
  77.1655121 156.4526825  34.7918701  75.0914383 153.9783630  35.2857666
  75.2009048 153.9462585  36.2389679  74.6704941 157.6911926  34.7727013
  74.4699783 157.7975006  33.5587273  75.1583252 158.7282257  35.4676094
  75.2997742 158.5301208  36.4478378  75.5663452 160.0507355  34.9022827
  74.6951599 160.4337463  34.3708305  75.8705902 160.9842529  36.0264969
  75.0131073 160.9773254  36.6993866  76.7649002 160.5343781  36.4576874
  76.1467285 162.3875122  35.4558029  76.9059525 162.3182983  34.6767769
  75.3007660 162.8187561  34.9205551  76.7600784 163.3045044  36.4880409
  77.2418442 162.8234558  37.5436707  76.7429428 164.5432739  36.2350044
  76.7444382 159.8984528  33.8785095  77.8521805 159.5123138  34.2804451
  76.5306320 160.2450104  32.5635948  75.5974350 160.5467529  32.3223534
  77.6012344 160.3247223  31.5933437  78.5219574 159.8539124  31.9378700
  77.1887436 159.5381775  30.3544312  76.1000900 159.5046844  30.3118382
  77.6948471 160.2628479  29.0519714  78.7673492 160.3470612  29.2273884
  77.6198807 159.6385803  28.1615868  77.2612305 161.2362671  28.8228130
  77.6887360 158.0777435  30.3199272  77.2291107 157.6404419  29.4335785
  78.7621994 157.9326172  30.1986504  77.2546234 157.2095032  31.5003605
  76.1737823 157.1783600  31.6378956  77.7887497 156.2605438  31.4525509
  77.5319977 157.7088776  32.4286804  77.9891205 161.7808075  31.3433590
  79.1646652 162.1007080  31.3454247  77.0472641 162.6270905  31.0337753
  76.0847931 162.3245087  30.9869633  77.2837982 164.0596619  30.8469257
  78.0933456 164.2754517  31.5441780  77.7410812 164.2816315  29.3758507
  78.4997406 163.5768585  29.0355148  76.5458069 164.1505127  28.3277817
  75.9205017 165.0410156  28.3918362  76.8677292 164.0707245  27.2894650
  75.9622269 163.2599030  28.5609417  78.3073196 165.5851135  29.1993713
  79.2661819 165.5913849  29.2456627  76.1406631 164.9785309  31.3235378
  75.2066574 164.5305939  32.0179749  76.2274704 166.2657166  30.9803543
  76.9499817 166.6058960  30.3619957  75.2746429 167.2791901  31.4653149
  74.2994385 166.7923431  31.4582844  75.6920853 167.8177338  32.8085480
  75.6409760 167.0135803  33.5426064  77.0663834 168.4097443  32.8599319
  77.0578842 169.3179321  32.2572746  77.3625717 168.7058716  33.8662529
  77.7875061 167.6909790  32.4707680  74.8738098 168.9490356  33.2660332
  74.1051025 168.6007233  33.7236061  75.1391525 168.3965454  30.3859921
  76.0360107 168.6828918  29.6653233  73.9620590 169.0230408  30.3851871
  73.2463684 168.6562042  30.9961891  73.6337280 170.1791077  29.5286274
  73.5165100 169.8195496  28.5063362  72.2837677 170.7307739  29.9987698
  71.4673767 170.0406342  29.7859173  72.2753448 170.8919220  31.0767612
  71.9370422 172.0259705  29.2484932  72.7564545 172.7335968  29.3747139
  71.7825089 171.8399506  28.1856556  70.6351547 172.6835785  29.7418633
  69.8700104 171.9116974  29.6590576  70.8119202 173.0545654  30.7514267
  70.2769547 173.8332367  28.8852692  71.1767502 174.4405365  28.7869396
  70.0329208 173.5433350  27.8632603  69.1295624 174.6726532  29.3998146
  69.1857986 175.0749664  30.3245239  68.9473877 175.4678345  28.8043270
  68.2932053 174.1090851  29.4545231  74.7929077 171.2079163  29.5791836
  75.1555557 171.7539673  28.5004139  75.4359436 171.5425110  30.7231197
  75.0512543 171.1593323  31.5747528  76.3979340 172.6614532  30.7822609
  76.0239258 173.5593567  30.2903404  76.7244415 172.9707184  32.2414284
  77.1203918 172.1237030  32.8016815  77.5393753 173.6943512  32.2229080
  75.6339645 173.7020264  33.0572929  74.8086929 174.4553833  32.5039635
  75.4544907 173.4230957  34.2844925  74.5842514 173.6483917  34.7449532
  76.0289078 172.7180939  34.7239418  77.6770401 172.3264008  29.9458752
  78.3284531 173.2162628  29.4115009  77.9883270 171.0247650  29.7639103
  77.3771439 170.3519897  30.2042751  79.1886444 170.6890564  28.9449158
  79.9714432 171.4306793  29.1040707  79.7755966 169.3331757  29.4632359
  79.0648422 168.5168610  29.3345928  80.6220703 169.0690002  28.8293629
  80.2216644 169.2404175  30.8436604  79.4046402 169.4752655  31.5258694
  80.5271301 168.2053833  30.9970112  81.4068527 170.1162109  31.2434559
  81.9723053 170.8008575  30.3810482  81.8805542 170.0982056  32.4313087
  78.8967438 170.6230011  27.4530735  79.8165894 170.5163727  26.6404400
  77.6624222 170.7628021  27.0179405  76.9334641 170.7961121  27.7162380
  77.2942047 170.8069305  25.5798359  77.7894745 169.9266663  25.1700401
  75.7142487 170.6742096  25.3228741  75.2100983 171.4211731  25.9360447
  75.3765411 170.9001617  23.8124695  75.9492493 170.2036743  23.2000885
  74.3001328 170.9025574  23.6408653  75.6914062 171.9018250  23.5198135
  75.2154236 169.2835236  25.6787739  75.7777328 168.6187134  25.0230827
  75.4483948 169.1369629  26.7334518  73.7215729 169.1222382  25.5259838
  73.4095306 169.1141205  24.4816360  73.3494949 168.2572937  26.0751038
  73.3045349 169.9793854  26.0546455  77.9152222 172.0061340  24.8902874
  77.7669067 173.1311646  25.4469967  78.6238098 171.8422089  23.7501717
  78.7367401 170.9477081  23.2949753  79.2103424 172.9240723  23.0063133
  78.5866623 173.8043671  23.1618538  80.6504135 173.2359161  23.4250469
  80.8992996 174.2931824  23.3337097  80.7168350 173.0538330  24.4976768
  81.7470856 172.3252869  22.8416481  82.0898895 171.0918121  23.4418297
  81.4759445 170.7081604  24.2432632  83.1911621 170.3398438  22.9285412
  83.3250427 169.4121857  23.4651146  83.9455795 170.8387451  21.8476849
  84.8712616 170.3802643  21.5325432  83.6206512 172.0639191  21.2693806
  84.2599487 172.5316925  20.5352859  82.5644531 172.8162384  21.8223000
  82.3497391 173.8061218  21.4475346  79.2006912 172.5864105  21.5026608
  79.2643433 171.4288483  21.0789680  79.0121613 173.6463776  20.7282391
  78.8434448 174.5397339  21.1681747  78.7148056 173.5541992  19.2772160
  78.1432114 172.6489258  19.0726128  77.7625656 174.7053833  18.8707542
  78.2095795 175.6794434  19.0694637  77.5862198 174.5184784  17.8114777
  76.4976883 174.6107178  19.5540047  76.1459579 175.4837189  19.7430687
  79.9727936 173.4719238  18.4388103  80.5535965 174.4729767  18.0318794
  80.4246140 172.2579651  18.2545166  80.0149231 171.4654846  18.7280293
  81.6650009 171.9107819  17.4920769  82.4638138 172.6262970  17.6871471
  82.2582474 170.5270233  17.9956360  82.4275589 170.6264038  19.0678082
  81.4993820 169.7898560  17.7332764  83.5959167 170.1835175  17.2677517
  83.3972702 170.2137299  16.1964302  84.7063293 171.1852264  17.6052761
  84.8473129 171.2560425  18.6837959  85.6259613 170.8530121  17.1236076
  84.5385590 172.2146301  17.2886028  84.1458054 168.8182831  17.6110153
  83.5926514 168.0018921  17.1466560  85.1701889 168.6695862  17.2695122
  84.1597748 168.6171265  18.6822033  81.4082260 171.9786987  15.9315681
  82.4018402 172.2110596  15.1773987  80.1390762 171.9688873  15.4727068
  79.4055786 171.9516602  16.1668262  79.7313995 172.2062683  14.1057081
  80.6216431 172.1869812  13.4770708  78.7496490 171.0345764  13.7730255
  79.1345291 170.0491486  14.0355358  77.7899170 171.1025696  14.2852736
  78.6074677 171.0187531  12.4217644  78.3667831 170.1541290  12.0810308
  79.0331345 173.5797577  13.9860954  78.5630875 174.1241455  14.9601803
  78.8198395 174.0098877  12.7672844  79.3302994 173.5214539  12.0455141
  77.7840271 175.0019836  12.3477688  77.6676178 175.8335114  13.0428295
  78.1560669 175.6957397  10.9991493  78.1726685 175.0151825  10.1478815
  77.3906555 176.4250793  10.7339621  79.4877777 176.4719543  11.0582209
  80.3376694 175.7921600  11.1187334  79.5661240 177.2390442   9.6749439
  78.8190613 178.0200653   9.5335751  80.4983826 177.8038330   9.6756153
  79.5890656 176.5233917   8.8531084  79.6884079 177.5124359  12.1167612
  79.7161713 177.0174713  13.0874996  80.6648331 177.9681244  11.9522991
  78.8213654 178.1715240  12.1611061  76.3599091 174.4172363  12.2754202
  75.3258438 175.0781250  12.3083153  76.3051453 173.0658722  12.4700670
  77.1509933 172.5139618  12.4636335  75.0691147 172.3069763  12.7352905
  74.2692642 172.8269806  12.2080851  75.1375275 170.8280334  12.2207632
  75.9309692 170.2693024  12.7171211  74.2182083 170.2944031  12.4620152
  75.4699783 170.6994019  10.4109240  75.5516891 169.3682404  10.3319798
  74.6936798 172.4565277  14.2438354  73.7772217 171.7640839  14.7049894
  75.3736343 173.2778778  15.0354624  76.0566711 173.8700867  14.5850601
  75.1822586 173.3597717  16.4557514  75.5952377 174.2855988  16.8562412
  74.1236572 173.3457947  16.7151070  75.9122620 172.2395172  17.2575855
  77.0130081 171.8805389  16.8283710  75.3628922 171.7543640  18.3694592
  74.1547241 172.2855072  18.9661274  73.2600937 172.2566071  18.3441105
  74.3335190 173.3107147  19.2902813  73.9581375 171.3480682  20.1191006
  73.4547348 170.4483643  19.7652321  73.4516678 171.8509674  20.9429321
  75.2835541 170.8765411  20.5509052  75.1347885 169.9286957  21.0681591
  75.7839432 171.6012421  21.1931858  76.0072098 170.6958923  19.2089500
  77.0638123 170.9110718  19.3682899  76.0206070 169.2447662  18.7024136
  76.5966187 168.3278503  19.2988110  75.3079224 168.9446869  17.6130524
  74.7621613 169.6541901  17.1452579  75.1648865 167.5826111  17.1018429
  76.0921860 167.0288391  17.2487049  74.0648880 166.9896545  17.9522228
  74.0663910 167.3308716  18.9874401  73.1484680 167.2774048  17.4369736
  74.0307693 165.4544220  17.9974651  74.0209274 165.0742798  16.9759464
  74.8092575 165.0816650  18.6631279  72.4670563 164.8935242  18.8485470
  71.2583313 165.2027435  17.5410557  71.3210449 164.3890228  16.8185387
  70.2286911 165.2329407  17.8974648  71.4592133 166.1460419  17.0332031
  74.8699951 167.5578308  15.6308193  74.2298431 168.4356995  15.1046219
  75.3229218 166.4796143  14.9735832  76.0385056 165.9271240  15.4238997
  74.8549271 166.1867981  13.5765114  73.9198380 166.6700134  13.2932787
  75.8848648 166.6888885  12.5588455  76.8428268 166.2026520  12.7431993
  75.5853882 166.5476837  11.5203485  76.0485992 167.7339478  12.8217545
  74.7203827 164.6401062  13.4111643  74.7008362 163.9223785  14.4257870
  74.5691452 164.1958008  12.1530304  74.8665161 164.8128967  11.4108267
  74.6514053 162.8040771  11.8765335  74.6363831 162.2348480  12.8059711
  73.3168106 162.3359985  11.1575756  73.1503372 162.9172974  10.2506561
  73.4834290 161.3656311  10.6899080  72.4032516 162.4322510  11.7443027
  75.9319916 162.5059967  11.0162954  76.1276703 163.1836548   9.9865017
  76.7362366 161.4723206  11.4019699  76.5396042 161.1299133  12.3315916
  77.9615784 161.0935059  10.7168016  78.0377579 161.6900024   9.8076820
  79.1638489 161.5366058  11.5632839  79.2639389 160.8663940  12.4170446
  80.0555573 161.4658966  10.9404211  79.2508392 163.0245819  12.0580225
  79.6822433 164.1256714  11.2445421  79.9826660 163.9709930  10.2187643
  79.8279114 165.3667755  11.7920256  80.0378876 166.1749268  11.1070442
  79.4510727 165.6168365  13.1256609  79.4681396 166.8712921  13.6318521
  79.9020233 167.5050201  13.0558834  78.8603363 164.5487671  13.9239750
  78.5662689 164.7063751  14.9511499  78.7903671 163.2460785  13.3693619
  78.4412537 162.4033508  13.9475803  78.0284805 159.5765381  10.4357882
  77.1942368 158.8456116  10.8607492  78.9917526 159.1025696   9.6438189
  79.6595688 159.8027039   9.3541250  79.1122360 157.6245880   9.3143444
  78.3552094 157.0843811   9.8828268  78.7157440 157.2847443   7.8549333
  78.9083099 156.2376404   7.6212902  77.2646790 157.4331207   7.6887565
  77.0153427 158.4333344   8.0430517  76.9797211 157.4184723   6.6367650
  76.7039566 156.6415863   8.1859035  79.3859177 158.1564636   6.8072081
  80.4504547 157.9369659   6.8889680  78.9313202 157.8308868   5.8715549
  79.0559845 159.1580048   7.0831985  80.3774719 156.8843689   9.6011906
  81.4862976 157.2594147   9.1967897  80.2317276 155.6674805  10.2118673
  79.2952652 155.3718262  10.4479303  81.3294601 154.6495667  10.3570690
  82.1239853 155.2588501  10.7878695  80.9895401 153.6053772  11.4590492
  81.9132843 153.5181122  12.0310459  80.2324753 153.9397278  12.1683874
  80.6706924 152.1682892  10.9342575  79.7572479 151.9384766  10.1454391
  81.4619827 151.2336121  11.2876482  81.3718643 150.2440033  11.1069231
  82.1838837 151.5211792  11.9328346  81.7457199 154.0871124   9.0008974
  80.9418259 154.1722260   8.0295744  82.9001465 153.3678131   8.8252935
  84.0661316 153.5973969   9.6231394  84.0248032 153.1528473  10.6175108
  84.2008972 154.6741180   9.7261658  85.2327042 152.9218140   8.8804941
  85.7025223 152.2357025   9.5852070  85.9305954 153.6768188   8.5185328
  84.6845322 152.1497803   7.7148523  84.6820755 151.0806427   7.9270673
  85.2209549 152.4435120   6.8125892  83.2509003 152.6371002   7.5976934
  83.2272110 153.4436493   6.8648696  82.2966385 151.5676880   7.1537561
  82.1803741 151.3119812   5.9245424  81.5542221 150.9441223   8.0324650
  81.5797272 151.2049561   9.0078707  80.4640808 150.0272369   7.5838947
  80.8020706 149.6859436   6.6054354  80.3079910 148.7915192   8.4895201
  79.7886734 149.1309357   9.3857374  79.5988846 148.1729584   7.9393725
  81.5834198 148.0608215   8.8361340  82.1322861 147.9686432  10.1555395
  83.3490753 147.4027557   9.9877329  84.0087509 146.9954376  10.7396069
  83.6147461 147.2329407   8.7042665  84.4391174 146.7358551   8.3986349
  82.4791870 147.5498657   7.9421244  82.2652206 147.4893951   6.8852611
  79.0835419 150.7383881   7.4407558  78.0367355 150.1289215   7.6797690
  79.0077820 151.9947968   7.0655179  79.8576508 152.5278931   7.1823096
  77.7741089 152.7407684   6.6652908  78.0504608 153.7592316   6.3923793
  77.3371201 152.3099213   5.7644563  76.6594315 152.9698334   7.7691784
  75.7108841 153.6023254   7.4104223  76.8643875 152.4858551   9.0149260
  77.6549072 151.8747253   9.1622419  75.9792938 152.8624878  10.1457138
  74.9636536 152.5126801   9.9607687  76.5335999 152.1899261  11.4386692
  76.7746811 151.1655273  11.1548166  77.4703903 152.6901550  11.6842203
  75.5123901 152.1356506  12.6146555  74.6241989 151.0699158  12.6648073
  74.7261734 150.2320251  11.9910564  73.5768204 151.0129547  13.5946636
  72.9983673 150.1050568  13.6813536  73.4837723 152.0996552  14.5201254
  72.5458908 152.0169983  15.5118465  71.7625504 151.5192566  15.2664318
  74.3643875 153.2154083  14.4557781  74.3150024 153.9360352  15.2586765
  75.3550262 153.2989349  13.4265022  76.0066071 154.1515961  13.3048687
  75.9813004 154.3585205  10.4112167  77.0426025 154.9767914  10.4598541
  74.7705765 154.9596405  10.6545773  73.9829788 154.3584442  10.4587374
  74.5595779 156.3697357  10.9076147  75.4447327 156.7897644  10.4299431
  73.3901291 157.0662231  10.2235003  72.4711609 156.8212585  10.7560301
  73.6092148 158.5876007  10.3780088  74.5210190 158.9465332   9.9006481
  72.8298645 159.1685944   9.8848848  73.5839157 158.9047394  11.4205465
  73.3664932 156.6640167   8.6876507  73.4618301 157.5259094   8.0272398
  74.1573257 155.9513702   8.4534988  72.0733948 156.0115967   8.2449837
  71.3547745 156.8094788   8.4322748  72.1130447 155.7129669   7.1974430
  71.8950500 155.1543884   8.8941956  74.5904160 156.6209717  12.4807205
  73.7726364 156.1957703  13.2873478  75.6473236 157.3042450  12.8550863
  76.3653336 157.4699249  12.1643515  75.9456177 157.6937103  14.2260523
  75.4035797 157.0348511  14.9044313  77.4517746 157.4249878  14.5503902
  78.0592651 157.7226715  13.6957312  77.7760696 158.0324249  15.3953447
  77.7406540 156.0240326  14.8768959  77.2283707 155.2420044  15.8898821
  77.7473450 154.0377655  15.7294741  77.4554214 153.1721344  16.3055477
  78.6321564 154.0342407  14.7136412  79.2490005 153.2926178  14.4143429
  78.6173096 155.2952576  14.1357441  79.3202362 155.6620483  13.4024220
  75.5756149 159.1809845  14.3861322  76.1532974 160.0141907  13.7593851
  74.6216736 159.4997864  15.2846289  74.1682358 158.7858582  15.8367243
  74.2562866 160.8713531  15.7240295  74.6291580 161.5438080  14.9514551
  72.7477341 161.1608429  15.7667894  72.2259598 160.4577484  16.4160233
  72.5805511 162.0876923  16.3155403  72.0281601 161.3672028  14.4471159
  72.5320282 162.1880341  13.9367743  72.2529984 160.5024719  13.8227673
  70.5201797 161.6585846  14.6637783  69.8883591 160.7645721  15.3081322
  69.9561768 162.6315460  14.0716076  75.0455322 161.1868896  17.0213757
  74.6513138 160.7158966  18.1107216  76.1132660 162.0323029  16.9776268
  76.3645172 162.5231171  16.1314144  76.9885178 162.2843170  18.1249809
  76.6166458 161.7048340  18.9699745  78.4866028 161.8513184  18.0186520
  78.9578247 161.9801941  18.9930439  78.6468964 160.3942413  17.6424694
  78.0213089 160.0795593  16.8071804  79.6537094 160.1673737  17.2917938
  78.4455490 159.7562866  18.5030327  79.1300583 162.5700531  17.0416965
  78.7884445 163.4492188  16.8629093  76.8590927 163.7106018  18.6960773
  77.1642990 164.6675262  17.9759159  76.7042236 163.8735504  19.9931717
  76.6432266 163.0078888  20.5098972  76.7311478 165.0797272  20.7877617
  76.2855759 165.9066772  20.2348595  75.7254410 164.8355560  21.9059982
  74.7298355 164.6558228  21.5003262  76.0416412 164.0346985  22.5743980
  75.5608215 166.0992279  22.7598190  76.5718231 166.4547882  22.9587116
  74.6622772 167.1557465  22.0803680  73.7304688 166.7005005  21.7448082
  74.4472580 167.9646454  22.7786160  75.0415039 167.6246185  21.1723824
  74.9599686 165.6995544  24.1475887  75.4583435 164.8314819  24.5790901
  74.8230667 166.6392059  24.6827431  73.9594193 165.2750854  24.0648823
  78.1703796 165.3769226  21.2257557  78.8367920 164.5410461  21.8239384
  78.6355362 166.5973206  20.9218998  78.1002884 167.1516266  20.2689419
  79.9484253 167.1508789  21.3556004  80.6283798 166.3149414  21.5198326
  80.4695816 167.9779358  20.1778831  81.4015198 168.4581146  20.4762611
  80.7801437 167.0971375  18.9716053  79.8447800 167.0122528  18.4184380
  81.5734940 167.6211853  18.4386292  81.1682434 166.1319275  19.2969227
  79.6658707 169.0514374  19.7128906  79.6325912 169.7351685  20.3859501
  79.8762054 167.8616180  22.7348614  79.0390854 168.7564850  22.9471607
  80.6633453 167.4262085  23.6936626  81.2524033 166.6277008  23.5052509
  80.7330933 167.9695587  25.1015129  80.4317932 169.0168304  25.0782585
  79.8395615 167.1565704  26.1066551  79.9192657 167.7151794  27.0392361
  78.3682632 167.0339508  25.6766605  78.4010620 166.2539215  24.9160118
  77.7535095 166.6988678  26.5120697  77.9741592 167.9288330  25.1950378
  80.2538071 165.7225189  26.4186821  81.1218491 165.7662811  27.0764713
  79.4800720 165.2025757  26.9835663  80.5001068 165.1502686  25.5242825
  82.1984940 167.9186707  25.6309376  82.9296799 166.9595795  25.4187145
  82.6603394 169.0125580  26.2589722  82.1017151 169.8217163  26.4898262
  84.0390778 169.1167450  26.7613583  84.7301712 169.0379333  25.9221420
  84.2535477 170.4259796  27.4770088  83.6325760 170.5020905  28.3695908
  85.2955627 170.6021118  27.7440033  83.9969025 171.6362457  26.5745716
  84.8764267 171.9036407  25.4919491  85.5822296 171.1491394  25.1773720
  84.7471085 173.0843964  24.7023792  85.4035645 173.3082886  23.8745270
  83.6475296 173.9147644  24.9620686  83.4768295 175.0923309  24.3385525
  83.7500458 175.0375519  23.4198856  82.8524017 173.7114258  26.1395874
  82.0694351 174.4233856  26.3551712  83.0132904 172.5695190  26.9238796
  82.4232559 172.4111938  27.8144913  84.3285828 167.9846649  27.8136234
  85.4347382 167.4130402  27.7863464  83.3287735 167.5197754  28.5897026
  82.4755707 168.0274506  28.7751923  83.5919418 166.5260315  29.6156178
  84.5387115 166.0189514  29.4296494  83.8370514 167.2448120  30.9727383
  84.5127716 168.0510712  30.6873379  82.9124756 167.7061157  31.3198013
  84.4892807 166.4664001  32.1159897  83.8392410 165.6134644  32.3110428
  85.4159317 166.0508575  31.7200775  84.7787247 167.3294220  33.3890724
  85.3435593 168.2050476  33.0691566  83.7925415 167.6428986  33.7315292
  85.5079803 166.5271912  34.4961319  85.3023911 166.9848633  35.4637985
  85.1690216 165.5017700  34.3487244  86.9738617 166.5531158  34.3102722
  87.3690262 167.4774475  34.4079971  87.3572540 166.1405334  35.1486549
  87.2334366 166.1575165  33.4179573  82.5296173 165.4362793  29.7503757
  81.3713531 165.6657867  29.4522686  82.8759079 164.2246399  30.1232929
  83.8707504 164.1086273  30.2534447  82.0330276 163.0964203  30.4074459
  81.0087585 163.3490143  30.6816006  81.8147507 162.2584686  29.1062183
  82.8382416 162.0250397  28.8128090  81.1318970 161.4164276  29.2192593
  81.3950195 162.9834747  28.4088783  82.6146698 162.2901611  31.6131840
  83.8143082 162.1420441  31.8092041  81.7160263 161.8370361  32.4685745
  80.7296600 161.8779449  32.2552681  82.0490494 161.4116974  33.8167229
  82.9136505 162.0249481  34.0706482  80.9227982 161.8901672  34.7496605
  79.8980103 161.5887604  34.5327148  81.1534653 161.4956055  35.7392082
  80.8866119 163.7050018  34.7491837  79.6336365 163.9015808  35.1690712
  82.3219070 159.9494324  33.9509773  83.5036087 159.5476532  33.9490509
  81.3122787 159.1262512  33.9938774  80.4020309 159.5494843  33.8823853
  81.3181763 157.6423492  34.0578384  82.1482925 157.2905884  34.6704407
  80.0503159 157.1138611  34.7653313  79.2025299 157.6477814  34.3360481
  79.7764053 156.0613403  34.6924934  80.0590286 157.3698883  36.2652969
  80.9277573 156.9901428  37.0623436  79.1349182 158.1615601  36.6161995
  79.0436783 158.3790894  37.5982666  78.5013504 158.5864716  35.9542732
  81.5304718 157.0198212  32.6343384  80.8085251 156.1137238  32.1626472
  82.6358490 157.3837738  31.9325237  83.1218414 158.2120056  32.2454948
  83.1535797 156.6801300  30.7789574  82.4952469 155.8686218  30.4688663
  83.2102966 157.6192474  29.5377235  83.9400711 158.4148712  29.6877823
  83.5859909 157.0228882  28.7062759  81.8793945 158.1741333  29.0301208
  81.4106216 158.7691040  29.8139381  82.0736465 159.0245209  27.7981243
  82.4504623 158.5170746  26.9100914  81.0857391 159.3237305  27.4479580
  82.7061768 159.8777161  28.0432072  81.0513000 156.9339600  28.5516472
  80.7404175 156.4310455  29.4673672  80.1469879 157.3429871  28.1010704
  81.5508041 156.2662506  27.8496742  84.5683823 156.0627594  31.0139599
  85.3837509 156.5973816  31.7765999  84.9086227 154.9458771  30.3057499
  84.1892700 154.6964874  29.6420918  86.1750565 154.2797241  30.1900196
  86.8584671 154.8600159  30.8099499  86.0285187 152.8301544  30.7559147
  85.3819351 152.2189636  30.1262436  87.0310516 152.4036255  30.7227802
  85.5732346 152.7154541  32.2532616  84.8344727 153.5172272  32.8084373
  85.9326859 151.6452637  32.9289436  85.7033920 151.5402374  33.9069481
  86.2781372 150.8221893  32.4563713  86.6188049 154.2970734  28.7003288
  85.8323975 154.5829468  27.8258362  87.8909149 154.0492401  28.4816914
  88.4379501 153.7104187  29.2601852  88.4419785 153.9275360  27.1437130
  87.7510147 154.2962189  26.3856030  89.6526108 154.8511200  26.9527016
  90.5066910 154.3983002  27.4562931  89.8873520 154.9582520  25.8936825
  89.6287231 156.2989960  27.5054474  89.3413544 156.2991180  28.5568848
  91.0378571 156.9100037  27.2289486  91.3257294 156.7035675  26.1981144
  91.0946884 157.9640961  27.5005398  91.7414093 156.3681641  27.8610287
  88.6360931 157.1719666  26.7222633  87.6637268 156.6826324  26.6661205
  88.5735016 158.1457367  27.2080364  89.0194702 157.3313141  25.7144299
  88.8332520 152.5033264  26.7206860  89.3883438 151.7793579  27.5507870
  88.6868591 152.2530670  25.4133434  88.2247086 152.9495239  24.8463650
  89.2499847 151.0298767  24.7808628  89.9896927 150.6408539  25.4805756
  88.2790985 149.8816071  24.7070732  88.6661682 148.9996490  24.1967487
  88.1064453 149.5835724  25.7412224  87.0614166 150.3592987  24.1037140
  86.4097214 150.3947449  24.8077297  89.9170456 151.2622681  23.3761787
  89.6015396 152.2045288  22.6618938  90.8091507 150.3034210  22.9456558
  90.9556961 149.4559021  23.4751034  91.6001511 150.4234619  21.7468929
  91.9415436 149.4630585  21.3606586  91.0368805 150.9677734  20.9889088
  92.8892746 151.2065125  22.0281124  93.4156876 151.2803345  23.1360607
  93.4055939 151.8321075  20.9499722  93.0003815 151.6660461  20.0398445
  94.3115082 152.9614868  21.1039124  94.1488342 153.3000793  22.1271400
  95.7388382 152.5395203  20.7433739  95.6842957 152.0591583  19.7664566
  96.4438553 153.3602600  20.6112309  96.3254395 151.5385742  21.7346992
  95.6510468 150.6895447  21.8462162  97.2492676 151.1402740  21.3151684
  96.6174393 152.2754822  23.0412083  97.2508163 153.1542053  22.9196262
  95.6661758 152.5622101  23.4895096  97.3859940 151.2845154  23.8579597
  98.3912811 151.3615570  23.7981873  96.9569168 150.2743378  24.5699596
  95.7346344 150.1843262  24.8931770  95.1324081 150.9710999  24.6971569
  95.3229065 149.3287201  25.2374229  97.7741928 149.2809753  24.8851662
  98.6881027 149.1505585  24.4754601  97.4054489 148.5393372  25.4631729
  93.8407059 154.0368805  20.0981102  93.1258316 153.6710052  19.1769905
  94.1384430 155.3666229  20.3494453  94.8175278 155.8925018  21.5493755
  95.8959122 155.8268738  21.4049034  94.5546570 155.1940918  22.3438683
  94.3727493 157.3187866  21.7628651  95.1256638 158.0274353  22.1078987
  93.5114441 157.3544464  22.4299355  93.9346848 157.7376709  20.3555145
  94.6990585 158.1987915  19.7300568  93.1130142 158.4332886  20.5260105
  93.5694351 156.4098053  19.5765247  92.5285873 156.1589203  19.7809715
  93.9173050 156.4661255  18.1097794  95.0925446 156.2394867  17.7061043
  92.9847183 156.7179108  17.2012596  92.0154648 156.6656494  17.4803982
  93.2984543 156.6826324  15.7406607  94.3581924 156.8914795  15.5942917
  93.0036163 155.2688446  15.2581234  93.6767349 154.5400848  15.7096920
  91.9969101 154.9720612  15.5523663  93.2432938 155.2104797  13.8662024
  93.4708328 154.3025665  13.6528368  92.5223618 157.6628876  14.8352489
  91.4575195 158.1428833  15.2974949  93.1690521 158.0827179  13.7336454
  94.0707932 157.6916809  13.5011492  92.7738876 159.1282349  12.8590603
  91.9983521 159.7052765  13.3627081  93.9423294 160.0486450  12.4495630
  93.5600891 160.8550873  11.8237429  94.5225143 160.7134399  13.7184954
  94.8389511 159.9993134  14.4787531  95.4198837 161.2832794  13.4774342
  93.7082901 161.2768707  14.1742220  94.8969650 159.2667999  11.6523752
  95.4144363 159.8649139  11.1082268  92.1087570 158.5939484  11.5420103
  91.6064606 159.4341736  10.7775917  92.0296326 157.2429657  11.4019251
  92.4296722 156.7003174  12.1539965  91.2532349 156.6708374  10.2726536
  91.6371918 157.0850830   9.3404074  91.5349503 155.1433563  10.2800837
  91.2257690 154.7571716  11.2513552  90.9366226 154.6271515   9.5293303
  93.0410233 154.7545471  10.1260881  93.6558838 154.9603729  11.0022640
  93.0448074 153.6851807   9.9150047  93.6035690 155.4139099   8.8000259
  92.8910446 155.4550018   7.7676277  94.7542343 155.9086151   8.8941889
  89.7269669 157.0151825  10.2144499  88.9628983 156.7017517  11.1710052
  89.3189316 157.5380249   9.1151505  90.0192566 157.7308350   8.4133854
  87.8992920 157.8672791   8.8449526  87.8549271 158.2871399   7.8400431
  87.0046616 156.5345764   8.8273010  87.6466751 155.6865082   8.5891848
  86.6275635 156.3548584   9.8340778  85.8597946 156.4227142   7.7998886
  84.5212936 156.7972870   8.1115389  83.8143692 156.6591034   6.9248843
  82.7453766 156.7674713   6.8157916  84.5900497 156.1381683   5.9621129
  84.2594833 155.8031158   5.0684881  85.8772659 156.0535431   6.4740062
  86.7359467 155.5312958   6.0786204  87.3517914 158.9831543   9.7245693
  86.1004562 159.1434784   9.7505121  88.1803894 159.7688751  10.4759207
  89.1625977 159.5660248  10.3566818  87.5928726 160.6267395  11.5193033
  86.9902420 160.1023254  12.2608728  88.7499390 161.1841431  12.3178806
  89.2805481 160.3998566  12.8577337  89.5438461 161.5535583  11.6687641
  88.2976608 162.2404938  13.1679935  88.9942093 162.5131683  13.7697077
  86.7166290 161.8265533  10.9935217  87.1057434 162.7132721  10.2191505
  85.5411224 161.9933777  11.5839520  85.2876511 161.2463989  12.2147236
  84.5239868 163.0201263  11.3345442  84.3365479 162.9794922  10.2615480
  83.2408371 162.6418610  12.0852470  83.4634094 162.7541351  13.1463585
  82.3999252 163.3094177  11.8972778  82.7897339 161.2218170  11.9518709
  82.8384323 160.4809418  10.8101101  83.0671310 160.8814545   9.8335400
  82.4675522 159.1612244  11.0577221  82.3810043 158.4260406  10.3706026
  81.9959488 159.0404510  12.3139639  81.3700943 158.0299988  12.9971514
  81.0486908 157.0796204  12.5973043  81.0529251 158.1506653  14.3400793
  80.6388474 157.3326721  14.9108934  81.3493423 159.3437958  15.0460043
  81.2059250 159.3435974  16.1164398  81.9053726 160.4332733  14.3467102
  82.1033707 161.3316193  14.9125433  82.2336197 160.3044586  12.9659948
  85.0020676 164.4019318  11.6443682  84.3840103 165.3395538  11.2269421
  86.0994034 164.5373688  12.3727655  86.4432983 163.6574554  12.7299623
  86.6219406 165.7637329  12.9862337  86.1029587 166.6194763  12.5544024
  86.2789764 165.7485199  14.4383135  86.7899094 164.8973541  14.8883724
  86.5888214 166.6437225  14.9775019  84.8172226 165.6270294  14.7872477
  83.9423828 166.7351379  14.6647663  84.2066574 167.7081909  14.2778130
  82.5814209 166.5651550  15.0367727  81.8648300 167.3432007  14.8187399
  82.1226120 165.4663391  15.7417231  81.1091385 165.4908142  16.1141090
  82.9411621 164.3433228  15.8477316  82.5436783 163.4792328  16.3593521
  84.2496719 164.4701385  15.4173145  84.9032974 163.6298676  15.5992432
  88.1681747 165.9113617  12.6859798  88.9902191 165.3291931  13.4131298
  88.6206589 166.7193146  11.6356916  87.7864761 167.3525696  10.6458330
  87.5079575 168.3560944  10.9674940  86.8657227 166.8423462  10.3629951
  88.5974121 167.5050507   9.3705549  88.1714783 168.3088074   8.7700071
  88.4272079 166.5662384   8.8435163  90.0813065 167.7116547   9.9583750
  90.3737411 168.7352905  10.1923494  90.8500900 167.3493195   9.2758913
  90.0113373 166.7843170  11.2122498  90.3123550 165.7999115  10.8538599
  90.9719162 167.2217407  12.2791138  90.8481140 168.1414337  13.0886211
  92.1400909 166.6021729  12.3138056  92.2598572 165.8924713  11.6052380
  93.1883087 166.7142181  13.2845469  93.9988708 166.0679779  12.9477110
  93.5435257 167.7322693  13.4442263  92.9092484 166.0921631  14.6331329
  93.5922012 166.4312439  15.5903130  91.8934555 165.2730408  14.7763853
  91.3041534 165.0852356  13.9779139  91.5499344 164.5162354  15.9952583
  92.3741608 164.7475891  16.6699562  90.1782913 165.0151062  16.6444225
  89.4370346 164.8441620  15.8637705  89.9462585 164.4224243  17.5292892
  90.1520233 166.4648132  17.0873337  90.3637009 166.7502747  18.4370060
  90.4032288 165.9314423  19.1401081  90.2578659 168.0364075  18.8796158
  90.5080109 168.2592163  19.9063568  89.9046631 169.1247711  18.0556946
  90.0310974 170.3983002  18.4758854  90.0328445 170.4581757  19.4340134
  89.7263718 168.8291016  16.7072792  89.3623199 169.6613312  16.1231079
  89.7908859 167.4831543  16.2130527  89.5131226 167.1448517  15.2257318
  91.5248184 163.0245056  15.8778772  90.8964462 162.5362244  14.9718504
  92.2344894 162.2722015  16.7163010  92.8282242 162.7593689  17.3722343
  92.1104660 160.8429413  16.9256458  91.9810486 160.2807922  16.0007992
  93.4123993 160.3135071  17.5849552  93.6504440 161.0175018  18.3823414
  93.2134323 159.3745270  18.1015339  94.2894821 160.3026123  16.9378834
  90.8467255 160.5092468  17.7659607  90.5950928 161.1444855  18.8165703
  90.0584106 159.5159302  17.2898750  90.2584915 159.1162262  16.3841648
  88.9776535 158.9230652  18.0629902  88.4269867 159.6583557  18.6496964
  87.8957443 158.3258972  17.1419907  87.1747360 157.8167267  17.7815151
  87.4722290 159.2004700  16.6481800  88.3349457 157.4834290  16.0094090
  88.2063065 157.7777100  14.7043276  87.9035721 158.7104645  14.2518568
  88.7720718 156.7681274  13.9700356  88.7967911 156.8265839  12.9620323
  89.0824280 155.6249390  14.6750536  89.6027832 154.3557434  14.3755293
  89.7854691 154.1532288  13.3305340  89.8537979 153.4422455  15.4226513
  90.2211838 152.4869995  15.0778017  89.5536957 153.8130341  16.7387505
  89.6949234 153.0844421  17.5233593  89.1013718 155.1004333  17.0244789
  88.8372421 155.2963715  18.0531864  88.8423309 156.0795288  16.0339642
  89.5264053 157.7942505  18.9737644  90.5401535 157.1808624  18.6759624
  88.8339081 157.4497070  20.0158806  88.2472916 158.2145081  20.3176746
  89.2673187 156.3381805  20.9337006  89.6225739 155.4902802  20.3480759
  90.4115295 156.7497711  21.8718815  91.3246689 156.8865967  21.2926083
  90.3477478 158.0459595  22.7384090  89.6567688 157.9836884  23.5791149
  91.3685532 158.1862030  23.0939064  90.0184937 158.9195099  22.1757221
  90.6587524 155.6828461  22.7593632  91.5293579 155.8000336  23.1465454
  87.9665985 155.9344635  21.6484947  87.2290802 156.7995911  22.1191959
  87.6169434 154.6579590  21.5707493  88.3414001 153.9948273  21.3351383
  86.3023682 154.1492310  21.8207397  85.6074066 154.6882935  21.1769028
  86.1521301 152.6440430  21.4632664  86.9146271 152.0668488  21.9862690
  84.8566589 152.1014709  21.8862610  84.0503464 152.6887970  21.4469452
  84.7111740 151.0418396  21.6762104  84.7667160 152.1789398  22.9697838
  86.3048477 152.3090820  19.9593735  85.5700760 152.8627167  19.3748226
  87.2892914 152.6930237  19.6918964  86.3683395 150.8270569  19.5483723
  85.3663254 150.3988190  19.5222664  86.7921982 150.7531281  18.5468845
  87.0631714 150.3572083  20.2444630  85.9252701 154.4453888  23.3072758
  86.6284485 154.1078491  24.2920055  84.6560135 154.8947906  23.4557381
  84.1399536 155.2398682  22.6590557  84.0924988 155.2653198  24.7990093
  84.8627167 155.4211273  25.5543842  83.3383713 156.6157532  24.6431084
  82.4799652 156.4645538  23.9885998  83.0218735 156.9145508  25.6424389
  83.9694214 157.4107208  24.2457275  83.1537018 154.1051788  25.2384701
  82.3622131 153.5908661  24.4035091  83.2922287 153.6512756  26.5130596
  84.0946732 153.9845886  27.0279179  82.4210052 152.6377716  27.1347504
  81.5402145 152.5698395  26.4962502  83.2183456 151.3591461  27.1083984
  84.2554092 151.6165924  27.3236237  82.8763809 150.7776184  27.9645424
  83.2534409 150.4628143  25.8730469  82.2346497 150.1977692  25.5903225
  83.7203217 151.0377808  25.0733414  84.0533371 149.1840210  26.0634594
  85.2701569 149.1815186  25.9667873  83.3920441 148.0758514  26.4137516
  83.9596024 147.3355103  26.8008976  82.4073715 148.2070007  26.5962734
  81.8488693 153.1008911  28.4451199  82.5777588 153.7541962  29.2437725
  80.6726837 152.5441284  28.8453732  80.2024994 151.9703064  28.1599712
  79.9991760 152.8562317  30.1020164  80.0111694 153.9257050  30.3122501
  78.4860764 152.7491760  29.8347168  78.1746750 153.3898773  29.0097160
  78.1978226 151.7197876  29.6217575  77.6100159 153.2317200  31.3981400
  76.3493729 152.8962708  31.1097832  80.5106125 152.1209717  31.3305073
  80.6803970 150.9150543  31.2568817  80.6077576 152.8067322  32.5250397
  80.4562302 153.8011780  32.4344101  81.4770508 152.4144287  33.6321068
  82.3746109 151.9154205  33.2667580  81.8796844 153.6795197  34.3257904
  82.3945160 154.3308105  33.6194801  80.9667053 154.1576843  34.6806564
  82.8448563 153.3891144  35.4453430  82.2146454 152.9022217  36.1895714
  83.6629944 152.7532959  35.1069870  83.3656006 154.6855774  36.0199432
  82.5724335 155.3217316  36.4127426  83.8482666 154.4734650  36.9739571
  84.3624115 155.3482666  35.1297760  84.3619385 155.1143341  34.1472435
  85.3964310 156.1152649  35.4265900  85.8666611 156.3602600  36.6372147
  85.3965988 155.9440765  37.4283714  86.7468948 156.8147278  36.8340607
  86.1814346 156.6613007  34.5358582  85.9804459 156.6195679  33.5469360
  86.8869629 157.3600159  34.7206116  80.8537521 151.3061218  34.5060234
  81.4951782 150.4210510  35.0435448  79.4547348 151.2069397  34.4556999
  78.9595490 151.9532318  33.9888535  78.6766205 150.2591858  35.2682419
  79.3170929 149.8613586  36.0554123  77.3986435 150.9398956  35.8901367
  77.0264587 151.6537781  35.1553307  76.2563324 150.0291138  36.3436470
  76.4901428 149.1379242  36.9260788  75.4488678 150.5726471  36.8342323
  75.7728806 149.5862274  35.4728851  77.7678833 151.8987274  37.1265831
  78.1890411 152.7909088  36.6631851  76.8508835 152.2619324  37.5905762
  78.6198502 151.2518158  38.2016525  79.6526260 151.0321503  37.9310570
  78.7453918 151.8817139  39.0823135  78.1985016 150.2738800  38.4344940
  78.2543106 149.0214233  34.4360580  78.1473389 147.9191437  35.0449562
  77.9861679 149.1658783  33.1223793  78.0475998 150.0943298  32.7295570
  77.5306244 148.0311890  32.2622566  77.5335846 147.1165619  32.8551636
  76.0757294 148.2161865  31.8225079  75.6016235 147.2613068  31.5955448
  75.5633392 148.5190430  32.7356606  75.9494324 149.5245209  30.5161362
  76.0915604 150.5544891  31.3551006  78.3610306 147.7020264  30.9959221
  78.1611862 146.6358643  30.3792591  79.3583450 148.4890289  30.6586552
  79.6501923 149.2291107  31.2808971  80.2515488 148.2228699  29.5347443
  81.2785263 148.5701447  29.6479473  80.3885727 147.1428375  29.4814796
  79.7765427 148.6474457  28.1289692  80.4602814 148.4107361  27.1438694
  78.5597687 149.2463531  27.9862423  77.9529877 149.3412170  28.7880630
  77.9704514 149.6438293  26.6529255  78.0299606 148.8230438  25.9381676
  76.5574417 150.0761566  26.9064693  75.9962540 149.3848877  27.5352173
  76.5310669 151.0316010  27.4304295  75.7526550 150.2850952  25.5994816
  75.6970520 149.4324951  24.6922436  75.1092453 151.4113617  25.4204826
  74.6638184 151.4669800  24.5157166  75.2199249 152.1366425  26.1146088
  78.7606735 150.8300781  26.0596733  79.1826019 151.7639313  26.7818375
  79.0517960 150.7395630  24.7648926  78.9416122 149.8375702  24.3240128
  79.6525421 151.7530365  23.8707161  80.5969772 152.0935516  24.2952137
  79.9606018 151.0733795  22.5246773  80.8160172 150.4105988  22.6553650
  79.1363678 150.4882050  22.1168766  80.3329697 151.9482880  21.3955307
  79.7126312 152.1003418  20.1049671  80.4453201 152.9961548  19.4329319
  80.1513748 153.4822388  18.5143929  81.5054932 153.4000244  20.2063694
  82.1588821 154.1336517  19.9719162  81.4917908 152.6663361  21.3923264
  82.2441177 152.6582184  22.1671410  78.7857742 153.0250244  23.6773357
  77.5668869 152.9589386  23.4572906  79.4346008 154.1863403  23.7687263
  80.4418793 154.1168365  23.7430744  78.8601608 155.5131073  23.8925381
  77.7877274 155.4327087  23.7149525  79.0599289 156.0454712  25.3389091
  80.1119766 156.2143707  25.5686111  78.5444794 156.9921875  25.5006256
  78.5211105 155.1604156  26.4838181  79.1448059 154.2730713  26.5920048
  78.5385437 155.7153931  27.4218006  76.8427200 154.6276093  26.3632431
  75.9170151 156.2003174  26.5171185  75.8211670 156.6912842  25.5486794
  74.9361801 155.9403229  26.9151821  76.4225845 156.8373108  27.2428856
  79.5047531 156.5104828  22.9269161  79.6314621 157.6748810  23.2760468
  79.9323730 156.0493469  21.7237320  79.7734528 155.0827484  21.4777164
  80.6684113 156.9033051  20.7522430  80.4565048 156.5653687  19.7378483
  80.3478546 157.9436798  20.8066273  82.1328049 156.8880615  21.1905537
  82.6566086 155.8394318  21.5145264  82.7993546 158.0553436  20.9703922
  82.2015839 158.8128357  20.6721134  84.2648544 158.1635132  21.1460857
  84.7183151 157.3205414  21.6674938  84.9103928 158.0634613  19.7284508
  84.6866608 158.9462738  19.1295261  85.9910507 158.1190948  19.8596134
  84.7031326 156.8890686  18.8450012  85.6287766 155.9693756  18.5326672
  86.6258240 155.8860474  18.9393024  85.1785965 155.0057526  17.6968727
  85.8544998 154.3248901  17.3811226  83.8040390 155.1402893  17.4405346
  82.8346024 154.4191589  16.7759628  83.0779114 153.4137878  16.4654388
  81.5348053 154.9807129  16.6938629  80.8054428 154.5460663  16.0264015
  81.2299728 156.2319183  17.2337666  80.2396851 156.6372223  17.0872574
  82.2107697 156.9700623  17.9245548  82.0124741 157.9304657  18.3770237
  83.5184479 156.4284973  18.0345554  84.7246857 159.4546204  21.9102325
  84.0676804 160.5269775  21.8234749  85.8415070 159.3638458  22.6020241
  86.3508530 158.4925690  22.6411762  86.6460114 160.5419464  23.0556698
  86.0243835 161.3873291  23.3506718  87.5244141 160.1701355  24.2411766
  86.9096451 159.6378174  24.9669895  88.2629242 159.4811096  23.8313580
  88.2378922 161.3802643  24.9793415  88.8744736 161.9721680  24.3216820
  87.4784851 162.0346680  25.4073315  89.1037903 160.9838867  26.1266842
  88.5304260 160.4316254  26.8712425  89.8485336 160.3128510  25.6986847
  89.8447723 162.1177979  26.8271236  90.1616516 162.7909851  26.0305653
  89.1755600 162.7833252  27.3724060  90.9560089 161.6887360  27.7021141
  91.6153259 161.1384888  27.1704826  91.5685043 162.3970184  28.0806408
  90.5711060 161.0935364  28.4216156  87.5515976 160.9978485  21.8851089
  88.0580063 160.1007233  21.1646576  87.7976532 162.2982635  21.7684708
  87.3377914 163.0191803  22.3059750  88.6449814 162.8962860  20.7506657
  88.9572906 162.0382996  20.1553211  87.7755127 163.7219849  19.8228321
  87.1466751 164.4508667  20.3341026  88.4235001 164.2734680  19.1415920
  86.8837967 162.9292450  18.8562241  87.4116440 162.5784454  17.5732517
  88.3466339 162.9410248  17.1723347  86.5603256 161.8536682  16.7147083
  86.8886490 161.6114044  15.7147541  85.2658691 161.5519562  17.0767879
  84.5891418 161.0291443  16.4171562  84.7338715 161.9360657  18.3179531
  83.6936111 161.7140198  18.5049191  85.5648117 162.5874176  19.2459526
  85.1154556 162.9800720  20.1461258  89.7399902 163.6644135  21.3689308
  89.4893494 164.4047546  22.2980556  90.9691925 163.5938263  20.8783932
  91.0755692 162.9737396  20.0882874  92.2124176 164.3128357  21.2895737
  91.8315430 165.1720428  21.8416615  92.9981766 163.3768463  22.2633915
  93.9697876 163.8336182  22.4516621  92.2238388 163.1772461  23.5415268
  91.3574295 162.5289154  23.4106579  92.8730621 162.6340332  24.2282104
  91.8840866 164.1820679  23.7925205  93.3199615 162.1198578  21.7051411
  94.1028290 162.1417236  21.1499424  93.0233231 164.7523651  20.0274410
  93.1204147 163.9457245  19.1163425  93.4619522 165.9755859  20.0680523
  93.4006424 166.4609222  20.9516735  94.0431595 166.7048798  18.9655857
  93.3001251 166.6390839  18.1708088  94.2024765 168.1627502  19.3474808
  95.0088501 168.2342072  20.0773869  94.4503174 168.6461639  18.4025078
  93.2543030 168.6278076  19.6172924  95.4431686 166.1060333  18.6221066
  96.2232132 165.7906952  19.5360222  95.8763657 166.1410522  17.3727989
  95.2173538 166.3395081  16.6335964  97.2506714 165.7121887  16.9111805
  97.7459106 165.1105804  17.6733608  97.2133255 164.9727631  15.5797205
  98.2582321 164.7821808  15.3348904  96.4971924 163.6352386  15.6862831
  95.4191132 163.7383575  15.8096590  96.5738602 163.0292358  14.7835140
  96.7383957 163.0744781  16.5893269  96.5658875 165.7068634  14.5516014
  97.2174149 166.1935577  14.0414629  98.2833328 166.7723694  16.8424854
  99.4748154 166.4479828  16.7277279  97.8443146 168.0575562  16.8875084
  96.8594055 168.2781372  16.8503761  98.7360229 169.2769928  16.9922504
  99.7955246 169.0210571  16.9843197  98.5457687 170.1493530  15.7510462
  97.4667511 170.1956787  15.6037798  98.9238358 171.1617432  15.8932104
  99.0582352 169.5213318  14.4612169 100.0894012 169.2385406  14.6729107
  98.5097580 168.6011810  14.2597227  99.1027145 170.4062958  13.2014627
  99.5790482 171.3543549  13.4512386  99.6464157 169.9371796  12.3814516
  97.6492538 170.6212769  12.7240400  97.1330185 169.6654663  12.6343422
  97.1040268 171.2316589  13.4439430  97.6244888 171.3014832  11.4272003
  97.9588318 170.7774048  10.6311703  96.6621780 171.5634155  11.2676954
  98.1470642 172.1657715  11.4248352  98.6098785 170.0332489  18.3325424
  97.5119629 170.1221619  18.9486694  99.7422867 170.6192169  18.7134876
 100.5364685 170.4969025  18.1016006  99.9257202 171.3043213  20.0003281
  99.5674515 170.5282898  20.6767311 101.3576508 171.5183258  20.3249302
 101.5910797 171.6572876  21.3805332 101.9905777 170.6894989  20.0078297
 102.0085907 172.7464905  19.6942577 101.8549347 172.6121826  18.6235313
 101.4917679 173.6315002  20.0654259 103.5421448 172.8112183  20.0066833
 103.7121048 172.6451569  21.0704670 104.0080338 172.0283051  19.4082737
 104.0958099 174.1717987  19.6012287 103.4110489 174.9378204  19.9651260
 105.0616455 174.2732239  20.0961723 104.3001785 174.4074554  18.1700344
 103.4101105 174.3052216  17.7037411 104.5156784 175.3770905  17.9871349
 104.9926300 173.8245392  17.7219143  99.1214676 172.5978241  20.2517300
  98.8877258 172.8775482  21.4125633  98.7488861 173.3588715  19.2519894
  98.9690323 173.0231628  18.3252029  98.0178452 174.6718903  19.3722363
  98.1359787 175.0142517  20.4003105  98.6613617 175.7627563  18.4286003
  98.1720352 176.7288208  18.5525665  99.6587830 175.8517456  18.8591099
  98.7972412 175.4809570  16.9561653  98.9802704 174.2787170  16.5967388
  98.8086929 176.4841003  16.2086773  96.4651031 174.6178741  19.1709061
  95.6979980 175.6159515  19.3239613  95.9619827 173.4291382  18.9210110
  96.5501709 172.6177979  18.7951107  94.5202332 173.2553711  18.6071358
  94.1468964 173.9892273  17.8928604  94.2445450 171.9299622  17.8512688
  94.5059357 171.0746002  18.4742737  93.1911087 171.9639587  17.5734062
  95.0489120 171.8389587  16.5231495  94.5890579 172.5595245  15.8468208
  96.0944595 172.0119476  16.7781334  94.9538345 170.1459198  15.8030443
  93.1573410 170.0384369  15.3651571  92.7881241 170.9677734  14.9314470
  92.8942947 169.2314148  14.6813154  92.5545578 169.8977203  16.2623520
  93.6726456 173.2350616  19.8339157  93.9272003 172.3847656  20.7201538
  92.6581650 174.0221252  19.8342934  92.4754257 174.5584869  18.9982166
  91.7513657 174.2729797  20.9467812  91.9970016 173.5696564  21.7424622
  91.8819046 175.6841125  21.6078053  92.9183426 175.8609772  21.8952274
  91.5191956 176.3638000  20.8367233  91.0485229 175.8254852  22.7453117
  91.4148331 176.4144440  23.4090424  90.3213272 174.0223083  20.4638119
  89.9471130 174.7027893  19.4504051  89.5622025 173.1179352  21.0692120
  88.1870346 172.8322906  20.7338181  88.1252060 172.4872742  19.7017117
  87.5403748 173.6959076  20.8890114  87.7401123 171.7487640  21.7318096
  88.1251450 170.8324738  21.2843246  86.6569061 171.7818604  21.8487453
  88.6214676 171.9249878  22.9635162  88.8714218 170.9577332  23.3994427
  88.1960297 172.6882172  23.6151333  89.9454803 172.4732208  22.3619881
  90.3150635 173.2326508  23.0510311  91.0683289 171.4054413  22.2666836
  91.2061996 170.7586670  21.2348461  91.8455963 171.2421875  23.3002987
  91.7063217 171.8373718  24.1043243  92.7936478 170.0589600  23.2916183
  93.5058975 170.1581573  22.4724979  93.5854263 170.1821136  24.6004982
  94.0728836 171.1555939  24.6535835  92.8920135 170.3711090  25.4199924
  94.5959396 169.0869446  24.9081135  94.8713455 169.2452850  25.9507923
  94.0660858 168.1387329  24.8173237  95.8705139 169.0694122  24.1103840
  96.0316925 169.7178345  23.0627613  96.8392792 168.3457947  24.6655312
  97.6622162 168.3001862  24.0817566  96.7168045 167.7338867  25.4596748
  92.0769730 168.6771851  23.1451931  92.6822205 167.7434692  22.5221825
  90.9132614 168.5220337  23.7794094  90.4998245 169.3174438  24.2447071
  90.0945892 167.2683258  23.9220963  90.2815933 166.5717621  23.1048260
  90.3975754 166.5870819  25.2885513  89.8075409 165.6720886  25.3411579
  91.4520340 166.3118744  25.2664757  90.1730728 167.4881592  26.5503521
  90.2260818 168.5201263  26.2034626  89.1726303 167.3171387  26.9478054
  91.0853195 167.1786194  27.7434502  90.6935043 167.6879120  28.6239033
  91.1095657 166.1053619  27.9322205  92.5553665 167.7590942  27.5654678
  92.9728394 167.3694000  26.6370468  92.4838486 168.8458252  27.5207806
  93.5126877 167.3818207  28.6242409  93.5768433 166.4015808  28.8589897
  94.4253235 167.7359924  28.3757229  93.2852707 167.8064728  29.5119629
  88.6114349 167.5913544  23.9214535  88.1643677 168.6590729  24.2899704
  87.7782669 166.7095184  23.3944340  88.2339096 165.8933868  23.0118103
  86.3010559 166.7248383  23.5080070  86.0294647 167.1406555  24.4782829
  85.7021408 167.6733704  22.4393024  84.6618271 167.8018951  22.7381763
  86.1456375 168.6687622  22.4639149  85.6612625 167.0737457  21.0131702
  86.7874756 167.2199402  20.1996117  87.6499786 167.7349548  20.5961533
  86.7306366 166.8115692  18.8643475  87.5193329 166.9786530  18.1457119
  85.5828857 166.1946411  18.3545437  85.6009598 165.8796844  17.3216438
  84.4576416 166.0556946  19.1310139  83.5718613 165.5852051  18.7304649
  84.4755554 166.5095215  20.4479866  83.5530701 166.5454559  21.0084686
  85.7845917 165.2670746  23.4793587  86.5147705 164.3239746  23.2338600
  84.4820557 165.0907745  23.6860504  83.9678421 165.9229889  23.9372444
  83.7707214 163.8396912  23.6824532  84.5008774 163.0918121  23.3732071
  83.3002625 163.4025421  25.0211010  82.7161942 164.2035980  25.4741955
  82.6844788 162.5110168  24.9024410  84.3384399 163.0782166  26.0406456
  84.9776077 163.9141998  26.8357658  84.9488678 164.9878540  26.7224827
  85.7108994 163.3332214  27.8077431  86.3905487 163.8380737  28.3584747
  85.5703354 161.9645386  27.7057552  86.1293411 160.9273071  28.4799175
  86.7639313 161.1427460  29.3268414  85.8981400 159.5345459  27.9960575
  86.3154984 158.6558533  28.4652119  85.1644440 159.3124695  26.7961292
  84.9958572 158.3103790  26.4303665  84.6291656 160.4207916  26.0837898
  84.1286163 160.1495972  25.1660213  84.8723984 161.7957458  26.4736996
  82.5864639 163.9068604  22.7191391  81.7114487 164.7282562  22.9009914
  82.5796661 163.0156555  21.7383327  83.3338852 162.3477783  21.8104439
  81.6572113 162.8440094  20.6541939  81.0287018 163.7320099  20.5867252
  82.2241440 162.5487823  19.7712917  80.7683640 161.6681061  21.0306530
  80.8913651 160.5465698  20.4986134  79.8181534 161.8786469  21.9843426
  79.7362747 162.8399200  22.2832470  79.0005112 160.7583008  22.4507599
  79.5984116 159.8605194  22.6076851  78.6454697 161.0067139  23.9269142
  77.8892746 161.7908936  23.9635696  78.2728653 160.0955505  24.3949413
  79.7572327 161.5434113  24.8969173  80.1298218 162.4836426  24.4904099
  79.0444260 161.8300934  26.2309818  79.0504990 161.0131226  26.9525375
  79.6699524 162.5795593  26.7158642  78.0091934 162.1526947  26.1199417
  80.8989410 160.5269775  25.0570030  81.5425034 160.4001617  24.1864605
  81.5172348 160.8547821  25.8926830  80.6149216 159.4878845  25.2235184
  77.6976700 160.4134827  21.6098099  77.1441574 161.3564148  21.0542431
  77.2334290 159.1549988  21.5281067  77.6835785 158.3942261  22.0166664
  76.0308685 158.8290253  20.7479706  76.0980759 159.3246155  19.7794800
  76.1553421 157.3281097  20.3151894  75.2309113 156.9526062  19.8764210
  77.1881638 157.1587067  19.2190819  78.1630402 157.5077820  19.5594635
  77.3225937 156.1129761  18.9425011  76.9102402 157.6399841  18.2814083
  76.5717087 156.5056915  21.3482685  76.7689514 155.6168976  21.0436993
  74.7028046 159.1336517  21.4361954  74.2804871 158.4927826  22.3546104
  73.9116898 159.9990082  20.7587509  74.3349533 160.4734650  19.9739952
  72.5824203 160.4739380  21.2616787  72.6740799 160.8822937  22.2681332
  72.1101761 161.7211304  20.5334930  71.2799377 162.1478271  21.0963001
  73.0090027 162.3374939  20.5157890  71.6278000 161.2799835  19.1172905
  72.2687912 161.7985229  18.4043198  71.6294174 160.2054901  18.9340191
  70.2297287 161.7623291  18.7922707  70.1356430 162.7891693  19.1455784
  70.0966492 161.7353516  17.7107582  69.1555862 160.9737549  19.4619770
  68.8905716 161.1041565  20.4278259  68.3442612 160.1814117  18.7417660
  68.5089340 159.7226257  17.5515633  69.0831757 160.1618958  16.8463020
  67.6851501 159.2498932  17.2080421  67.2079697 159.8356628  19.2844868
  66.9271164 160.4181213  20.0603542  66.6158905 159.2516785  18.7113285
  71.4776611 159.4005890  21.3073425  70.4083786 159.6618347  21.7963943
  71.7927094 158.1628571  20.7944469  72.7326279 158.1599426  20.4247952
  70.9757462 156.9615326  20.6809692  69.9593658 157.2204742  20.3842907
  71.5280151 156.0312958  19.6043472  71.1317902 155.0179138  19.5397797
  71.2352371 156.4272156  18.6319103  72.9377899 155.9423065  19.7286320
  73.2718430 155.5143890  18.9368629  71.0243835 156.1545715  21.9860306
  69.9912186 155.7227783  22.4487877  72.2257690 155.9053650  22.5277996
  73.0464706 156.1364594  21.9863796  72.4852982 155.2902374  23.8450356
  71.7389679 154.5063477  23.9738922  73.9400558 154.7484589  23.8408756
  74.6744461 155.5229950  23.6198254  74.1571503 154.1350403  24.7153416
  74.0694962 154.1183929  22.9608955  72.3032532 156.3059998  25.0641041
  72.4572144 155.8521881  26.1558819  71.9640274 157.5885468  24.7916355
  71.6867065 157.8601990  23.8592205  71.8490524 158.5400085  25.8854923
  72.3619385 158.1842194  26.7790565  72.4693222 160.0055084  25.5103970
  71.9365540 160.3446808  24.6220245  72.1265793 160.7288208  26.2502842
  73.9989853 160.1931000  25.3905277  74.4346619 159.4357758  24.7387981
  74.3827515 161.4916229  24.6305256  73.8748703 162.3489838  25.0721951
  75.4483871 161.7169037  24.6725063  74.1470490 161.3004303  23.5836315
  74.7880554 160.2525177  26.6340618  74.4283066 159.4184418  27.2365570
  75.8139038 160.1281891  26.2872562  74.7369003 161.1579285  27.2387962
  70.3451157 158.7496338  26.3798695  69.4382553 158.8371277  25.5298843
  70.1432190 158.7741699  27.7337093  70.9766846 158.7085419  28.3003902
  68.8173294 158.8854218  28.3708992  68.0375595 159.1311646  27.6500225
  68.3170624 157.5867767  29.1004677  68.2557678 156.7539978  28.3998680
  69.1625366 157.3604279  29.7501202  67.0043869 157.7288055  29.8841610
  67.0908661 158.3471832  30.7775917  65.8123779 157.9924622  28.9354534
  65.9044113 157.3320312  28.0732136  64.8507614 157.7837982  29.4043312
  65.7966003 159.0290222  28.5986919  66.6838074 156.3591003  30.5335846
  67.4022217 156.1344604  31.3219471  65.7030106 156.4331665  31.0033226
  66.5395050 155.5424652  29.8262062  68.8298645 160.1950226  29.2855721
  69.4270477 160.2765961  30.3706417  68.1049576 161.2105255  28.8813190
  67.5430832 161.3793030  27.5520630  66.4939728 161.0872955  27.5050716
  68.1333923 160.8424683  26.8094730  67.7670517 162.8568878  27.2561455
  67.1074371 163.1695099  26.4466534  68.7810898 163.1281433  26.9624729
  67.2867889 163.4155273  28.6143131  66.2002029 163.3812103  28.5352173
  67.6648407 164.4172821  28.8184052  67.8217621 162.4716492  29.6428299
  68.7237167 162.9684296  30.0002975  66.9578094 162.4058990  30.9072285
  66.0944366 163.3018646  31.1029854  67.2756119 161.4713593  31.7889023
  68.0681458 160.8795013  31.5847054  66.7910309 161.2918701  33.1615715
  65.7120361 161.4454193  33.1788788  67.2632828 159.9059906  33.6273651
  66.8601685 159.1561127  32.9467278  68.3505402 159.8906860  33.7031136
  66.6254730 159.6253052  35.0311775  67.0421677 160.3587799  35.7214584
  65.5687332 159.8670197  34.9172440  66.8893967 158.3265686  35.6692963
  67.9207840 158.0143890  35.5053253  66.7069397 158.3920593  36.7419205
  65.9899139 157.2468109  35.1190681  65.8043900 157.4146423  34.1405449
  65.7311554 156.1533051  35.7238350  66.1713181 155.8445282  36.8583984
  66.8000107 156.4370422  37.3816223  65.7693024 155.1110687  37.4245453
  65.0410309 155.2414856  35.0937576  64.4156189 155.4971771  34.3430328
  64.7015457 154.4336700  35.5960464  67.2974091 162.3874817  34.0712929
  66.4966812 162.9203186  34.8323936  68.5199966 162.7158051  33.9832535
  89.1071243 153.0150604   4.3603048  88.7957611 152.3355560   5.3713889
  89.6723175 152.4073334   6.4401445  87.6619873 151.3738708   5.3216681
  89.4668427 151.7498932   7.6107101  87.0857468 150.5783539   6.2425418
  86.7914581 151.1283112   4.3447828  88.6047821 150.9403687   8.3430328
  87.4573593 150.3682861   7.5660357  86.1804504 150.2187042   5.3509388
  85.4836121 150.6935883   4.3096833  88.8096924 150.6664581   9.6827040
  86.6000748 149.4637451   8.3619690  87.9333115 149.8115234  10.3038292
  86.9934998 149.4467010   9.4826708  90.4382401 153.0694885   6.4787755
  87.8860245 149.4791260  11.6924229  86.6916046 149.5218811  12.6165476
  88.8396530 148.8562317  12.3429518  85.5843506 149.9464874  12.1976461
  86.8634415 148.9284668  13.9577723  88.9384918 148.3334961  13.3998089
  87.9823074 148.2324219  14.4628801  88.0210953 147.5846100  15.4985104
  86.0684891 148.9721985  14.5844402  89.8066177 151.2122345  10.4260778
  89.4659958 152.3096466  11.0562763  86.3353348 149.7843018   3.7867103
  86.2894287 148.8715210   2.6580701  85.3847427 149.0859375   1.5733806
  86.8639450 147.5583191   2.5929537  85.1321259 148.1167603   0.8253533
  86.4475937 146.6832733   1.8882515  85.4125824 146.9455566   1.1785008
