Cpptraj Generated Restart                                                       
 6188  4.0000001E-01
  90.5495453 180.2932892  24.5939789  91.5241089 180.2940216  24.3287945
  90.4848175 179.3497925  24.9485302  90.3352890 180.8872833  25.3822479
  89.6643143 180.5599060  23.3760281  88.6731567 180.4264526  23.8095055
  89.8141022 182.0406342  22.8350067  90.7967529 182.1199951  22.3700333
  89.1742020 182.2791901  21.9854660  89.5978622 183.1688232  23.8612289
  88.6869812 182.9071045  24.3996487  90.4564285 183.0256348  24.5173321
  89.5567932 184.9365997  23.4117432  87.7097168 185.0366058  23.3504581
  87.4694061 184.9516296  24.4102402  87.3791809 186.0420227  23.0897312
  87.2193756 184.2929382  22.7222633  89.7180023 179.4167175  22.3422718
  90.7556229 178.7745209  22.1028347  88.5687866 178.9575806  21.8017159
  87.7771912 179.5147705  22.0898724  88.4384308 177.9382629  20.6853352
  89.0099716 177.0578918  20.9792728  86.9743423 177.5115814  20.5504856
  86.3380508 178.3946228  20.4915047  86.8550720 176.6521606  19.3210526
  87.3701935 175.7200012  19.5530624  85.8084869 176.3909760  19.1643944
  87.2910538 177.1496124  18.4547005  86.4464951 176.6854858  21.7645912
  85.4710312 176.2996979  21.4683838  87.0114517 175.7563477  21.8395424
  86.2720032 177.4313354  23.0882530  85.5512543 178.2471313  23.0325603
  85.9881821 176.6169891  23.7548904  87.2322159 177.8426666  23.3995419
  89.0747452 178.5367737  19.4261169  89.0265732 179.7146454  19.1513901
  89.7552643 177.7691650  18.6203785  90.0195465 176.8784637  19.0164928
  90.3781357 178.1982880  17.3393364  89.9753342 179.1520996  16.9985752
  91.8892059 178.4801178  17.4891396  92.2445145 178.6735382  16.4769936
  91.9504929 179.3472137  18.1467838  92.7288666 177.2601929  17.9891872
  92.5943985 176.0807953  17.6224499  93.5692444 177.4949799  18.9333019
  94.2551651 176.7785492  19.1239243  93.8357315 178.4044342  19.2825508
  90.1065598 177.2344666  16.2138309  90.3930969 177.6423035  15.1201048
  89.6189041 175.9866791  16.3896885  89.6896744 175.5883636  17.3151302
  89.1560059 175.0218506  15.3804855  89.9922180 174.6955261  14.7621241
  88.5090027 173.8455811  16.0807476  89.2906418 173.2917786  16.6007938
  87.6971283 174.1526337  16.7400494  87.9201355 172.8497925  15.0833902
  88.8138428 171.9273376  14.4825602  89.8850632 171.9844666  14.6075754
  88.3374023 170.9256287  13.6098585  88.9669037 170.2202148  13.0878353
  86.9887390 170.7021942  13.4351950  86.6513519 169.9233398  12.7673941
  86.0803223 171.6062927  14.0573988  85.0209503 171.4425354  13.9257660
  86.5601807 172.6919861  14.8532763  85.9119720 173.4310303  15.3005371
  88.1153183 175.7855682  14.4851522  87.2248993 176.4402161  15.0159483
  88.2421494 175.7251434  13.1610451  89.0536041 175.2545624  12.7866020
  87.2010040 176.1196747  12.1963263  86.7933502 177.1000519  12.4428453
  87.7644196 176.3067627  10.8346443  88.5867767 177.0220795  10.8473206
  88.1117554 175.3268127  10.5073137  86.8193741 176.8489227   9.7627249
  85.6929474 177.3245850  10.1664591  87.2295074 176.8902435   8.5866203
  85.9991379 175.1870728  12.0867939  85.9705734 174.0368958  11.5246887
  84.8429565 175.7332306  12.5548906  84.8114624 176.7035980  12.8332567
  83.5637512 175.0578156  12.7632866  83.7054367 174.1691284  13.3783045
  82.5858612 175.9801636  13.5228786  81.5829163 175.5544434  13.5539856
  83.0572433 176.1672668  14.9416208  84.1129837 176.4195862  14.8424177
  82.5127106 176.9526215  15.4658308  82.9530945 175.2068481  15.4464273
  82.6185226 177.3106384  13.0496893  81.9921341 177.9104004  13.4614267
  82.8386536 174.6562042  11.5217190  81.8993683 173.8832397  11.5046539
  83.3767929 174.9980164  10.3432026  84.1832962 175.6051178  10.3104029
  82.9043655 174.3689270   9.0334702  81.8261871 174.2346191   9.1206808
  83.1121445 175.3359833   7.8311839  82.4882584 174.9908752   7.0067010
  82.7745285 176.3397217   8.0892868  84.4498749 175.3376312   7.4177127
  84.9351273 175.7455139   8.1386518  83.4327393 172.9465637   8.7218790
  82.7777863 172.1521606   8.1232948  84.5892639 172.6185608   9.2942410
  85.0968628 173.3762970   9.7281599  85.2028503 171.3040619   8.8789053
  85.2989655 171.3448334   7.7939129  86.5837708 171.2285309   9.4629831
  86.5607071 171.5248718  10.5116730  86.9817352 170.2142639   9.4948616
  87.6317368 172.2231140   8.8141394  87.3446884 173.2656250   8.9515553
  88.9421387 172.1104431   9.5419149  89.2148666 171.0628357   9.6693859
  89.7225571 172.6237183   8.9801321  88.8597031 172.5754395  10.5242987
  87.7642593 171.9954224   7.2814641  86.8288345 172.1192932   6.7358274
  88.4537811 172.7226410   6.8527198  88.1505432 170.9883118   7.1245303
  84.3916550 169.9412384   9.0714769  84.6817627 168.9015350   8.3927479
  83.4898758 169.8807831  10.0794649  83.4519272 170.7098999  11.2378597
  82.8026886 171.5578461  11.0197086  84.4481049 171.1290894  11.3793049
  82.9877930 169.8930664  12.4254150  82.5332336 170.5384369  13.1770601
  83.7783813 169.2614594  12.8305826  81.9363937 169.0823364  11.6308622
  81.0602722 169.7268524  11.5593996  81.6690216 168.1375122  12.1040869
  82.5510941 168.7840424  10.2639141  83.0495987 167.8155670  10.3045483
  81.4518967 168.6904755   9.2011452  81.1755066 167.6204071   8.6921959
  80.8816757 169.8802032   8.8123741  81.2385941 170.7773895   9.1085901
  79.6373520 170.0651398   8.0143843  78.9598846 169.2495270   8.2672491
  78.8405151 171.3726196   8.2465353  77.8861160 171.2922516   7.7261925
  78.4463501 171.3667297   9.7277946  79.3800507 171.5277710  10.2666512
  77.7164230 172.1527710   9.9212885  78.1123886 170.3530426   9.9491768
  79.6074982 172.5975189   7.9884000  79.4114227 172.8682098   7.0884638
  79.9724274 169.9314117   6.4508276  79.0873718 169.5998230   5.6262121
  81.2704315 170.1295166   6.1255898  81.8907623 170.4754486   6.8436580
  81.7951508 169.7998810   4.7875085  81.0891724 170.2792816   4.1093645
  83.1914749 170.3414307   4.6220880  83.4472046 170.1629333   3.5776522
  83.1213913 171.4176941   4.7796760  84.0933228 169.6568756   5.4726448
  84.9678040 170.0384827   5.3665280  81.7813492 168.2892151   4.5551243
  81.5876465 167.8448639   3.4233248  81.8332062 167.3924255   5.5985188
  81.8141174 167.8569946   6.4951320  81.9405594 165.9379730   5.6594934
  82.1032562 165.6491394   6.6978559  80.5827408 165.2525635   5.3804860
  80.3574219 165.5125580   4.3462052  80.8516541 164.1964569   5.4011912
  79.4373856 165.5497131   6.3230062  79.2151566 164.8509674   7.5386763
  78.0699692 165.3852692   8.0301704  77.5630341 164.9076843   8.8556013
  77.5984726 166.4076385   7.2830844  76.7128296 166.8592377   7.4613733
  78.4816208 166.5194244   6.2038093  78.4188843 167.2419739   5.4035587
  83.1681519 165.3056641   4.9119143  83.0556335 164.2384796   4.2892570
  84.3180542 165.9457855   4.9523029  84.3140564 166.7794342   5.5224848
  85.5366135 165.5695343   4.1669269  85.4345551 165.8857880   3.1288161
  86.7207336 166.3899384   4.7217689  86.6697159 166.4523926   5.8087821
  87.6748734 165.9386597   4.4495993  86.7771759 167.8305969   4.1555634
  86.7279129 167.7879486   3.0675123  85.8619537 168.2618408   4.5611339
  88.1339493 168.8157959   4.8689127  89.6439056 168.3119812   3.9386408
  89.5232391 168.3995056   2.8588827  90.5117035 168.8962708   4.2446327
  89.7925262 167.2629852   4.1948247  85.9735718 164.1125793   4.3222198
  86.5542221 163.5250854   3.3735631  85.7479401 163.4585114   5.4448857
  85.3399887 163.9856873   6.2036748  86.0666046 162.0630188   5.7370381
  87.1471710 162.0309448   5.5975828  85.6667099 161.7309875   7.2280736
  86.0551910 160.7607269   7.5375209  86.0791855 162.4783630   7.9058595
  84.1389389 161.6886444   7.4044986  83.4981689 162.9073181   7.8013635
  84.0707169 163.8158417   7.9161496  82.1178513 162.9792938   8.0407686
  81.7163239 163.9067230   8.4216204  81.3004761 161.8900452   7.7526145
  80.0080490 161.8791656   7.9384837  79.7025528 162.7828217   8.0465813
  81.9178085 160.6613312   7.2810698  81.3142624 159.7770233   7.1391683
  83.3539505 160.5419617   7.1358347  83.8049774 159.6105804   6.8267994
  85.4018860 161.0805054   4.7996073  86.0030136 160.0032043   4.4268875
  84.1945114 161.4582062   4.3080544  83.7610550 162.3107910   4.6325946
  83.3729782 160.6416931   3.3918028  83.3848953 159.5855103   3.6609113
  81.9840546 161.1089172   3.4715362  81.6556778 161.0554047   4.5095167
  82.0252914 162.1786804   3.2665732  81.0322266 160.3381500   2.5113423
  81.5705566 159.8116455   1.7232469  80.2135162 159.3450928   3.3074505
  79.5909195 159.8539124   4.0433640  79.4443359 158.9201965   2.6625292
  80.9067154 158.6163483   3.7275794  80.0338974 161.2826080   1.8748685
  80.5681152 162.0649872   1.3357949  79.4426727 160.8106537   1.0901227
  79.4577026 161.7673035   2.6630051  83.9822922 160.7707825   2.0086224
  84.3605728 159.7196198   1.4064946  84.3408508 161.9237366   1.6191823
  84.2096024 162.7462463   2.1904566  85.2739410 162.1016083   0.5135304
  86.2909851 161.9635925   0.8805123  85.0726395 161.3345795  -0.2343043
  85.2463531 163.5110626  -0.0823550  84.1977158 164.2026367  -0.1133639
  86.4009628 164.0234985  -0.4687896  87.1910629 163.4033966  -0.3623807
  86.4042816 165.2478027  -1.3025056  85.6472702 165.9057617  -0.8757526
  87.8275452 165.8109131  -1.1622740  87.7439651 166.8321381  -1.5340515
  88.2143402 165.8441010  -0.1437501  88.8130188 165.1812592  -1.9267274
  89.6817474 165.2893524  -1.5327348  86.0453720 164.9243469  -2.7956016
  85.9470673 163.7386322  -3.1892705  85.9695358 165.9451447  -3.6257811
  85.9657669 166.8595428  -3.1968880  85.7373199 165.8015137  -5.0913754
  85.4367371 166.7447052  -5.5476131  87.1126404 165.2838287  -5.7475305
  87.8492661 166.0634155  -5.5532990  87.3875885 164.4187622  -5.1440711
  87.1201630 164.9316101  -7.2649221  86.7026825 165.7625580  -8.0799723
  87.5959015 163.8315887  -7.6308937  84.5207291 164.8844452  -5.4409871
  84.6700134 163.8074646  -6.0466433  83.3176498 165.3647003  -5.1065378
  83.2934418 166.2407684  -4.6045165  82.0487061 164.7749176  -5.4686961
  82.2567825 163.7962036  -5.9010429  81.1809311 164.6471558  -4.2171640
  80.9240189 165.6412659  -3.8513198  80.2855682 164.1405945  -4.5774789
  81.9187775 163.8602448  -3.1079106  82.2807770 162.9418945  -3.5701857
  82.7697525 164.4598694  -2.7848265  81.0972366 163.5336151  -1.5835345
  79.7813110 162.3838043  -2.0134039  80.0715866 161.7729187  -2.8681970
  79.4581604 161.7837830  -1.1627160  78.9454498 163.0345612  -2.2702117
  81.3438110 165.5641785  -6.6111851  81.4441376 166.8036346  -6.6450963
  80.5308380 164.8630524  -7.4801960  80.2675934 163.9038544  -7.3048606
  79.6097412 165.4826202  -8.3831015  80.0506744 166.2879791  -8.9705429
  79.0620880 164.3748779  -9.3363752  79.7734451 163.5694427  -9.5189867
  78.1971436 163.8911133  -8.8825521  78.7145462 164.8906860 -10.7474642
  78.0859833 165.7773285 -10.6645670  79.6311722 165.2332458 -11.2276201
  78.0282364 163.7828674 -11.6157770  78.5875854 162.6792297 -11.7326412
  77.0498047 164.0734863 -12.3392649  78.4631119 166.1486969  -7.5151887
  77.8348236 165.5034637  -6.6360397  78.1567383 167.4534760  -7.7538242
  78.5371170 167.8688660  -8.5921946  77.1998672 168.3133698  -7.1203661
  76.8410721 167.8575592  -6.1975431  77.9090805 169.6156616  -6.7115269
  78.6018600 169.9720001  -7.4738889  77.1778183 170.3527832  -6.3798590
  78.8204727 169.3419800  -5.4278779  78.1887054 169.1179810  -4.5683427
  79.4465637 168.4773407  -5.6481524  79.6775742 170.5810394  -5.0414572
  79.5369644 171.7358704  -5.5911622  80.5928726 170.3750916  -4.2573590
  75.9989090 168.7211914  -8.0040865  76.1036987 169.0026703  -9.1896858
  74.8035126 168.8233337  -7.4111981  74.8384171 168.5438080  -6.4412742
  73.4728165 169.1759491  -7.9214311  73.5672302 169.3124847  -8.9987202
  72.4298019 168.0783386  -7.7205300  72.4173660 167.8543091  -6.6538744
  71.4340439 168.3384247  -8.0795746  72.8096619 166.7978821  -8.4270229
  72.5356750 166.6369781  -9.8227434  72.0715332 167.4288788 -10.3918409
  72.6561127 165.4190369 -10.4418612  72.3777695 165.3788910 -11.4846039
  73.2789536 164.3483276  -9.6800585  73.3686371 163.3394318 -10.0548964
  73.6248322 164.5796204  -8.3143158  73.9170609 163.7600861  -7.6744981
  73.3799133 165.7762299  -7.6953926  73.4898376 165.8309326  -6.6223950
  73.0199280 170.4913025  -7.3501320  73.0801620 170.7439270  -6.1458044
  72.5281525 171.3130341  -8.2413139  72.5436859 171.0605011  -9.2191124
  71.9649277 172.6735992  -7.9704041  72.2368393 173.0333252  -6.9780440
  72.5680695 173.5514526  -9.0619640  72.3896942 174.5653076  -8.7036610
  73.6551132 173.4769592  -9.0322256  72.1169968 173.3266144 -10.5158243
  72.4714203 172.2368317 -11.2742901  71.9493942 172.5130920 -12.5007753
  72.0826569 171.8567352 -13.3480244  71.3559647 173.6784668 -12.5661364
  70.9541473 174.0308228 -13.4231596  71.4449692 174.2380829 -11.3134146
  71.0482178 175.2234497 -11.1183777  70.4011765 172.7701874  -8.0813808
  69.8379440 173.5827332  -7.3829708  69.6979141 171.9523010  -8.9468994
  70.2359848 171.2436676  -9.4248171  68.2440338 172.0632782  -9.1459398
  67.8836594 173.0821075  -9.2881193  67.9188690 171.6148834 -10.0847273
  67.4369736 171.4505920  -7.9939861  67.7119064 170.3046417  -7.6526804
  66.4286423 172.1416321  -7.3437762  65.9761353 172.9553833  -7.7350955
  65.6802368 171.4852600  -6.1668448  66.3540268 170.7638092  -5.7046523
  65.4321518 172.6083679  -5.1113892  64.6510162 173.2833252  -5.4611979
  65.0370331 172.1164856  -4.2225499  66.7276230 173.3532867  -4.6970625
  67.3848648 173.5887909  -5.5341191  66.4584122 174.3006744  -4.2300420
  67.4712982 172.5676422  -3.6014121  66.8421707 172.5444183  -2.7116036
  67.6069717 171.5421906  -3.9451308  68.8342819 173.1569977  -3.3598928
  69.5591049 172.6320801  -3.8280830  69.0801697 174.2871857  -2.7455304
  68.1772156 175.0335236  -2.2445085  67.2265701 174.6923981  -2.2443101
  68.3011856 175.9447784  -1.8269663  70.2623520 174.7904816  -2.7305143
  70.9571915 174.1309814  -3.0504389  70.4270782 175.7175903  -2.3652079
  64.4720459 170.6541595  -6.4323902  63.6712723 170.9231110  -7.3329163
  64.2566910 169.6576843  -5.5647779  64.7754440 169.5812836  -4.7015510
  63.0739288 168.7639008  -5.6674366  62.6063843 168.8705902  -6.6462717
  63.5516319 167.2512054  -5.5553789  63.8003540 166.9957886  -4.5253315
  62.4752884 166.2089844  -6.0313749  62.2229843 166.2952118  -7.0882640
  62.8806419 165.2229462  -5.8043885  61.6225395 166.3086090  -5.3598156
  64.7031174 166.9536285  -6.3186555  64.8754272 166.0334015  -6.1063175
  61.9334106 169.1124268  -4.6269674  62.0532455 168.7349548  -3.4706051
  60.8063202 169.6742249  -5.0231457  60.7361221 170.0535583  -5.9565716
  59.6874161 170.0173645  -4.1395359  59.7890739 169.3491669  -3.2843885
  59.7725487 171.5393677  -3.7120523  59.6585617 172.0416260  -4.6726999
  58.9479942 171.9114532  -3.1039741  61.0638313 171.9597473  -3.0058360
  61.9710503 171.5653076  -3.4635243  61.1532516 173.4786682  -2.8877532
  60.2930565 173.9767303  -2.4404352  62.0868759 173.7887878  -2.4184296
  61.1324348 173.9335022  -3.8781040  61.0598068 171.4178162  -1.6007140
  60.9802742 170.3356628  -1.7042629  61.9745178 171.7496796  -1.1095241
  60.2251511 171.8670349  -1.0625238  58.3218956 169.7618713  -4.8535719
  58.1175270 170.1754608  -6.0222168  57.4634438 169.0203705  -4.1433134
  57.7476501 168.7452087  -3.2140036  56.0946465 168.5918579  -4.4694276
  55.9992065 168.4758759  -5.5490336  55.9450264 167.2037811  -3.8520064
  55.8672867 167.1865387  -2.7649190  54.9835205 166.8073273  -4.1782517
  56.8692703 166.1521912  -4.2485285  57.9171219 165.6371765  -3.4433429
  58.5868988 164.7751923  -4.2020302  59.4120865 164.1504822  -3.8934736
  58.0511589 164.6801453  -5.4326725  58.3015060 164.0156403  -6.1509061
  56.9916039 165.5931396  -5.4735904  56.3116493 165.8285065  -6.2789888
  55.0848846 169.6318512  -3.9567606  55.3765297 170.5783081  -3.1700971
  53.8316422 169.4917145  -4.3498449  53.6113663 168.8118591  -5.0635538
  52.7616463 170.2726135  -3.8249395  53.0053635 171.3335876  -3.7698255
  51.5827332 170.0433044  -4.7632837  51.1983795 169.0271454  -4.6749372
  50.7462807 170.6762390  -4.4669051  51.9109497 170.5267029  -6.1951089
  52.0764542 171.7414398  -6.3413186  51.8992500 169.7696838  -7.1596546
  52.3945389 169.8387146  -2.3717022  52.6659431 168.6972351  -1.9435683
  51.8123512 170.7836914  -1.6128970  51.5053596 171.6064911  -2.1117630
  51.3317108 170.4477997  -0.2912586  52.2038307 170.1338959   0.2823026
  50.8545113 171.7375488   0.4135709  50.2482033 172.4009705  -0.2031630
  50.2526398 171.4851990   1.2865951  52.0097084 172.6269531   0.8787732
  53.1243820 172.1294556   1.0532447  51.7669334 173.8479004   0.9790683
  50.2646828 169.3757019  -0.3049997  49.3003273 169.3703003  -1.0749909
  50.3456650 168.4455872   0.6318876  51.1396103 168.4848022   1.2549545
  49.4106178 167.2813873   0.8445837  49.9659653 166.6313019   1.5206585
  48.0726242 167.7981873   1.4095778  47.7146568 168.5468597   0.7028687
  47.3955765 166.9468231   1.4795190  48.1636162 168.4470520   2.7516952
  48.7733612 167.7871857   3.6487668  47.6349106 169.5752563   2.9645493
  49.1665230 166.3638916  -0.4182876  48.2050323 165.5821075  -0.5080725
  50.0186195 166.4347534  -1.4414655  50.8530693 166.9947205  -1.3403770
  50.0521774 165.4776764  -2.5687947  49.0188713 165.3367462  -2.8858423
  50.7925682 166.0812531  -3.7264757  50.6990013 165.3994293  -4.5717344
  50.3123589 167.0425110  -3.9094050  52.1918831 166.1499786  -3.3998086
  52.3871841 166.9492645  -2.9052391  50.5798912 164.0807800  -2.0781422
  51.3360710 164.0266571  -1.1116979  49.9944305 163.0551453  -2.6481578
  49.1782036 163.2071838  -3.2232814  50.3399353 161.6798096  -2.3753831
  50.7324142 161.6647949  -1.3586046  49.1046448 160.7391357  -2.3556323
  48.4490852 161.1320343  -1.5784715  48.5912704 160.7294617  -3.3171177
  49.3968849 159.0770264  -1.7905775  49.2951508 158.5743256  -3.0242097
  51.4652596 161.2472229  -3.2950082  51.3908272 161.3947754  -4.5189657
  52.5804749 160.7821655  -2.6781187  52.5005798 160.7833405  -1.6712843
  53.7636681 160.3654327  -3.4240420  53.4854698 160.3155823  -4.4767618
  54.9268188 161.3367157  -3.1651390  55.1781044 161.2850494  -2.1057575
  55.7579956 160.8575439  -3.6824825  54.6843109 162.8443909  -3.4800658
  53.9050369 163.2026672  -2.8074064  55.5431213 163.4682159  -3.2322700
  54.2463989 163.0605621  -4.9179583  54.5973969 162.2673035  -5.7949386
  53.5230827 164.0852966  -5.3181100  52.9773331 163.9647827  -6.1593809
  53.2324295 164.7607574  -4.6257405  54.2186317 158.9620514  -3.0718157
  53.9972382 158.5390930  -1.9444503  54.8164177 158.2684631  -4.0599170
  54.8410568 158.7122650  -4.9668598  55.5771179 157.0242004  -3.8034744
  55.3568230 156.8330688  -2.7532153  55.1428871 155.8498993  -4.6667724
  54.0648155 155.7722626  -4.5259542  55.3093491 156.0082092  -6.1625066
  56.3650055 156.1483459  -6.3950067  54.8711510 155.1243134  -6.6259928
  54.8388252 156.9419098  -6.4705896  55.9372597 154.5914459  -4.3317008
  55.5608635 154.1674957  -3.4007399  55.6583595 153.7610931  -4.9804039
  57.0164528 154.6793365  -4.4570608  57.0661354 157.2782745  -3.8630137
  57.5237999 157.9067535  -4.8581843  57.7851295 156.8716583  -2.8382595
  57.3106270 156.5968323  -1.9900779  59.2306519 157.1585541  -2.6696219
  59.6682320 157.4257507  -3.6315107  59.3230095 158.4300995  -1.7308122
  59.0091476 158.1189575  -0.7344254  60.7984505 158.8963928  -1.5709181
  61.1841583 159.3944092  -2.4604733  60.8950195 159.6666718  -0.8057734
  61.4481773 158.0388184  -1.3961446  58.4316711 159.6004486  -2.2902191
  58.7245255 159.7273254  -3.3324468  57.4156761 159.2496948  -2.1090312
  58.5310478 160.9668427  -1.5971365  59.3626060 161.5864258  -1.9328936
  57.6580734 161.6036682  -1.7401973  58.5199966 160.9020081  -0.5091230
  59.9606209 155.9562531  -2.1495719  59.5659065 155.3806152  -1.1136712
  61.0614014 155.4887848  -2.8028762  61.7816505 156.0574646  -3.9823651
  62.1122055 157.0671082  -3.7385476  61.1709023 155.9430847  -4.8779097
  63.0361862 155.2311096  -4.2386031  63.9892006 155.7019806  -3.9974766
  63.0088463 154.9027252  -5.2776022  62.7936859 153.9341278  -3.4214466
  63.7063370 153.4306488  -3.1025710  62.2456589 153.2056427  -4.0190086
  61.8948326 154.3983307  -2.2460737  61.1566010 153.6171875  -2.0646048
  62.6925659 154.7483978  -1.0095465  63.2769051 155.8277130  -0.8607830
  62.6460114 153.7527008  -0.0988500  62.2640610 152.8792877  -0.4325479
  63.3132629 153.7575378   1.1754014  63.6441803 154.7356873   1.5244344
  62.4517517 153.1105194   2.3058026  62.2962265 152.0875092   1.9632570
  63.1416054 152.9442749   3.6155105  63.2977905 153.9085541   4.0991321
  62.5052490 152.3338165   4.2561951  64.1551590 152.5442200   3.5877972
  61.1495628 153.9173889   2.4853845  60.7185707 154.2103882   1.5280435
  60.3932838 153.3776550   3.0553262  61.4611130 154.8182526   3.0140460
  64.6112671 152.9953461   1.0071727  64.5373383 151.8581848   0.5471532
  65.6742020 153.5125275   1.5734122  65.7874680 154.4765930   1.8524369
  66.8719177 152.6766968   1.8895202  66.9636765 152.0130005   1.0297599
  68.1026611 153.5060272   2.0434384  67.9270782 154.1864014   2.8767164
  68.8640213 152.8312225   2.4346764  68.7418060 154.2704010   0.8848755
  68.0062714 154.8380127   0.3148699  69.7362518 155.3267365   1.3521683
  70.3287354 154.9635010   2.1918867  70.3712921 155.6162720   0.5149198
  69.2830353 156.2511292   1.7101705  69.4251175 153.3156586  -0.0379666
  68.6699753 152.6843414  -0.5062631  69.9274139 153.8831940  -0.8213569
  70.1274033 152.6830139   0.5048481  66.6797943 151.8178558   3.1926839
  66.4534073 152.3743591   4.2628126  66.9012680 150.5203857   3.1240950
  67.2409897 149.8253632   1.8725878  68.1640320 150.2814178   1.5146840
  66.4429855 149.8912354   1.1330227  67.4517517 148.3226624   2.2675586
  68.5032959 148.1258240   2.4764018  67.1476440 147.5681152   1.5421149
  66.6423798 148.1758423   3.5603812  67.1732483 147.4133148   4.1303248
  65.6257095 147.9341125   3.2504640  66.7016830 149.6190643   4.2303710
  65.7399063 149.8139496   4.7048326  67.7823944 149.7678680   5.3530865
  67.5425568 149.4459076   6.5022159  69.0170670 150.1695557   5.0316720
  69.3202438 150.2811279   4.0747299  70.0278625 150.5435638   6.0985532
  69.8975067 149.9477997   7.0019741  71.3559341 150.1555481   5.5821252
  71.5979385 150.6193390   4.6258674  72.1360931 150.5148163   6.2532210
  71.3864517 148.5997772   5.4493399  70.8269958 147.8256989   4.4620233
  70.6724854 146.5619659   4.9824681  70.1721573 145.7697754   4.4453330
  71.1385803 146.5217590   6.2278242  71.1672211 145.6812744   6.7871523
  71.5130539 147.7873840   6.5711555  71.8803864 148.1176300   7.5315762
  70.0039597 151.9171753   6.7354255  70.7964554 152.1421509   7.7017741
  69.0827942 152.8110962   6.3251581  68.4618912 152.5468750   5.5736418
  68.8509598 154.0835724   7.0567684  69.8082123 154.5318604   7.3228559
  68.2898560 155.1845398   6.1618500  67.3887634 154.7362976   5.7432528
  67.8774490 156.3763885   7.0527730  68.7401047 156.9251251   7.4306517
  67.3790817 157.1036987   6.4118757  67.1454544 156.0427399   7.7882757
  69.2153625 155.5983124   4.9860005  69.6246948 154.7411804   4.4513245
  68.6316147 156.1222076   4.2291217  70.0185089 156.2182617   5.3843832
  67.9817886 153.6857300   8.3184986  66.8733444 153.3264160   8.0514488
  68.5112686 154.0371094   9.5343380  69.4679794 154.3536224   9.6023273
  67.7592773 153.7234802  10.7512465  66.7265930 153.5759583  10.4351788
  68.3237305 152.4307556  11.4080362  69.4136581 152.4284363  11.3954029
  67.9837952 152.2902679  12.4341002  67.9251251 151.2112732  10.5527687
  66.8594513 151.2809906  10.3346605  68.4683533 151.3016052   9.6121054
  68.4503708 149.6494446  11.2312517  67.7713165 148.4187775  10.0982981
  68.0349197 148.6720886   9.0714331  68.1859741 147.4724274  10.4455357
  66.6874390 148.3515320  10.1921167  67.5124512 154.9179077  11.6863384
  67.0092621 154.6796570  12.8059635  67.8405533 156.1508636  11.2825365
  68.1397552 156.2655334  10.3247108  67.7384567 157.3549194  12.1151752
  67.4906921 157.0531158  13.1328335  69.0453262 158.1300049  12.1570978
  68.9283600 158.9885101  12.8184576  70.2084656 157.3327789  12.7449026
  70.6577301 156.5908966  12.0847006  71.0647964 157.8283081  13.2023258
  69.7510834 156.8058014  13.5822821  69.5365982 158.5582275  10.7585135
  68.7494965 159.1075439  10.2419538  70.3469696 159.2727814  10.9028606
  69.8614044 157.6859131  10.1913662  66.5774460 158.2148743  11.6137838
  66.1857224 158.2182617  10.4409904  66.0766907 158.9815369  12.5169230
  66.2417374 158.7890015  13.4945679  65.0536499 159.9513245  12.2448797
  64.3773193 159.5049744  11.5158730  64.2701187 160.2138977  13.4691133
  63.8806534 159.2850647  13.8858595  64.8216400 160.7335663  14.2526112
  63.1057434 161.1053467  13.1154909  63.3692932 162.0720673  12.6864214
  62.4946747 160.5942841  12.3715086  62.0838165 161.5752563  14.5278282
  61.9251289 160.1150665  15.5433683  62.7056313 160.0213013  16.2984409
  61.0049744 160.3518524  16.0775528  61.8875160 159.2038879  14.9463387
  65.6173325 161.3354187  11.7100811  66.1344604 162.1493073  12.4226561
  65.6578293 161.4336090  10.3490601  65.4499359 160.6995544   9.6872101
  66.1546021 162.6842499   9.8144217  67.0738068 162.9046631  10.3571739
  66.4627762 162.4301605   8.2677040  67.2144089 161.6408081   8.2602215
  65.5475845 162.1487732   7.7467914  66.9482269 163.6072235   7.4823265
  66.3575439 164.4946136   7.7097659  68.3992538 163.8100281   7.7653985
  68.8780594 162.8676300   7.4994216  68.8146133 164.5953674   7.1338692
  68.5296936 164.0932770   8.8098392  66.8574753 163.2915192   5.9472890
  65.8205032 163.1085968   5.6656542  67.2052231 164.1699219   5.4036026
  67.4576263 162.3930817   5.8033161  65.1327515 163.8183594   9.9506407
  64.0304718 163.7032166   9.4087467  65.4527969 164.9101715  10.6590567
  66.3243256 164.9230042  11.1693153  64.5820541 166.1282959  10.6424379
  63.5241127 165.8716125  10.5878887  64.7653427 166.9598846  11.9265356
  65.7270279 167.4526672  11.7835493  63.7591057 168.1245728  11.9970112
  62.7301292 167.7825165  11.8860741  63.9085159 168.5435486  12.9921198
  63.9401321 168.8730316  11.2255592  64.7336044 166.2673645  13.2809038
  65.6177521 165.6299438  13.2892151  64.8054352 166.9511719  14.1266994
  63.5822601 165.3656769  13.5978537  63.5167046 164.5579529  12.8689051
  63.6622925 164.9374695  14.5970163  62.6415749 165.9137268  13.5443859
  64.9680557 167.0123138   9.4261961  66.1805573 167.0818787   9.1737556
  64.0308151 167.6343689   8.7099867  62.6017342 167.3625031   8.7769260
  62.2177315 167.8091583   9.6940651  62.4109383 166.2924652   8.6950493
  62.0564384 168.0448608   7.5252047  61.0417671 168.4065399   7.6917305
  62.0578461 167.3315277   6.7010417  62.9841576 169.2197876   7.3427124
  62.6563416 170.0449371   7.9749694  63.0074768 169.6158752   6.3274965
  64.3562088 168.6482849   7.7058010  64.6662521 168.1124878   6.8086348
  65.3472672 169.6943665   8.1087875  65.6203232 169.9001312   9.3161669
  66.0029984 170.3427734   7.0957022  65.6710815 170.2024536   6.1521769
  67.2429733 171.2121887   7.2350678  67.3404541 171.8162384   6.3330054
  66.9864807 171.8517456   8.0796280  68.5168076 170.4783478   7.5529680
  69.5614853 170.9892426   7.2320361  68.4841690 169.2989349   8.2284832
  67.5402985 169.0224609   8.4581976  69.6168060 168.4289551   8.6459475
  70.2771149 169.0509796   9.2502518  68.9824524 167.4361420   9.6785192
  68.3141251 168.0121765  10.3185329  68.3986893 166.6743622   9.1617737
  70.0351334 166.7449188  10.6015396  70.7786484 166.2955017   9.9432840
  70.5381241 167.4648590  11.2471218  69.3610229 165.6657562  11.5119982
  68.2097931 165.6730042  11.8526306  70.0912476 164.6200104  11.8210068
  69.9306183 164.0575714  12.6443930  71.0295639 164.4546967  11.4858150
  70.3409805 167.7701569   7.5130854  69.6623459 167.2191620   6.6795464
  71.6938553 167.7720337   7.4814258  72.1851273 168.3951874   8.1062660
  72.5168762 166.9467316   6.5242157  72.1127243 166.9149628   5.5124044
  73.9363861 167.5032654   6.4387231  74.5636749 167.2117462   7.2811236
  74.6822357 167.0595093   5.2175384  74.0733719 167.2894135   4.3431587
  75.6297302 167.5925903   5.1389070  74.8525238 165.9870911   5.3123622
  74.0271378 168.9171143   6.4961095  74.9338760 169.1778564   6.6734061
  72.5723877 165.4243622   6.8780880  72.7104340 165.0913239   8.0174818
  72.5863037 164.5445709   5.8336005  72.3822250 164.9427948   4.9281340
  72.7282181 163.0958710   5.8681169  72.8837051 162.9442139   6.9362578
  71.4127960 162.4912262   5.4923759  70.6140518 162.9542999   6.0717511
  71.2779770 162.7252197   4.4363580  71.3203812 160.9492340   5.5285058
  71.7949600 160.4456635   4.6863012  71.8829498 160.3185577   6.7718444
  71.5074005 160.8837280   7.6248641  71.7032776 159.2513275   6.9016180
  72.9661331 160.4373627   6.7453279  69.8362198 160.6063995   5.5366883
  69.3395615 161.0644989   4.6813555  69.7439270 159.5651550   5.2278485
  69.4755783 160.7595673   6.5538292  73.9140396 162.6275940   4.9066467
  73.7585831 162.5195007   3.6832139  75.0869904 162.3145905   5.4733744
  75.4190903 162.4283905   6.8820457  74.7033310 161.8180695   7.4327650
  75.2190247 163.4566956   7.1831264  76.8355637 162.0016632   7.1585798
  76.8163300 160.9471741   7.4338436  77.3094482 162.7138367   7.8341136
  77.4251633 162.1202393   5.7396436  78.3079071 161.4926910   5.6169662
  77.6233444 163.1733398   5.5401583  76.2083588 161.7060852   4.8609838
  76.4220657 162.0761108   3.8582327  75.9549255 160.2146149   4.8811536
  75.4222107 159.6499329   5.8329558  76.2386398 159.5396881   3.7682428
  76.5420303 160.0245514   2.9358022  75.9600830 158.0806732   3.5179749
  75.8860855 157.6490173   4.5161214  74.5697556 157.8953400   2.8348126
  74.4843979 158.6333771   2.0372539  74.6005783 156.9515686   2.2903216
  73.2846680 157.9067383   3.7299540  73.2390976 158.8200378   4.3231831
  72.0946960 157.9179535   2.7532868  72.2127762 157.0718994   2.0762787
  71.1640854 157.9297028   3.3206701  72.0535202 158.8050232   2.1212151
  73.1820068 156.7133484   4.6426997  73.9528046 156.8585968   5.3995948
  72.1829987 156.6555939   5.0748372  73.4557266 155.7948456   4.1235418
  77.0061798 157.3551636   2.6657069  77.4604568 157.8148651   1.6049348
  77.4842911 156.1985474   3.1122427  77.1671524 155.8792267   4.0164351
  78.3156738 155.3007660   2.2374291  78.3840179 155.7319489   1.2386733
  79.7772064 155.3041840   2.7351418  80.1930313 156.3095551   2.6688468
  79.7035141 155.1641998   3.8136017  80.6694717 154.2447968   2.0507040
  80.1621246 153.2910156   2.1955481  80.7503662 154.5018005   0.9945289
  82.0835876 154.0622864   2.6726627  82.3887787 154.6414948   3.7076910
  82.9141312 153.2039642   2.1323471  83.8088837 152.9723816   2.5396476
  82.6661835 152.6841278   1.3026521  77.5374985 154.0177155   2.0864968
  77.2433243 153.3014832   3.0622332  77.2460327 153.6599884   0.8051629
  77.6060791 154.1918488   0.0256760  76.5290451 152.4508209   0.4534894
  76.2370453 151.9498901   1.3764772  75.2719650 152.9279327  -0.3610615
  75.5479584 153.1866608  -1.3833078  74.6315460 152.0498505  -0.4443936
  74.4672165 154.1091309   0.1893429  75.0814896 154.9878540   0.3858650
  73.4353256 154.6267548  -0.7745957  72.9475174 153.7256622  -1.1463211
  72.7299652 155.2437439  -0.2179168  73.9087601 155.1479492  -1.6066612
  73.7776718 153.8411560   1.5106670  74.4443207 153.3983917   2.2507057
  73.2651291 154.7102966   1.9229711  73.0497589 153.0484619   1.3378155
  77.4288254 151.4849548  -0.3507858  77.8441086 151.9059296  -1.4950064
  77.6348495 150.2264709   0.1406019  77.3401642 150.0214386   1.0846494
  78.4391479 149.1370544  -0.4343207  78.8050995 149.3159485  -1.4453473
  79.6482162 148.8667297   0.5107481  80.3396225 148.0832672   0.2005121
  80.2244263 149.7914734   0.5412670  79.1805496 148.3814697   1.8786740
  78.7868271 149.3552856   2.8473804  78.8598328 150.3812714   2.5181365
  78.2955856 148.9520874   4.0878644  77.8940048 149.6730347   4.7845545
  78.3377457 147.5662842   4.4290566  77.9840317 147.2449493   5.3975735
  78.7841568 146.6194305   3.4904780  78.6059189 145.5741730   3.6955965
  79.0820312 147.0112000   2.1709516  79.3729019 146.3518829   1.3665297
  77.6760025 147.7729645  -0.6556876  78.2350464 146.9046173  -1.3385342
  76.4520721 147.5865173  -0.1151465  76.0717316 148.4204712   0.3090726
  75.6137009 146.4539337  -0.4855539  76.1510086 145.5065308  -0.5283703
  74.4739151 146.2735138   0.4798886  74.0413818 147.2535248   0.6813341
  73.6789093 145.6503906   0.0702554  75.0012589 145.7315521   1.7578008
  75.6795120 144.4971161   1.9377784  75.9675903 144.4439850   3.2615395
  76.7129211 143.8027039   3.7083478  75.4979019 145.5375214   3.8407323
  75.5908356 145.7994080   4.8117552  74.8663788 146.3287354   2.9548378
  74.3355103 147.2524261   3.1319041  74.9571609 146.6663361  -1.8492252
  74.5265350 147.8126373  -2.1529787  74.8473892 145.6114807  -2.6996279
  75.1610107 144.2172394  -2.4389291  74.6578369 143.7810669  -1.5759838
  76.2178879 144.0640106  -2.2206633  74.7095871 143.5003967  -3.7202654
  73.6381149 143.3006744  -3.7327802  75.2782745 142.5990753  -3.9489863
  74.8380508 144.5210419  -4.8291068  74.0481339 144.4241943  -5.5739212
  75.8435974 144.5440216  -5.2491727  74.6248627 145.8582001  -4.0993109
  75.3572769 146.5223389  -4.5581980  73.2943420 146.5006256  -4.4178143
  73.2741623 147.5271606  -5.1479969  72.2214508 145.9325867  -3.8619125
  72.2201309 145.1387939  -3.2374072  70.8865204 146.4897003  -3.9624302
  70.6753845 146.5124817  -5.0315466  69.8221359 145.5739746  -3.3233683
  68.8609314 145.8506775  -3.7565088  70.0603027 144.5715485  -3.6790519
  69.7608948 145.4030914  -1.8315321  69.8178177 146.4063873  -1.4093297
  68.7687607 144.9860535  -1.6587106  70.6934280 144.4088287  -1.1950780
  71.6570663 143.9347534  -1.7821773  70.4645462 144.1657562   0.0625933
  71.2700577 143.8061676   0.5544701  69.6247635 144.5292816   0.4900496
  70.7804489 147.9004364  -3.5453410  70.0037079 148.6780243  -4.1723866
  71.5072403 148.3764648  -2.4863288  72.0627823 147.6965179  -1.9871843
  71.5947800 149.7979584  -2.0328138  70.5801697 150.1746063  -1.9031833
  72.1539917 149.9557190  -0.6026513  73.1630020 149.5717468  -0.4523808
  72.1249695 151.0301208  -0.4212101  71.3100586 149.2349091   0.4791252
  70.2749786 149.2658997   0.1388854  71.6933365 148.2167816   0.5471603
  71.5331726 149.9631042   1.8324001  72.7146683 149.9458466   2.2601521
  70.5449142 150.6061707   2.3399577  72.3734131 150.7592621  -2.9932508
  72.0199356 151.9317322  -3.1897409  73.4349136 150.2540436  -3.6227744
  73.7958755 149.3635101  -3.3117094  74.0989990 151.0299835  -4.6781139
  74.3317261 152.0325317  -4.3191600  75.3571701 150.2474518  -5.0752892
  75.1686401 149.1792450  -5.1825323  76.1380615 150.7528076  -6.2772961
  76.5221176 151.7346344  -6.0004864  76.9478912 150.0424347  -6.4435425
  75.4824677 150.7531433  -7.1480989  76.4204178 150.1423035  -3.9105096
  75.9336319 149.9366455  -2.9571764  77.1432800 149.3420258  -4.0690160
  76.9795761 151.0726166  -3.8107078  73.2217102 151.1800995  -5.9449263
  73.1253815 152.2494507  -6.5572286  72.5337906 150.0751801  -6.3306413
  72.6646423 149.1966858  -5.8497877  71.5944672 150.0946655  -7.5355077
  72.1406097 150.3020935  -8.4557266  70.9218903 148.7357025  -7.7679820
  71.7108688 147.9871979  -7.6947017  70.1885529 148.4654541  -7.0081911
  70.3842010 148.7679138  -9.0675907  70.3212051 147.8753815  -9.4154663
  70.4188232 151.1217346  -7.4468722  70.1462784 151.8019104  -8.4342480
  69.7940750 151.2694092  -6.2250195  70.1385193 150.7257233  -5.4466443
  68.7240295 152.2178802  -5.9230423  67.9480743 152.0257721  -6.6640449
  68.1354599 151.9837952  -4.5150862  68.0577545 150.9060516  -4.3717756
  68.8799667 152.2959595  -3.7827199  66.7337265 152.5388794  -4.2079706
  66.1154022 152.0806580  -4.9798574  66.3285141 152.2372742  -3.2420819
  66.4785614 154.2828217  -4.3132100  67.2492676 154.8576660  -2.7530973
  68.3293304 154.7119293  -2.7709589  67.0982590 155.9147491  -2.5343158
  66.7307968 154.3601685  -1.9334712  69.1270599 153.6618347  -6.1180186
  68.5503769 154.3412018  -7.0013700  70.1506119 154.1700745  -5.4282579
  70.7278061 153.5769043  -4.8493652  70.5190506 155.5575256  -5.6615868
  69.6002045 156.1307831  -5.5382481  71.4843597 156.0464172  -4.6106353
  71.8150711 157.0547333  -4.8597054  70.8849640 155.9317474  -3.2322140
  70.6175003 154.8879700  -3.0676711  71.5412445 156.3092194  -2.4480515
  69.9600449 156.5083313  -3.2181692  72.7943573 155.1773071  -4.6351671
  73.2133560 154.9721832  -5.6202865  73.4646301 155.7271423  -3.9744620
  72.6463928 154.1784515  -4.2247143  71.0773010 155.8498230  -7.0488133
  70.8824844 156.9855347  -7.4945974  71.6427612 154.8782959  -7.7862382
  71.7447586 153.9676208  -7.3615546  72.0987701 154.9627380  -9.1953754
  72.7183914 155.8566589  -9.2666054  72.8861237 153.7431183  -9.6702642
  73.7350464 153.7549744  -8.9866781  72.1906433 152.9095459  -9.5724640
  73.2857437 153.9249268 -11.1078548  72.4688187 154.1457367 -11.7948561
  74.0495758 154.6875458 -11.2597885  73.9128342 152.5636749 -11.5150270
  73.2285843 151.7874298 -11.1724586  73.8689346 152.4855347 -12.6013365
  75.2958374 152.4470520 -10.9813108  75.7804260 153.3089600 -10.7753906
  75.9797668 151.3797760 -10.7322187  75.4915009 150.1919556 -10.8483391
  74.6367645 150.0828857 -11.3752451  76.0096664 149.4018860 -10.4914083
  77.1510315 151.4463501 -10.1458759  77.4049911 152.3764038  -9.8448706
  77.7363586 150.6271362 -10.0659885  70.9220886 155.2698669 -10.1366644
  70.9371490 156.2774811 -10.8303909  69.8642120 154.4747162 -10.0837536
  69.7750778 153.7947998  -9.3422318  68.7519379 154.6033783 -10.9775743
  69.0453415 154.6344452 -12.0268831  67.9198074 153.3039551 -10.7827196
  67.6983871 153.0807343  -9.7390499  66.9673157 153.4421387 -11.2943573
  68.5565414 152.0381165 -11.3152456  69.5491562 151.9744263 -12.0152988
  67.9124527 150.9082031 -11.0159273  68.3607635 150.0659180 -11.3470917
  67.1087189 150.9063721 -10.4042883  67.8378067 155.7977753 -10.5692110
  67.1785583 156.3114166 -11.4925556  67.8518219 156.2161713  -9.2928915
  68.4016876 155.6636505  -8.6506491  67.2875824 157.4631958  -8.7957411
  66.2679977 157.5054932  -9.1788282  67.2879333 157.3618774  -7.1923127
  66.9386139 156.3890991  -6.8462191  68.2934113 157.4244232  -6.7761316
  66.5100098 158.5397339  -6.5505404  66.6647263 159.4812927  -7.0774446
  65.0228806 158.2217560  -6.5961828  64.8324585 157.4481659  -5.8522677
  64.4650269 159.1171722  -6.3220806  64.7121506 157.9501801  -7.6050406
  66.9528656 158.6478119  -5.1072974  68.0194244 158.8661804  -5.1608100
  66.3351212 159.3720856  -4.5763488  66.8706207 157.7023621  -4.5711327
  68.0802002 158.7065277  -9.2587547  67.4282837 159.7521667  -9.5372372
  69.4157867 158.7109680  -9.4763098  69.9425583 157.9150696  -9.1459208
  70.2183456 159.8419189  -9.9636068  69.8158264 160.6957245  -9.4185410
  71.7364502 159.5644836  -9.5766563  71.8411407 158.5225067  -9.2742357
  72.7490540 159.6915436 -10.7834511  72.7170944 160.6974945 -11.2019615
  73.7841644 159.5183105 -10.4891243  72.5006943 158.9510193 -11.5437336
  72.2818832 160.5190277  -8.4940119  73.3311386 160.2889709  -8.3089848
  72.2557907 161.5148468  -8.9364643  71.6105423 160.3954773  -7.0992818
  71.9180145 159.5040283  -6.5525808  71.9440689 161.2505493  -6.5113039
  70.5277939 160.5139771  -7.1407228  69.8645782 160.1996613 -11.4208126
  69.8434296 161.3761597 -11.7890272  69.4738007 159.1600342 -12.1677246
  69.5074005 158.1997375 -11.8566256  68.8742142 159.4154663 -13.4974556
  69.5139771 160.1318817 -14.0127659  68.9598160 158.1124725 -14.3928232
  68.7587967 157.2684784 -13.7330093  68.2081909 158.0680695 -15.1809778
  70.3655777 158.1680298 -15.0739441  70.3596878 157.3426208 -15.7858334
  70.4296188 159.1106720 -15.6174679  71.5638733 158.0415192 -14.2015381
  72.4882660 158.8296051 -14.1823521  71.7262039 156.9364319 -13.4707718
  72.4102783 156.9167023 -12.7279673  71.0804520 156.1615906 -13.4184570
  67.4824524 160.1319427 -13.5224237  66.9896240 160.4371033 -14.6384449
  66.7993927 160.2180023 -12.3673258  67.2369080 160.0328217 -11.4760427
  65.5596924 160.9711609 -12.2423925  65.5797501 161.7053070 -13.0478315
  64.2493744 160.1479492 -12.5067701  63.3270531 160.7266388 -12.4561348
  64.1726685 159.8145142 -13.5416775  64.1370621 158.8159943 -11.6955128
  65.0065613 158.2153015 -11.9624004  64.0957947 159.1357269 -10.6542759
  62.8206367 158.0650940 -11.9636040  62.7372360 157.3254242 -11.1673422
  62.0117989 158.7859039 -11.8439722  62.6784401 157.3079834 -13.3165016
  62.7032814 157.9885712 -14.1675472  63.4658318 156.5791321 -13.5086031
  61.3577461 156.6049652 -13.3156462  60.5819206 157.2382050 -13.1844721
  61.1523399 156.0229950 -14.1151600  61.2255287 155.9315948 -12.5745649
  65.4584427 161.8698578 -10.9759674  66.0214767 162.9687653 -10.9694786
  64.5631027 161.5653687 -10.0606594  64.1280365 160.6580811 -10.1481037
  64.0105896 162.4956818  -9.0264969  63.7606850 163.4190063  -9.5490999
  62.6938171 161.8825836  -8.4049950  62.3804321 161.0323486  -9.0107908
  62.9397774 161.4554443  -7.4327989  61.4451218 162.7686768  -8.4217453
  61.3370781 163.7144775  -9.2490015  60.4519653 162.5260162  -7.7009373
  64.9530945 162.8909760  -7.8653002  64.5828629 163.8480225  -7.1916366
  66.0713348 162.1811523  -7.6006064  66.3308334 161.5146790  -8.3137569
  67.0515366 162.3373108  -6.5023675  67.6372070 161.4275970  -6.6347499
  68.0127487 163.5517120  -6.6190243  67.4390335 164.4573975  -6.8156900
  68.5805283 163.7102356  -5.7021856  68.9173660 163.3080597  -7.7606673
  69.3885880 162.3475647  -7.5521169  68.4413071 163.1600952  -8.7299814
  69.8957138 164.4349976  -8.0367622  70.4432068 164.7113190  -7.1356525
  70.6528473 164.0457153  -8.7174282  69.3007278 165.6635437  -8.5685625
  69.3520966 165.7040253  -9.5764456  69.0859985 166.7174377  -7.8857589
  69.1592331 166.7900543  -6.5826845  69.3715210 165.9338226  -6.0908446
  68.9866714 167.6450653  -6.0734892  68.7338715 167.8045197  -8.4877815
  68.6867981 167.8611450  -9.4950981  68.4238815 168.5984497  -7.9458404
  66.5473709 162.2136536  -5.0464630  67.3890076 162.2183075  -4.1224475
  65.2288284 162.1868744  -4.8000164  64.5838928 162.2615509  -5.5736957
  64.5740051 162.0509491  -3.4403799  65.3787231 162.3314514  -2.7607837
  63.3912163 162.9457397  -3.2591987  63.0267067 162.6458588  -2.2766979
  63.8139000 164.4457855  -3.2624640  64.4019165 164.6579285  -4.1554008
  62.8787155 164.9978485  -3.3559968  64.2685471 164.6948090  -2.3036160
  62.4696274 162.7758331  -4.3347144  61.6720238 163.0811768  -3.8963153
  64.2795105 160.5921326  -2.9688070  63.6467667 159.7831573  -3.6314073
  64.8482819 160.2660980  -1.7931879  65.3258209 160.9924164  -1.2788600
  64.6003952 158.9965973  -1.1431509  63.9266014 158.3747253  -1.7325486
  65.9485321 158.2221527  -1.0247813  65.7818909 157.1698303  -0.7946625
  66.4163132 158.1824341  -2.0085032  66.9401932 158.7439728  -0.0101722
  68.0500412 159.4054565  -0.4766630  68.1255035 159.7084198  -1.5105494
  69.0854950 159.6928558   0.4400100  69.9818268 160.1730957   0.0761873
  68.9354630 159.4424744   1.8195755  69.5866241 159.8041077   2.6016400
  67.7957153 158.7703400   2.2726245  67.8020782 158.3922119   3.2842488
  66.8276596 158.4221802   1.3375406  66.0190659 157.8121796   1.7123623
  63.8984833 159.2168427   0.1917306  63.8961372 160.3195343   0.7471656
  63.1853256 158.2178192   0.7671636  63.1854362 157.2987823   0.3482716
  62.3527946 158.4472046   1.9291651  62.2650909 159.5155029   2.1271074
  60.9062614 157.9389496   1.7566561  61.0520515 156.9829102   1.2538192
  60.3350792 157.8462524   2.6803806  60.4199371 158.6233673   1.0615577
  63.1440773 157.9203339   3.1819797  63.4314423 156.6969604   3.3189099
  63.3454056 158.7165222   4.1786623  63.1646729 159.7037201   4.0651798
  63.6223984 158.3472900   5.6035237  64.1375427 157.3911133   5.6954255
  64.5193405 159.4033356   6.2389240  64.1284561 160.4129791   6.1127167
  64.8206558 159.1567688   7.7167735  65.3274155 158.1927185   7.7605557
  65.5247040 159.8981628   8.0946045  63.9147186 159.2185364   8.3197279
  65.7725525 159.3897400   5.3904018  65.7498093 160.2784576   4.7597103
  66.6076050 159.6543121   6.0390854  65.8994904 158.4147949   4.9197984
  62.3014946 158.2066193   6.3436670  61.4532967 159.0958252   6.3297791
  62.0771065 157.0920715   6.9916110  62.8265457 156.4153442   7.0134768
  60.9632263 156.9339752   7.9959240  60.1039352 157.5004272   7.6369810
  60.6900673 155.4350281   7.9220591  61.6762238 154.9709930   7.9381251
  60.1244545 155.1847076   8.8195658  60.0432777 154.8772583   6.6039872
  60.6394615 154.9679871   5.6960025  59.8627281 153.4527740   6.8550735
  59.2745628 153.1777649   7.7305908  59.2877388 153.0735016   6.0102978
  60.7942848 152.9106140   6.6926794  58.6722832 155.5346375   6.4249921
  58.7981453 156.6140594   6.3407960  58.2034454 155.0930481   5.5456219
  58.0356102 155.2646027   7.2675138  61.3925285 157.3698273   9.4394007
  62.5714188 157.3179169   9.7673569  60.4435806 157.7055969  10.3398304
  59.4958382 157.7881317  10.0006104  60.6354141 157.8702393  11.7475071
  61.7166519 157.8906403  11.8839331  60.0291328 159.2991180  12.0311823
  58.9444084 159.1921997  12.0372477  60.3482513 159.5977783  13.0297174
  60.4476471 159.9741211  11.2846365  60.0773468 156.6770020  12.5616322
  58.9169579 156.6793518  13.0506744  60.8929024 155.6015320  12.4695034
  61.7236061 155.6259613  11.8955383  60.4355049 154.3483582  12.9781246
  59.6412544 154.0398560  12.2983494  61.6390991 153.3911743  12.8876390
  62.5219650 153.8294678  13.3529797  61.3791924 152.4600677  13.3912411
  62.0431976 153.0804138  11.4403963  61.3070793 152.1150360  10.6725836
  60.4179726 151.7100983  11.1329346  61.6478195 151.7167816   9.3815231
  61.0070305 151.0117645   8.8728542  62.7512245 152.2948456   8.8005161
  63.0961876 151.8911438   7.5504179  62.3522682 151.6000214   7.0180364
  63.5399055 153.1827545   9.5461006  64.4411087 153.5933990   9.1152754
  63.1994476 153.6302032  10.8470402  63.8902092 154.3220825  11.3059044
  59.8892097 154.3857880  14.4364958  60.6353874 154.6961975  15.3726158
  58.5634842 154.1694946  14.5867624  58.0693626 153.8875885  13.7522068
  57.7890320 154.0488892  15.8111382  58.0818977 154.9038239  16.4205914
  56.3540688 154.2732086  15.4195614  55.7523956 154.2012939  16.3256073
  56.2107620 155.2693024  15.0008202  55.8922348 153.2697906  14.4545002
  54.9772987 153.5070496  14.2865648  58.1103325 152.7453766  16.5503025
  57.8170700 152.6259003  17.7477055  58.7037277 151.7907715  15.8126097
  58.6843872 151.8444519  14.8042231  59.5754890 150.6792450  16.2738762
  60.0499039 150.9058990  17.2286835  58.6568108 149.5675354  16.6625175
  57.9649277 149.9676056  17.4037018  58.0516968 149.3058929  15.7944880
  59.3980293 148.3916931  17.3021545  60.4550095 147.9304810  16.8573532
  58.9078102 147.8282166  18.3778934  59.4072647 147.0472412  18.7787971
  58.0821609 148.2173004  18.8103352  60.5847092 150.3073730  15.2130547
  60.1113510 150.0274506  14.1171160  61.8708420 150.2517395  15.5067215
  62.1478233 150.5313721  16.4368763  62.9444504 149.9275208  14.4755259
  62.6468086 150.2325592  13.4723024  64.2252274 150.6863556  14.8773413
  63.9711876 151.7351990  15.0305719  64.8259048 150.1536560  16.2003784
  65.1943893 149.1461945  16.0071335  65.6221390 150.8372040  16.4951363
  64.0858078 150.1173248  16.9997787  65.2923813 150.5837097  13.7385378
  64.8554535 151.1294556  12.9022532  66.1560211 151.1685791  14.0550098
  65.4895554 149.5580902  13.4265814  63.1602478 148.4251404  14.2769499
  63.5417137 148.0794220  13.1858444  62.9057846 147.6046753  15.3295660
  62.5856972 148.0582581  16.1733131  62.9451332 146.1487885  15.3503380
  63.9319611 145.8007507  15.0451565  62.7513771 145.6324005  16.7548027
  63.2967758 146.2348480  17.4812298  61.7248192 145.8546906  17.0461082
  63.2181549 144.1383209  16.9291553  62.5621376 143.6167908  16.2321987
  64.2849579 144.0531616  16.7223129  62.9542923 143.6903534  18.4054527
  63.3787117 144.4285278  19.0859451  61.8673859 143.6280212  18.4588871
  63.5858955 142.3346558  18.6279526  64.4450302 142.2502899  19.1522255
  63.0253868 141.2011871  18.3222790  61.8500061 141.0721741  17.7417088
  61.3400192 141.8264923  17.3046551  61.4291496 140.1610718  17.8551655
  63.6272697 140.0856934  18.6768169  64.5581436 140.1004028  19.0684319
  63.2677231 139.2377014  18.2624035  61.9231567 145.5204315  14.3903017
  62.2147293 144.7469635  13.4733295  60.6802864 145.8733521  14.6438999
  60.4944954 146.5158997  15.4006691  59.4944000 145.5075073  13.8884907
  59.7113800 144.4737549  13.6194506  58.2244072 145.5524445  14.7671814
  58.0778236 146.6304169  14.8348894  57.4081573 145.1178131  14.1901760
  58.2396927 144.9136353  16.1558819  58.8733597 145.5454559  16.7782612
  57.3099403 145.0232697  16.7141266  58.6839447 143.3990479  16.1989231
  58.1986656 142.5935364  15.3408556  59.5549164 142.9719696  16.9862843
  59.3827324 146.2864685  12.5536575  58.5448685 145.9204254  11.7359743
  60.1586990 147.3551483  12.2742262  60.9172325 147.5541077  12.9107323
  60.1123009 148.3119965  11.1531715  60.8331757 149.0736237  11.4504538
  60.7675781 147.7639618   9.8387690  60.1281815 147.0768738   9.2845306
  60.9720421 148.6026001   9.1732159  62.0169563 147.0447388  10.1158495
  62.6151505 147.4809265  10.9158497  61.8509369 145.9746094  10.2397900
  62.8879967 147.0984344   8.8454399  63.6050606 146.2792664   8.7917404
  62.2166672 146.9419708   8.0010777  63.6039619 148.3958130   8.7581120
  63.0931892 149.1402740   9.2108889  64.7665482 148.5651245   8.1099768
  65.5674896 147.5980377   7.7677827  65.2086792 146.7142181   8.0997591
  66.4100342 147.7950745   7.2468247  65.2484283 149.7794495   7.9565315
  64.7520294 150.6274109   8.1903276  66.0360947 149.9129028   7.3385754
  58.7818832 149.0702057  10.9758806  58.4582863 149.4425201   9.8164711
  58.0105858 149.1960754  12.0406351  58.4649353 148.9510193  12.9087477
  56.7999458 149.9700317  11.9906397  56.2222214 149.7882690  11.0843859
  55.8879623 149.7152100  13.2250748  56.3451920 149.9662628  14.1821623
  54.9824295 150.3131409  13.1220713  55.4596291 148.2692871  13.3388119
  54.9714775 147.8782959  12.4461060  56.3111420 147.6791534  13.6775684
  54.5035324 148.1386261  14.4697905  54.9792175 147.8887177  15.6134815
  53.2616539 148.1306000  14.2677307  57.1053085 151.4837341  11.9491901
  58.1051598 151.9747620  12.5200109  56.3035507 152.2454987  11.2055473
  55.5403748 151.7929382  10.7230015  56.3542862 153.7525024  11.1821270
  56.5993576 154.0434113  12.2035990  57.5121574 154.2665558  10.2691545
  57.1471748 154.1422882   9.2496214  57.7349396 155.3078613  10.5018463
  58.4228439 153.6832886  10.4053841  55.0840263 154.4907532  10.7410231
  54.3574448 153.9100647   9.9618559  54.7611198 155.6235352  11.3603935
  55.2805405 155.9961700  12.1423454  53.5963707 156.4022980  10.9239092
  53.0421143 155.7459869  10.2529812  52.6697350 156.6287384  12.1336727
  53.1210175 157.5171661  12.5754147  51.6178093 156.8164978  11.9184980
  52.5841637 155.5462646  13.2105217  52.2067642 154.2091675  12.9671240
  52.2760315 153.5247345  14.1118259  52.0885429 152.4614563  14.1382189
  52.6299896 154.4005737  15.0983114  52.8042221 154.0634460  16.0343113
  52.8940430 155.6432343  14.5462723  53.1641922 156.5581055  15.0526628
  53.9216003 157.7062531  10.1646843  53.0228348 158.2977142   9.5583801
  55.1981812 158.0901489  10.0279703  55.8373337 157.4715118  10.5063810
  55.7155075 159.4049072   9.5979795  55.0287056 159.8527069   8.8797255
  55.8335419 160.3851013  10.8114891  56.3471336 159.9424896  11.6649580
  56.3542709 161.2741089  10.4556694  54.4247284 160.8212433  11.2678194
  53.6956902 161.7410126  10.5052185  54.1747131 162.2531738   9.6838579
  52.4007645 162.0837555  10.8810663  51.9452629 162.9137573  10.3614302
  51.8214836 161.5459747  12.0468979  50.7549706 161.6156769  12.2021093
  52.5701599 160.5792542  12.7604837  52.0986671 160.0986328  13.6049385
  53.8637314 160.2263641  12.4503279  54.3596649 159.5065002  13.0845547
  57.1224556 159.3113251   8.8976107  57.8233414 158.3148499   9.1056232
  57.5844917 160.4134064   8.3104534  56.8972168 161.0774231   7.9836111
  58.9877930 160.5525055   7.9891887  59.5054855 160.6558990   8.9428158
  59.3818130 159.6572266   7.5082250  59.3346291 161.8373718   7.2057023
  58.6618690 162.9046326   7.2503386  60.4543610 161.7593689   6.4664335
  60.8201180 160.8182983   6.4394493  61.0789642 162.8948975   5.7931995
  60.3478470 163.6461029   5.4944224  61.9558830 163.6381226   6.7759681
  62.5899010 162.9036407   7.2726097  62.9604645 164.5587921   6.0456324
  62.4049187 165.3299561   5.5119786  63.5691414 165.0565643   6.8005056
  63.5910873 164.1493835   5.2564588  61.1781502 164.3574066   7.7468038
  60.4929314 163.7858582   8.1009455  61.7946587 162.5808868   4.4714131
  62.5435295 161.6118469   4.3298831  61.4694595 163.3372803   3.3853776
  60.7796631 164.0654602   3.5038679  62.0055885 163.1552582   2.0431044
  62.0388603 162.0774536   1.8838863  61.1433640 163.7194672   0.8952148
  61.6185913 163.5116882  -0.0634736  59.7519875 163.1700745   0.7869654
  59.1722107 163.7060089   1.5384597  59.3865089 163.3469849  -0.2245831
  59.7009468 162.0977173   0.9754746  61.0087547 165.0869446   1.0874461
  61.8200912 165.5007324   0.7839428  63.4596481 163.7436829   1.9214549
  63.6582451 164.9386749   1.8034146  64.5440979 162.9072876   1.9074872
  64.2856140 161.9326477   1.9655299  65.9123230 163.3893890   1.6900098
  66.1169281 164.3637848   2.1336324  66.9405594 162.4379578   2.3446572
  67.0104980 161.4846344   1.8208412  67.9174347 162.9169312   2.2782743
  66.6111832 162.2729950   3.3705242  66.2023544 163.5615845   0.1710875
  66.0789032 162.6370697  -0.6368760  66.7265015 164.7332001  -0.2621925
  66.8179932 165.5002747   0.3884381  67.3551025 164.9554749  -1.5950660
  66.9405823 164.2262573  -2.2911301  66.9312897 166.3380890  -2.1968176
  65.8458939 166.4260254  -2.2444916  67.2162857 167.1146545  -1.4870204
  67.4463272 166.6671448  -3.5821190  68.5147781 166.4647827  -3.6566894
  66.9976578 166.0266571  -4.3414412  67.3354034 168.1241608  -4.0427141
  66.3595886 168.8276062  -3.6224811  68.2081299 168.5950623  -4.8039045
  68.8585434 164.7229156  -1.5146468  69.5725327 165.3707275  -0.7499375
  69.4212494 163.9118042  -2.4324102  68.8296280 163.3376007  -3.0158212
  70.8353729 163.7379150  -2.7020414  71.4311752 163.7214661  -1.7894348
  71.1730118 162.4096375  -3.3976288  70.7081909 162.4534607  -4.3825765
  72.6187897 162.2948303  -3.7055616  73.1956253 162.4582825  -2.7952631
  72.9793243 161.4120026  -4.2334952  72.8686905 163.1266022  -4.3642073
  70.6476746 161.2317352  -2.5408943  71.2260818 161.1795807  -1.6184889
  69.6023254 161.4133301  -2.2911577  70.6998901 159.8388367  -3.1577804
  71.7007828 159.4761963  -3.3919296  70.2758789 159.0948639  -2.4833841
  70.0995407 159.8201447  -4.0673585  71.3245010 164.9845581  -3.4280570
  71.0440903 165.1112976  -4.6397662  72.0822678 165.8564301  -2.7349114
  72.1850739 165.7880096  -1.7324884  72.7049866 167.0224915  -3.3939862
  72.1319733 167.2030945  -4.3034563  72.5482864 168.2955627  -2.6215899
  72.8317490 169.1011200  -3.2989645  71.5020523 168.5384521  -2.4358394
  73.3907547 168.3188934  -1.3426987  74.6499481 168.9789276  -1.3307372
  74.9830399 169.4948730  -2.2191284  75.4199448 169.0324097  -0.1661652
  76.3954239 169.4896393  -0.2422320  74.9351120 168.4388580   0.9983783
  75.7076797 168.4192200   2.1326783  76.5095520 168.9298859   1.9991404
  73.6762390 167.9073944   1.0478522  73.2093353 167.6335602   1.9824197
  72.8680801 167.8511810  -0.1122081  71.8488998 167.4939117  -0.1068683
  74.1246033 166.7936707  -3.9368498  74.5908966 167.6153564  -4.7516832
  74.7997055 165.7460022  -3.4043376  74.3134003 165.1931610  -2.7129786
  76.1769638 165.3302765  -3.8055153  76.3205032 165.7921906  -4.7823186
  77.1946640 165.9609833  -2.8926537  76.8524628 165.8261414  -1.8665876
  78.1949768 165.5619202  -3.0606322  77.2660599 167.0399475  -3.0300050
  76.3781509 163.8204498  -3.8926389  75.8209152 163.0528412  -3.0739560
  77.1902542 163.3826599  -4.8932419  77.6331100 164.0817719  -5.4722185
  77.2717896 161.9484100  -5.3311315  77.0091400 161.2571716  -4.5303216
  76.1440125 161.7754364  -6.3928561  75.1755905 162.0760651  -5.9930038
  76.2905197 162.4851837  -7.2070441  76.0290451 160.4403992  -7.0388203
  75.2300949 159.4031830  -6.4483833  74.6450882 159.6134338  -5.5652280
  75.2135773 158.1815186  -7.0965128  74.4683151 157.4414673  -6.8449140
  75.8533630 157.9961548  -8.3669205  75.6547928 156.9085541  -9.1878662
  75.2459793 156.1719360  -8.7275763  76.6199493 159.0310364  -8.8660803
  77.1582413 158.8907013  -9.7917986  76.7913895 160.2501068  -8.2043905
  77.3152466 161.0806274  -8.6540747  78.6693115 161.6216278  -5.8412008
  79.3322220 162.4671478  -6.4283986  79.1478119 160.3986511  -5.6878986
  78.5484238 159.7260590  -5.2313366  80.3796921 159.7803650  -6.2140040
  80.4736938 160.1651001  -7.2295041  81.6395340 160.1636963  -5.3303189
  81.3804245 161.0850677  -4.8087292  81.8107986 159.4698944  -4.5072746
  83.0162659 160.3184662  -5.9640846  83.3122101 159.3847351  -6.4422584
  83.0371780 161.1930542  -6.6142955  84.1083298 160.4620514  -4.9337807
  83.7206802 160.9852600  -4.0596614  84.3177185 159.4744568  -4.5227656
  85.2104111 161.0652161  -5.5127316  85.0329514 161.9692535  -5.9266176
  86.4489594 160.7009583  -5.3842092  86.9023514 159.6885681  -4.7486138
  86.2716599 158.9607544  -4.4442592  87.8885345 159.4771881  -4.8021164
  87.4007797 161.4224854  -5.8351560  87.2060852 162.3019562  -6.2920327
  88.3282776 161.3235016  -5.4477911  80.3711319 158.1953583  -6.3521137
  80.0113678 157.5387573  -5.3604746  80.6188202 157.5699310  -7.5104980
  80.9459229 158.2117462  -8.2184334  80.7010193 156.1159668  -7.6580095
  80.1307602 155.5200806  -6.9453964  80.1180573 155.6557770  -8.9609747
  80.6284637 156.1431732  -9.7916632  80.2666626 154.5820465  -9.0755186
  78.5464630 155.8616638  -9.1309948  77.9724045 155.4820404  -8.2857485
  78.3622437 156.9292755  -9.2509193  78.1094360 155.1079407 -10.4167175
  77.3788147 154.1246490 -10.1853447  78.4216537 155.4157410 -11.5928087
  82.1676559 155.6557922  -7.5859580  83.0197525 156.2329102  -8.2738190
  82.3971939 154.5673370  -6.8518271  81.6196976 154.0692749  -6.4425321
  83.7277679 153.9437714  -6.7178860  84.4193115 154.1191711  -7.5419621
  84.5201187 154.4363098  -5.4918828  83.8310776 154.3617554  -4.6505966
  85.3266144 153.7360840  -5.2742271  85.0133667 155.8954773  -5.7584019
  85.6445312 155.9252777  -6.6465683  84.2141342 156.6149292  -5.9364939
  85.9040985 156.4307251  -4.6448302  87.1278992 156.1581879  -4.6502481
  85.4345779 157.2817230  -3.8215113  83.5880814 152.3658905  -6.7966766
  82.5165863 151.7912598  -6.5394917  84.6343384 151.6762543  -7.1641641
  85.4911118 152.1466980  -7.4185905  84.6977310 150.1993256  -7.3352933
  83.8505554 149.7072754  -6.8575110  84.5028381 149.9871368  -8.8784065
  83.5841904 150.4410858  -9.2500706  85.2728424 150.4878693  -9.4653130
  84.4851837 148.4884949  -9.2509708  85.3084564 147.8871307  -8.8653831
  83.5707550 148.0620575  -8.8385754  84.5875092 148.2666931 -10.7781563
  85.3593979 147.3253021 -11.1567993  83.9469604 149.0830841 -11.6190529
  84.1125946 149.0024567 -12.6121120  83.4452744 149.8896790 -11.2758141
  86.0385895 149.6950226  -6.7202759  87.1295547 149.8362579  -7.3658161
  85.9619522 149.0192413  -5.5700221  85.0620728 148.8309937  -5.1518464
  87.1662827 148.3678741  -4.9618583  87.9426804 148.1464386  -5.6941581
  87.8912201 149.2458496  -3.8578141  87.1043472 149.5339508  -3.1607299
  88.6457214 148.6870880  -3.3040841  88.4975967 150.5276794  -4.4236469
  89.1946030 150.3495483  -5.2425132  87.7037201 151.1700897  -4.8046937
  89.3324738 151.2897491  -3.4025972  88.7229156 152.1152344  -2.7026758
  90.5674820 151.0700531  -3.3316298  86.9852142 146.9384460  -4.3600507
  85.8518372 146.5804901  -4.1176500  88.0439377 146.1035919  -4.1844907
  88.9544754 146.4074707  -4.4986305  87.9682999 144.6906128  -3.6680305
  88.9417801 144.2265320  -3.8263497  87.8238831 144.7342834  -2.1380861
  86.7764435 144.9626617  -1.9410692  87.9224777 143.7255707  -1.7369775
  88.6501007 145.6436157  -1.3051559  89.9829788 145.2773438  -1.0978249
  90.3805237 144.3983612  -1.5833579  90.8744812 146.1461639  -0.4352047
  91.8985901 145.8164978  -0.3407246  90.3705826 147.3739319   0.0970151
  91.2895126 148.1925659   0.7214563  92.2088394 147.9409180   0.6069310
  89.0292435 147.7754059  -0.1270945  88.6582336 148.6709595   0.3490725
  88.1540070 146.8770294  -0.7926359  87.1272202 147.1691132  -0.9563459
  86.9482040 143.7630157  -4.3778672  86.3575516 142.8660736  -3.8001356
  86.6379547 144.0881042  -5.6578135  87.1709137 144.8631592  -6.0257292
  85.6852036 143.3289490  -6.5567117  85.9848404 143.3342285  -7.6047049
  85.6293411 142.2990417  -6.2041783  84.2444153 143.8019409  -6.4365544
  83.3945465 143.0624237  -6.9990315  83.9206238 144.8881989  -5.7355261
  84.6842346 145.3543091  -5.2667551  82.5176315 145.2640686  -5.4521613
  81.8707199 144.5586090  -5.9736457  82.1909409 145.0909882  -3.9007523
  81.1426163 144.8043213  -3.8174284  82.8396683 143.7918854  -3.4071960
  83.9273376 143.7369537  -3.3617709  82.4721832 143.6218719  -2.3951936
  82.4094238 143.0561371  -4.0866523  82.5257645 146.4178619  -3.1020150
  83.5144272 146.7709808  -3.3951895  81.8765717 147.2346954  -3.4173567
  82.3596115 146.2901611  -1.5376611  83.0848236 145.5984192  -1.1091024
  82.3946152 147.2572632  -1.0360625  81.3402634 145.9684143  -1.3242961
  82.1924744 146.6692352  -5.9961209  83.0236282 147.5806427  -6.0014906
  80.9528122 146.9314270  -6.4482307  80.1916504 146.2675781  -6.4545798
  80.4693756 148.3384552  -6.5303836  81.2774124 148.9467621  -6.9367647
  79.3043365 148.4560852  -7.5593324  78.4725952 147.8894043  -7.1407747
  79.0532150 149.5068207  -7.7042427  79.6623230 147.8531342  -8.9060793
  80.6136246 148.2285156  -9.2831879  79.8088150 146.7734528  -8.8757153
  78.5862274 148.1649017 -10.0238266  77.4021759 148.5122681  -9.8465204
  79.0053101 148.2422943 -11.1937866  80.1535034 148.9931030  -5.1969652
  79.6567459 148.3755798  -4.2787724  80.4448929 150.2731781  -5.1254082
  80.8863525 150.7929993  -5.8704000  80.1840897 151.1117554  -3.9101942
  79.2146683 150.7576599  -3.5595689  81.2896957 150.7741394  -2.9304380
  81.2008057 149.7195435  -2.6696196  82.7200241 150.9259796  -3.4843426
  82.7680893 151.8552094  -4.0520682  83.4543304 150.9664764  -2.6798224
  82.9044266 150.0090637  -4.0441446  81.2771683 151.6076202  -1.8441505
  81.7707062 151.2063904  -1.1250948  79.9511566 152.6173553  -4.2510605
  80.3422165 153.0804749  -5.3268509  79.2892227 153.3753204  -3.3872676
  78.9673615 153.0170288  -2.4994943  78.8315887 154.7196808  -3.7600493
  79.6176453 155.1461945  -4.3831902  77.4740295 154.6782227  -4.5814700
  77.5322800 153.9054565  -5.3479815  76.3071213 154.3672333  -3.6888874
  76.1399002 155.1705322  -2.9713538  75.4332886 154.3109894  -4.3380051
  76.5296555 153.3678589  -3.3149137  77.1780853 155.9112854  -5.3353181
  78.0171204 156.0532990  -6.0164599  76.2386703 155.8262024  -5.8815455
  76.9682999 156.7426453  -4.6623316  78.6994019 155.6066284  -2.5550570
  78.1694412 155.1341248  -1.5318067  79.2440796 156.8402710  -2.6013756
  79.6180344 157.0451660  -3.5169494  79.3196411 157.8121948  -1.4688499
  78.9415894 157.3246918  -0.5702285  80.7672958 158.2100677  -1.3591262
  81.1403885 158.8244629  -2.1785233  80.8014450 158.8615265  -0.4858974
  81.7378998 157.0318451  -1.0283656  81.6598663 156.7094727   0.0099407
  81.4989700 156.1155548  -1.5681902  83.2036285 157.4552612  -1.2725012
  83.3439178 157.7121124  -2.3224764  83.4301453 158.3921204  -0.7635021
  84.2020111 156.3265991  -0.8264675  83.9780884 156.1197357   0.2200347
  84.0885239 155.4864349  -1.5115526  85.6018677 156.8145905  -0.9109626
  85.8093185 157.5164337  -0.2149171  86.2139969 156.0360107  -0.7129633
  85.8793793 157.1342316  -1.8279762  78.3755569 159.0143433  -1.7793827
  78.4662933 159.5673523  -2.9071019  77.4525604 159.3405609  -0.8819013
  77.2898254 158.7761993  -0.0602483  76.4420853 160.3610840  -1.1541232
  76.7829437 161.0087891  -1.9618323  75.1519775 159.7000122  -1.6848032
  74.5116577 160.5094147  -2.0354393  75.4472809 158.7571259  -2.9012911
  76.0010071 157.8986359  -2.5211883  74.5455933 158.4538727  -3.4333541
  76.0783844 159.3222046  -3.5872149  74.3531494 158.9213257  -0.6019551
  73.8783188 159.6017914   0.1048813  73.4548874 158.4858551  -1.0396792
  75.0933380 158.2843170  -0.1177719  76.1311646 161.2539978   0.0577016
  76.2673035 160.8391571   1.1784123  75.7062302 162.4829865  -0.1798196
  75.6154785 162.8016510  -1.1339271  75.2868347 163.3864441   0.8127013
  75.2151718 162.9243011   1.7972741  76.4138260 164.4845276   0.9591457
  76.7069550 164.7572784  -0.0546498  75.9820786 165.3650513   1.4349153
  77.6578827 164.0740051   1.7727379  77.3424606 164.0816650   2.8160763
  77.8671951 163.0300446   1.5394495  78.7923584 165.0937195   1.5591153
  79.5704727 164.8693390   2.2886906  79.1180801 164.8643036   0.5445363
  78.4445190 166.5717773   1.6593416  77.6927032 166.7864838   0.8998832
  77.9513702 166.6538544   2.6279325  79.6588745 167.4962463   1.5442712
  80.0521545 167.4067383   0.6183004  79.3399963 168.4378662   1.7224284
  80.3231964 167.2675781   2.2698646  73.9314575 163.9772797   0.3932149
  73.7702026 164.3693237  -0.7899966  72.9527130 163.9990692   1.3023181
  73.2476807 163.6360321   2.1974728  71.5746384 164.2527161   1.1694249
  71.3746948 164.6774902   0.1857150  70.9470901 162.8474274   1.2200266
  70.8738861 162.3746338   2.1994245  69.9290085 162.9844360   0.8555536
  71.4839630 162.2171478   0.5110722  71.0103455 165.1997833   2.2354932
  71.6940460 165.4915009   3.2051134  69.7811813 165.6869812   2.0632451
  69.2821732 165.5426636   1.1970668  69.2329865 166.6627350   2.9639819
  69.5085678 166.4954071   4.0052094  69.8995590 167.9998169   2.6086259
  70.9449921 167.6931458   2.6422400  69.4379730 168.5155487   1.2562758
  68.4203186 168.9058838   1.2674946  70.0987244 169.2657623   0.8218954
  69.5339508 167.6831055   0.5591825  69.6698074 169.0600433   3.6952846
  68.6146393 169.3231354   3.6211152  69.9283371 168.6696777   4.6796031
  70.3955841 170.4367981   3.4996710  69.9857559 170.8948669   2.5994906
  70.0403900 171.0586853   4.3213882  71.4695358 170.2793732   3.3999438
  67.7078705 166.7129669   2.9901915  67.0987244 166.5232391   1.9679925
  67.1602097 166.8856659   4.1848330  67.7192612 167.0742645   5.0045815
  65.6713791 166.7323608   4.2336745  65.3842010 165.8913422   3.6025660
  65.3905106 166.4783173   5.2557669  64.8708267 167.9330444   3.6972229
  64.7885437 169.0135040   4.3155727  64.1636505 167.6754303   2.6123049
  64.2459259 166.7817993   2.1488781  63.2974815 168.7207336   1.9441603
  63.7812843 169.6887970   2.0740821  63.2250519 168.3462372   0.5020541
  63.0536766 167.2699280   0.5189818  62.4339714 168.7865753  -0.1049070
  64.5477829 168.5686493  -0.3449938  65.4017944 168.1526489   0.1895373
  64.5037079 167.9648590  -1.2514157  64.7725220 170.0627747  -0.7449856
  65.3168564 169.9298706  -1.6799384  63.8400154 170.5973511  -0.9259393
  65.5094223 170.7793121   0.3199369  64.8839951 171.1028748   1.0439869
  66.7716599 171.3042755   0.3291597  67.6501083 170.9802246  -0.6087375
  67.4916992 170.2144775  -1.2479904  68.5751724 171.3807220  -0.6717199
  67.1274796 172.0775299   1.3060539  66.5720673 172.3238220   2.1128776
  68.0655365 172.4514923   1.2887018  61.9685402 168.9375153   2.6583314
  61.5412140 170.0485382   3.0018797  61.1981354 167.8372040   2.8572595
  61.5558929 166.9284821   2.5997221  59.7337570 167.8329468   3.1966701
  59.5939789 168.8282623   3.6184707  58.8710175 167.5648346   1.9165603
  58.9779816 166.4959717   1.7317100  57.8621941 167.8896179   2.1713197
  59.2987823 168.3994446   0.7112401  58.8912659 169.3973083   0.8734650
  60.3741379 168.5747375   0.6798787  58.8260651 167.8300629  -0.5776153
  58.1238747 168.4353180  -1.3425548  59.2441750 166.6237335  -0.9378952
  58.9003105 166.2289124  -1.8015966  59.9915237 166.1789551  -0.4243249
  59.5007095 166.7832031   4.2634287  60.0728073 165.6656036   4.1375284
  58.5823288 166.9440613   5.2921696  58.0989685 167.8299561   5.3327947
  58.0346489 165.9292603   6.1779084  58.8551636 165.2352753   6.3602333
  57.5945511 166.5270538   7.5017910  56.7121506 167.1438446   7.3313837
  57.2454605 165.7231140   8.1498127  58.6536713 167.3130646   8.2154980
  59.5266533 166.6814117   8.3798580  58.9572678 168.2067413   7.6702857
  58.1401520 167.7374878   9.5338326  57.5338860 166.9841766  10.0368824
  58.9809647 167.9916992  10.1792097  57.2319908 168.9402771   9.4198761
  57.5810318 169.7151794   8.8741674  55.9305038 169.0641632   9.8173742
  55.3127289 168.0409698  10.3310871  55.7688179 167.2403412  10.7446852
  54.3158455 168.1340027  10.4640284  55.2183228 170.1595917   9.6972523
  55.7299080 170.9896851   9.4339838  54.4049835 170.2391357  10.2907629
  56.9018745 165.1255798   5.5093241  56.3525162 165.6223145   4.4648590
  56.4753609 164.0129089   6.0665965  56.9724808 163.6578979   6.8709230
  55.3125229 163.2671509   5.5409026  54.4812469 163.9153595   5.2636027
  55.6994629 162.5030975   4.2354522  54.8236046 162.0746765   3.7481875
  56.0280724 163.2246704   3.4874907  56.8434143 161.4016876   4.3843203
  56.6074295 160.2527466   5.1786647  55.6772232 160.1452179   5.7167673
  57.5718842 159.2882233   5.2953796  57.3400192 158.4636536   5.9532056
  58.7793236 159.4134369   4.6081610  59.5005455 158.6111755   4.6592412
  59.0229683 160.5789490   3.7969828  59.8380966 160.5604095   3.0887320
  58.0355415 161.5726776   3.7228775  58.2180099 162.5122833   3.2226107
  54.6340370 162.3099823   6.5469942  55.3703842 161.8126373   7.4263024
  53.3058243 162.0546112   6.4278131  52.8255577 162.5812531   5.7122102
  52.5613174 160.8868103   6.9518380  52.9120407 160.6401062   7.9539509
  51.1066742 161.3267670   6.9610505  51.0051308 162.1040802   7.7183976
  50.7908020 161.7889709   6.0258017  50.0751534 160.2070465   7.2383800
  50.3027649 159.3668823   6.5823164  50.2886620 159.9773254   8.2822876
  48.5377541 160.3900146   7.0898128  48.4187126 160.5972595   6.0263362
  48.1376152 159.4305420   7.4175067  47.8687897 161.4653625   7.9880381
  48.1515732 161.3213043   9.0308151  48.3139610 162.4093170   7.6736059
  46.3862381 161.5062408   7.7614045  45.8279877 160.7344055   8.0971584
  46.0108185 162.3609009   8.1470671  46.2549438 161.6265869   6.7672324
  52.7399139 159.7210846   6.0048771  52.7919998 159.9237213   4.7708817
  52.8857346 158.4897461   6.5333204  52.7570686 158.4162903   7.5323944
  52.9032288 157.1508331   5.8495579  53.3369598 157.2301331   4.8527136
  53.8577576 156.0996399   6.5668745  53.4939766 155.9895172   7.5884595
  53.9330025 154.7049408   5.7949076  54.0680847 154.8820648   4.7279062
  54.8148651 154.1615448   6.1342201  53.0134354 154.1452942   5.9660563
  55.2822952 156.7056122   6.6482673  55.2924728 157.7240906   7.0364571
  55.8346710 156.1398621   7.3985386  55.8032150 156.8438568   5.7008333
  51.4983902 156.6214905   5.7285585  50.6851692 156.7923889   6.6443067
  51.2391586 155.9198761   4.6338315  51.9499283 155.8385162   3.9208882
  50.0100403 155.2682953   4.2682309  49.2984047 155.3579102   5.0889878
  49.4009666 155.9176178   3.0418952  50.0874519 155.7379150   2.2145233
  48.4949150 155.3375092   2.8668308  49.0190887 157.4261017   3.1029255
  49.8849335 158.0311432   3.3718905  48.5500832 157.8628082   1.7138553
  47.6521225 157.3679352   1.3438811  48.3817940 158.9385834   1.7636145
  49.3553619 157.6908569   0.9996692  47.8947868 157.6609650   4.0772285
  48.1304398 157.3865204   5.1054568  47.5935974 158.7079468   4.0423651
  47.0571327 157.0257568   3.7892401  50.1113129 153.7731628   4.0483532
  49.1426315 153.0629425   4.3471723  51.2472305 153.3451385   3.5526013
  52.0255013 153.9708710   3.4014151  51.5442085 151.9725037   3.1787760
  51.4401436 151.1979980   3.9386492  50.6302567 151.5500488   2.0263393
  49.5931549 151.5981750   2.3583202  50.8278999 152.2434998   1.2089258
  50.7910690 150.1414490   1.4987973  51.8160400 149.9571381   1.1769813
  50.4326019 149.4360657   2.2484863  49.8251343 149.9202271   0.3120363
  48.6019211 150.0287781   0.4626916  50.3201523 149.7037659  -0.8055843
  53.0113678 151.8726196   2.7603791  53.5955696 152.8770447   2.3906369
  53.5517426 150.6250000   2.8660448  53.0471764 149.7857666   3.1134405
  54.9446640 150.3392792   2.5256691  55.2155457 151.1364288   1.8333588
  55.8758430 150.4146423   3.7203040  55.6546745 149.5675354   4.3696032
  57.2944908 150.2853088   3.1391139  57.5793457 150.9930725   2.3606400
  57.9892769 150.4214630   3.9678664  57.4147148 149.3015289   2.6854217
  55.8605957 151.6942291   4.6080251  56.6181221 152.4236908   4.3214469
  54.8791962 152.1679230   4.5840468  56.1832619 151.3734894   6.0864587
  57.1825104 150.9468842   6.1736636  56.1587296 152.2557526   6.7260776
  55.4845619 150.6662903   6.5334291  54.9341164 149.0040131   1.7678781
  54.5679321 147.9431763   2.3625350  55.4852715 148.8892365   0.5439836
  55.7144165 149.7660828   0.0981844  55.7357407 147.6402130  -0.2513771
  55.2699089 146.7776337   0.2251355  55.0204048 147.7260132  -1.5861537
  54.0244598 148.1396637  -1.4277838  55.5472107 148.5238953  -2.1095529
  54.8754616 146.4635315  -2.4646573  55.8648720 146.0084991  -2.4187653
  54.1330757 145.8267670  -1.9835221  54.5209122 146.9658203  -3.8878524
  53.5303688 147.4174652  -3.8334820  55.2532425 147.7265167  -4.1583138
  54.5603981 145.7944641  -4.8416486  54.4604607 144.8498840  -4.4983249
  54.6926422 145.8736877  -6.1589155  54.9838600 147.0226898  -6.6910272
  54.7967682 147.8665924  -6.1686130  55.1349411 147.0829315  -7.6878452
  54.5877190 144.8192291  -6.8970265  54.4463692 143.8692627  -6.5844483
  54.9150848 144.9070892  -7.8484521  57.2050705 147.2915497  -0.2412181
  58.0135765 148.1890259  -0.2444412  57.5293007 146.0326691  -0.2959539
  56.8174706 145.3193054  -0.3632483  58.8691940 145.5922394  -0.5267403
  59.5974045 146.4024963  -0.4908131  59.3017883 144.5545807   0.5580910
  58.6120911 143.7106628   0.5722245  60.7673035 144.0827484   0.2992482
  61.4097900 144.7794952  -0.2391369  61.2025642 143.9566650   1.2905858
  60.7342987 143.1720581  -0.2988125  59.2605247 145.2130432   1.8166078
  58.3557091 145.3895111   2.0845001  59.0088806 144.9768524  -1.8797392
  58.2142143 144.0473328  -2.2409873  59.9035606 145.5151367  -2.7327676
  60.5011940 146.2603607  -2.4047577  60.2870598 144.8678436  -3.9814737
  59.4331474 144.3635712  -4.4338350  60.7183876 145.8769684  -5.0571389
  61.4175758 146.5896606  -4.6197467  61.1584282 145.2949829  -5.8669243
  59.6153870 146.6447144  -5.8921728  58.8616524 145.9249115  -6.2113180
  59.1477318 147.2425690  -5.1098828  60.0905952 147.5693207  -7.0068054
  60.3019600 148.7718658  -6.8376551  60.1994019 147.0088959  -8.2219524
  60.5821877 147.6824036  -8.8699913  60.1962433 146.0075836  -8.3541422
  61.2574577 143.7232666  -3.7069113  62.0217781 143.7980652  -2.7344871
  61.2586403 142.7335815  -4.6218996  60.7752991 142.8868103  -5.4954000
  61.8423729 141.3891296  -4.3707232  61.3906441 140.9609222  -3.4759126
  61.5356216 140.3851318  -5.4593015  62.0221367 140.6199646  -6.4060092
  61.9136963 139.4320679  -5.0893650  60.1654549 140.1166382  -5.7088785
  60.0085258 140.6243134  -6.5084047  63.3754044 141.5043945  -4.2510900
  64.0107269 140.6011963  -3.6709154  64.0667572 142.5119781  -4.7837176
  63.5004768 143.2493439  -5.1783214  65.4869919 142.8176575  -4.5088921
  66.1291504 141.9407196  -4.5909619  66.0290298 143.7151184  -5.5882773
  67.1024170 143.9046478  -5.5933042  65.8945923 143.2297974  -6.5549703
  65.3770065 145.0532684  -5.6118946  64.5705261 145.3955536  -4.7118816
  65.6204910 145.7682800  -6.6246777  65.8201065 143.3698578  -3.0921266
  67.0163498 143.5843964  -2.8150799  64.8168106 143.4775543  -2.2415931
  63.9270744 143.3547668  -2.7035394  64.6990814 143.7140503  -0.8356882
  63.8021202 143.1874847  -0.5096468  65.5686035 143.2919312  -0.3318674
  64.4978638 145.1736908  -0.3911752  64.3927917 145.4190674   0.7898654
  64.4381027 146.1401215  -1.3254702  64.6607208 145.8886871  -2.2780020
  64.1552734 147.5417786  -1.0331537  64.7179413 147.7984619  -0.1355935
  64.7798691 148.5447693  -2.0443659  64.6495056 149.5877380  -1.7556740
  66.3305435 148.3705597  -2.1795652  66.5503464 147.3149567  -2.3392296
  66.7803879 148.8160095  -3.0668764  66.9607010 148.6739044  -1.3435140
  64.0947723 148.3485413  -3.4994001  64.8879318 148.2658081  -4.2424707
  63.4127083 147.5013885  -3.4272823  63.3035698 149.6419830  -3.8346682
  63.9233856 150.5358887  -3.9043989  62.8397369 149.4137573  -4.7942886
  62.4954491 149.8083954  -3.1223867  62.7099495 147.8772125  -0.7042102
  61.8646507 147.2616119  -1.2700499  62.4619293 148.8532715   0.1665116
  63.2274284 149.3513336   0.5978404  61.1078186 149.1871643   0.4763560
  60.3933563 148.4675751   0.0765579  60.8860016 149.3222656   1.9363843
  61.4493065 150.1737671   2.3181212  59.8167763 149.3344727   2.1478417
  61.3566971 148.0448761   2.6880033  61.1023636 147.2033386   2.0436165
  62.4337463 148.1697388   2.7997065  60.7187958 147.9570007   4.1357021
  60.9662857 148.7770386   5.0211258  59.8453712 146.9762115   4.3387842
  59.4608345 146.8488007   5.2639871  59.7793503 146.1909943   3.7069685
  60.7297173 150.4010468  -0.3074296  61.5241089 151.2427063  -0.7630621
  59.3998795 150.5231781  -0.5216796  58.8097839 149.7338104  -0.3007781
  58.7799644 151.5949249  -1.2586899  59.4213943 152.4479370  -1.4801738
  58.3008957 150.9742126  -2.5801194  57.8318748 149.9938812  -2.4959557
  57.5483513 151.6650391  -2.9602952  59.4248314 150.9495697  -3.6666005
  60.4305992 150.9136353  -3.2479770  59.3707047 149.9904327  -4.1815925
  59.3907509 152.0482788  -4.7263665  59.2214432 153.2455597  -4.5046911
  59.5988045 151.7198334  -5.9845757  59.5549164 152.4684601  -6.6611280
  59.7934608 150.7630157  -6.2428470  57.5289917 152.0930176  -0.5629133
  56.4657707 151.4502411  -0.5183213  57.6282349 153.3017426   0.0126810
  58.5259323 153.7489166  -0.1067888  56.5431938 153.9233704   0.8284518
  55.9226646 153.1623230   1.3015873  57.2675705 154.6941071   1.9269564
  57.8136711 155.5351562   1.4997532  56.5474281 154.9912109   2.6893353
  58.0560150 154.1400909   2.4363954  55.6480827 154.9129944   0.0071294
  56.0668831 155.8387756  -0.6710947  54.3071022 154.7754059   0.1846054
  54.0168381 154.1712494   0.9401422  53.2803993 155.7503204  -0.2569175
  53.6495514 156.3750916  -1.0702333  52.0072975 155.0816040  -0.6643810
  51.8026543 154.2842407   0.0500633  51.2148438 155.8280029  -0.6094496
  52.0655327 154.4972992  -2.1105881  52.5644531 155.1336823  -2.8414822
  52.5593414 153.5270691  -2.0567608  50.6477547 154.4689789  -2.7120576
  49.9864693 153.9318848  -2.0321014  50.3180618 155.5058441  -2.7776153
  50.5499496 153.9401245  -4.1680498  49.5936852 154.2152557  -4.6129770
  51.2730789 154.4995880  -4.7615004  50.7435570 152.4578094  -4.2509985
  49.8512955 152.0351105  -4.0381775  51.0198097 152.1570282  -5.1747532
  51.3962784 152.0970612  -3.5698814  53.1244507 156.6601715   0.9714304
  52.9326897 156.2251892   2.1228275  53.2211876 157.9814758   0.6794986
  53.3991890 158.2621918  -0.2742368  53.2145500 159.0192566   1.7320079
  52.8256073 158.5166931   2.6175916  54.7316322 159.4045868   2.0344973
  54.6216621 160.0617218   2.8971562  55.6901855 158.2949219   2.4515107
  55.6650963 157.5322266   1.6732006  56.7034302 158.6948395   2.4128115
  55.3849106 157.8948517   3.4183834  55.4081497 160.2036438   0.9250556
  54.8219757 161.0724640   0.6256472  56.3091202 160.6273804   1.3686786
  55.5956917 159.5642853   0.0624182  52.3635750 160.2093353   1.3100845
  52.0401611 160.3809052   0.1655086  51.9642563 161.0665894   2.2729979
  52.2178993 160.8543091   3.2273045  51.4175224 162.4028931   1.9763613
  51.2937622 162.5335541   0.9013177  50.0233459 162.4626007   2.6662996
  49.4206963 161.5897217   2.4153063  50.1499367 162.4442444   3.7487676
  49.3687363 163.8059082   2.3976417  49.9973793 164.6237793   2.7497637
  49.1123314 163.9071350   1.3430698  48.0464706 164.0408020   3.1887612
  47.1856613 163.1726532   3.3105485  47.8092766 165.2073517   3.7587211
  46.9534683 165.3627014   4.2721109  48.5270195 165.9163971   3.8057692
  52.4594536 163.4488373   2.5594330  52.7381897 163.4031525   3.7751563
  52.9434662 164.3709106   1.7669499  52.5462646 164.3916931   0.8385649
  53.8308067 165.4290466   2.1632955  54.6743164 165.0262451   2.7239623
  54.5051613 166.0525513   0.9313377  53.7443466 166.0629730   0.1508551
  54.8374634 167.5996857   1.1136386  55.5149422 167.7560883   1.9530784
  55.3822784 167.9724731   0.2462835  53.9421005 168.2204590   1.1463112
  55.7449112 165.3543091   0.4403775  56.0468750 165.8733978  -0.4692781
  56.5243988 165.6269531   1.1518345  55.7081947 163.8458710   0.1840579
  54.7445564 163.5301514  -0.2157221  56.4231949 163.4688721  -0.5472078
  55.8775826 163.3310394   1.1297647  53.0951157 166.4510803   3.0558219
  52.1158562 167.1037292   2.6915441  53.6207047 166.5764008   4.2650304
  54.5390511 166.1968536   4.4458237  53.1071739 167.4274445   5.3249359
  52.0356903 167.4220734   5.1249309  53.3551865 166.7721405   6.7048564
  54.3978882 166.4647675   6.6249022  53.2993279 167.4896851   7.5234528
  52.4682579 165.6177216   7.0961094  52.3639488 164.9093323   6.2742867
  52.9602013 164.9767914   8.3995247  52.8489799 165.6426697   9.2552910
  52.3470459 164.1076508   8.6376905  53.9709435 164.5949249   8.2557268
  51.0486336 166.0635834   7.4051085  50.4559860 166.3847351   6.5485291
  50.5150414 165.2621918   7.9161444  51.0130157 166.9135590   8.0865440
  53.6959763 168.8247986   5.3308029  54.9106522 169.0516205   5.3850160
  52.7615280 169.8128510   5.2833614  51.3628616 169.6708374   5.0533299
  50.9431915 169.0335693   5.8317022  51.2016449 169.3507996   4.0239167
  50.7495346 171.0305481   5.1744485  50.5974388 171.3105621   6.2168288
  49.8124390 171.1059113   4.6228347  51.8177910 171.9015961   4.5017838
  51.5842247 172.9417114   4.7291474  51.7950478 171.7757111   3.4193168
  53.1028557 171.2155914   5.0702558  53.9479141 171.4102783   4.4098945
  53.4049797 171.9019928   6.4043093  52.8375397 171.5897522   7.4655337
  54.2134857 172.9371185   6.2890410  54.6142387 173.2136536   5.4041553
  54.4524002 173.8908844   7.3533745  54.6580925 173.4089966   8.3091869
  55.7696419 174.6864166   6.9960914  55.8000984 175.0373993   5.9645963
  55.8633423 175.5396576   7.6678839  57.0255814 173.7364960   7.1834292
  56.8827629 172.7772369   6.6859117  57.9251328 174.1706085   6.7470284
  57.2155952 173.5298920   8.6983871  57.6498680 174.5217285   9.3509092
  57.0830078 172.4088898   9.2441759  53.2547150 174.8892365   7.4783263
  52.7743874 175.5694733   6.5731030  52.6429291 174.8874817   8.7037296
  53.0026436 174.3768768   9.4974461  51.5950165 175.8616486   9.0022783
  50.9832573 175.9516144   8.1046371  50.6988029 175.3409729  10.1688156
  51.3053856 175.0383301  11.0223770  50.0413055 176.1774139  10.4058313
  49.9029388 174.0613098   9.6853313  49.5531502 174.2062225   8.6632032
  50.6430969 173.2611542   9.6895494  48.7943649 173.5830536  10.6126595
  48.4234810 172.6866150  10.1157351  49.1462402 173.3836365  11.6248417
  47.7577515 174.6051636  10.6184511  47.9494705 175.4530334  10.1042023
  46.4764252 174.5441895  10.9862728  46.0827980 173.6399841  11.7795744
  46.7714539 172.9913025  12.1332245  45.1325569 173.4711151  12.0772820
  45.6471138 175.5036621  10.6815367  45.9258537 176.2269135  10.0340061
  44.6558342 175.4165955  10.8544350  52.2386284 177.2008514   9.2569637
  52.5991707 177.4264984  10.3952618  52.2007256 178.1451111   8.3385534
  51.9235153 177.8949585   7.4001060  52.6432915 179.5697937   8.5376062
  53.5157814 179.6407928   9.1870832  52.9940376 180.2355042   7.1817284
  52.1757507 180.2356415   6.4616547  53.2249908 181.7588043   7.3723364
  53.8119965 181.9727325   8.2655134  53.6997833 182.1330414   6.4653549
  52.2303429 182.1826019   7.5107670  54.2914543 179.6086884   6.6044745
  54.0178719 178.6944275   6.0778127  54.7138214 180.2892609   5.8651986
  55.0759010 179.5193329   7.3559847  51.4240913 180.3004761   9.1485271
  50.3668289 180.3864288   8.5064688  51.5058479 180.6682892  10.4187117
  52.3876572 180.4778748  10.8728638  50.5140495 181.5108948  11.1203661
  49.5559273 181.3984222  10.6129742  50.2161179 181.0228729  12.5451708
  51.1066055 181.1867981  13.1520195  49.4287148 181.6127014  13.0144234
  49.8151970 179.5517731  12.6344328  50.5071449 178.9468689  12.0484257
  49.7499847 179.0193329  14.0965652  49.1420670 179.6785126  14.7162666
  49.4507675 177.9729767  14.0356941  50.7561989 178.9648895  14.5120955
  48.4509163 179.3011475  12.0013218  48.3713799 179.6064453  10.9579773
  48.3460655 178.2224426  11.8851700  47.6511383 179.8387146  12.5107174
  50.8706932 182.9589539  11.0338039  52.0562134 183.3527679  11.3525906
  49.8878174 183.7903900  10.6149035  48.5532799 183.5114136  10.0618877
  47.9935989 182.8509674  10.7242050  48.5671082 182.9989624   9.0999546
  47.8133965 184.8233795   9.8182325  47.1644402 185.1053162  10.6473694
  47.1499748 184.7175293   8.9598761  48.9890099 185.7699585   9.6957912
  48.6365891 186.7212830  10.0943737  49.3301697 185.7540894   8.6606789
  50.1313896 185.2268066  10.5398607  51.0656548 185.4254761  10.0147076
  50.2297668 185.7853851  11.9660692  49.9110069 185.0411835  12.9237366
  50.5736237 187.0803070  12.1220236  50.8545036 187.5793610  11.2900724
  50.7729912 187.8063049  13.4023314  51.6274033 187.2973633  13.8484936
  51.1195564 189.2924805  13.0727472  51.9907684 189.3620758  12.4214087
  50.3544464 189.8067169  12.4911404  51.3640747 190.0966949  14.2147961
  50.7676086 190.8471985  14.1641140  49.5557137 187.7022552  14.2891960
  48.4563942 187.8744049  13.7632694  49.6581306 187.4907990  15.6059055
  50.5600090 187.3551025  16.0398540  48.4919319 187.1557465  16.4475365
  48.0189705 186.3282013  15.9187975  48.9096756 186.6297913  17.8276367
  48.1874084 186.7284088  18.6380100  49.3987465 185.1584625  17.8912601
  50.2004318 185.0385284  17.1625500  49.7211876 185.0016022  18.9205971
  48.4829788 184.6441040  17.5998688  49.9890518 187.4947510  18.1900024
  50.2780113 187.3860016  19.0989990  47.5912399 188.3397522  16.6405315
  46.3710136 188.1333771  16.7796421  48.0990753 189.5367279  16.4846077
  49.1029854 189.6103210  16.4018536  47.2719803 190.7787323  16.6330757
  46.4501915 190.6386871  17.3353233  48.1257210 191.8838348  17.2063980
  48.9234085 192.0906830  16.4929504  47.4921150 192.7640381  17.3154469
  48.7297516 191.5770874  18.5063629  49.0927315 190.5499268  18.4705334
  49.5751648 192.2446594  18.6728725  47.5948410 191.6178894  19.9281216
  47.7110023 189.9216461  20.4789104  48.6499214 189.7576752  21.0077324
  46.8494759 189.6599274  21.0932178  47.6518822 189.2176056  19.6488953
  46.6345177 191.1439209  15.3178129  45.9249382 192.1458893  15.2738132
  46.9336510 190.4479218  14.1656532  47.4394493 189.5738525  14.1828585
  46.5403099 191.0138397  12.7969608  46.9215698 192.0314789  12.7122469
  47.3079872 190.2437592  11.7210865  47.0734940 190.7023163  10.7604437
  48.3742332 190.4260864  11.8551598  47.0159798 188.8447418  11.5337954
  47.8239250 188.3583221  11.7132692  45.0365219 191.0356445  12.4526930
  44.5685272 191.9624634  11.7350779  44.2743950 190.1004333  13.0598125
  44.7154350 189.3898010  13.6260204  42.7982712 189.9903870  12.9541197
  42.5328102 190.2341919  11.9254351  42.3240471 188.5546875  13.2218218
  42.4104118 188.5566711  14.3083954  41.2761955 188.4370728  12.9456387
  42.9370384 187.7517700  12.8123703  42.0633507 191.0895538  13.7686872
  40.8842087 191.2148132  13.8401423  42.8679886 191.9109650  14.5099850
  43.8673820 191.8189545  14.3966475  42.4153214 192.7970428  15.6295233
  41.3316841 192.6968384  15.5679731  42.8260078 192.1647949  16.9827633
  43.2806778 191.2071686  16.7291470  43.8125305 192.9546661  17.7923050
  43.4278831 193.9423218  18.0466442  44.0409355 192.4239960  18.7165985
  44.7602386 193.0604095  17.2643166  41.6328545 191.7775726  17.7983608
  41.1217117 190.9336853  17.3350124  41.9767494 191.5182037  18.7996445
  40.9183922 192.5981750  17.8635845  42.7833061 194.3105011  15.5381908
  41.9525719 195.1535187  15.8914585  43.9459648 194.6501923  15.0123959
  44.5552292 193.8673706  14.8224068  44.5553589 195.9897614  14.8536806
  44.3083725 196.6119995  15.7138720  46.1565056 195.8400574  14.9454374
  46.5924644 196.8142853  15.1666756  46.3965454 195.1826782  15.7810965
  46.8089371 195.1324615  13.6656876  46.3713264 194.1364899  13.5975418
  46.5212250 195.5702209  12.7098188  48.3436470 195.0956726  13.7287169
  48.9347458 195.5131073  14.6624470  49.0172844 194.5752563  12.7021360
  50.0247040 194.6159210  12.7617254  48.5519409 194.1745453  11.9002752
  44.1553154 196.8272705  13.6872206  44.9115181 197.6119080  13.1884317
  42.8825188 196.6491089  13.2184429  42.3601532 195.9153595  13.6754227
  42.1319618 197.3659363  12.1266079  42.7977943 197.4246216  11.2656069
  40.8410873 196.5987244  11.8114166  40.3186913 196.2526398  12.7032843
  40.1621246 197.2844391  11.3045588  41.1346397 195.3735352  10.9412146
  41.8778763 195.6865692  10.2079220  41.7128601 194.1879272  11.6696596
  41.3554611 194.1348114  12.6980286  41.4203606 193.2195892  11.2636051
  42.7981071 194.2686462  11.7314730  39.8384666 194.9176178  10.2443247
  39.4113083 195.7337036   9.6615458  39.9445114 194.0410614   9.6051884
  39.1087494 194.6691895  11.0149746  41.8223572 198.8099213  12.5002546
  40.6697044 199.2819366  12.6256313  42.8644791 199.5572357  12.7607899
  43.7674103 199.1380310  12.5902615  42.8538399 200.9374695  13.2356062
  42.0059547 201.4913635  12.8326149  42.6819115 200.9658966  14.7876768
  42.8899345 201.9812622  15.1251116  41.6370277 200.8262482  15.0648403
  43.5178223 199.9472198  15.6320715  43.1430397 198.9281311  15.5368176
  44.5672836 199.9787903  15.3392620  43.5883942 200.0659332  17.1434689
  44.2903824 199.3859406  17.7935276  42.8709221 201.0264587  17.6915779
  42.6944389 200.9884796  18.6853142  42.3647385 201.7132263  17.1509876
  44.1790619 201.6369476  12.8402100  45.1876221 200.9498901  12.6794434
  44.2254066 202.9403992  12.7494755  43.3676109 203.4588318  12.8740711
  45.3721657 203.6800690  12.2804775  45.4941940 203.4769135  11.2165527
  45.0202217 205.1959534  12.2425680  45.8750458 205.7919312  11.9229069
  44.2062340 205.3797913  11.5413351  44.6152954 205.5640259  13.6206017
  44.1643486 206.4080505  13.5440502  46.7080765 203.4835358  13.0733681
  47.8002510 203.8407135  12.5682983  46.6606712 202.8558350  14.2511225
  45.7585907 202.6366730  14.6490211  47.8647995 202.4059448  15.0234385
  48.5726471 203.2338257  15.0640841  47.4052238 202.0463257  16.4794292
  46.4907532 201.4553070  16.4290600  48.1025124 201.3476715  16.9417839
  47.2495308 203.1989899  17.4533596  48.2195816 203.6665802  17.6220818
  46.1279678 204.2298889  17.1865082  45.1764145 203.7164917  17.0484257
  46.0508804 204.9731598  17.9800472  46.3764954 204.7490692  16.2608795
  46.7819862 202.4559784  18.7502384  47.4443665 201.6033630  18.8998756
  46.8151627 203.0806885  19.6428318  45.7652855 202.1156158  18.5538273
  48.6608772 201.2423553  14.3461924  49.8141060 200.9518127  14.7708616
  48.1993294 200.5835419  13.2480373  47.2823372 200.8544922  12.9227600
  48.7769432 199.2709656  12.8088493  48.7635078 198.6025085  13.6697140
  47.8419113 198.6399078  11.7135334  48.2337265 197.6577454  11.4490452
  46.8447838 198.4656067  12.1178360  47.6649132 199.5038147  10.5981178
  46.7652664 199.8363800  10.5576324  50.2287064 199.3168488  12.2456779
  51.0815125 198.4670258  12.4044056  50.5408745 200.5020752  11.6759462
  49.7531357 201.1097107  11.5017385  51.7969437 200.9330444  11.0045118
  52.1779175 200.0748291  10.4509363  51.4709854 202.0003510   9.9765253
  52.3428726 202.1123810   9.3320360  50.7270660 201.5091553   9.3492975
  51.0611191 203.3381653  10.5333853  50.2431145 203.1545105  11.2299795
  51.8873291 203.7300568  11.1265965  50.6702652 204.4347687   9.5525150
  51.4751816 204.9715576   9.0504475  50.0502052 203.9098816   8.8257904
  49.8091888 205.4679565  10.1404829  48.8522720 205.4874573   9.8179398
  50.1562195 206.5040131  10.9007034  51.3788147 206.6845703  11.2326727
  52.1501923 206.1882477  10.8098869  51.4879150 207.2971649  12.0282335
  49.3251228 207.4025879  11.3677387  48.3301353 207.2816162  11.2433958
  49.7082100 208.1726074  11.8972845  52.9518700 201.3255463  11.9481192
  53.9353371 201.9303741  11.4929800  52.8734207 200.9676208  13.2377186
  52.1697922 200.2943115  13.5054369  54.0277596 201.1481476  14.1686764
  54.5158043 202.0872650  13.9079485  53.4855270 201.3428497  15.6267061
  53.0299301 200.4009857  15.9323854  54.3727455 201.4972839  16.2407913
  52.4996834 202.5589905  15.8359528  53.0361214 203.4810181  15.6119242
  51.6991692 202.5475006  15.0962572  51.9819527 202.7481384  17.2758713
  51.2261467 203.5312653  17.2162685  51.5629463 201.8044434  17.6251221
  52.9933853 203.2022858  18.2956963  53.4335213 204.0707397  18.0270424
  52.9497871 202.9213715  19.5784016  52.0711708 202.1118622  20.1439266
  51.4811630 201.5732727  19.5259323  51.9555550 202.0052032  21.1416035
  53.7102737 203.5949860  20.4334335  54.4727402 204.1579895  20.0844936
  53.5651321 203.4658203  21.4245701  55.1576958 200.0729675  14.0046415
  55.3409653 199.2118225  14.8561916  55.8192863 200.1335602  12.8212309
  55.6031036 200.9043732  12.2054129  56.7614555 199.1702728  12.2449512
  56.3112679 198.1814880  12.3327923  56.8043747 199.4277496  10.7038212
  55.8926849 199.8446960  10.2759380  57.6446152 200.0846405  10.4789143
  57.0020638 198.1553650   9.8919964  58.0697746 197.7462616   9.1031017
  57.7921715 196.5353699   8.6843462  58.3294792 195.9832916   7.9274373
  56.5832558 196.1746216   9.1008472  56.1443672 195.2814178   8.9286327
  56.0738678 197.1628876   9.8815966  55.0800858 197.1164246  10.3018808
  58.0787544 199.0270996  12.9362020  58.5251846 199.8298340  13.7629585
  58.8204117 197.9601135  12.5874977  58.5059128 197.3960876  11.8109322
  59.9965553 197.4235687  13.2899265  59.8064575 197.6175232  14.3455544
  60.0885811 195.8822784  13.1460304  61.0745087 195.6049805  13.5190630
  58.9637947 195.1452789  13.9144821  58.0570793 195.1486359  13.3095303
  59.3228683 194.1209869  14.0144053  58.8375816 195.5628204  14.9133930
  60.0255318 195.4709473  11.6729307  59.0622787 195.7467346  11.2437620
  60.7956123 196.0568542  11.1711502  60.4430923 193.9790802  11.4279814
  59.6482620 193.3217926  11.7805815  60.6329193 193.9850311  10.3546524
  61.3790703 193.7717133  11.9466810  61.3434868 198.1538544  13.0394440
  61.4393806 198.9728241  12.1112709  62.4777489 197.9648285  13.7132339
  63.1631088 198.6582794  13.4495840  63.0424080 196.8550110  14.5536890
  64.0201263 197.2098846  14.8796129  62.2470436 196.7369995  15.8339291
  61.3007927 196.2221069  15.6678371  62.8535614 196.0406494  16.4129944
  62.0140076 198.0394135  16.6197338  63.0226746 198.9617615  16.8645344
  64.0452194 198.7463226  16.5918026  62.8407898 200.1465759  17.5885906
  63.5891762 200.8697052  17.8773823  61.5360680 200.3761902  18.1239128
  61.3546371 201.2412262  18.7445412  60.4660416 199.4981842  17.8889713
  59.4705276 199.6999969  18.2558765  60.6896782 198.2888336  17.1471958
  59.8154144 197.6800537  16.9698982  63.5185509 195.5585022  13.7352972
  63.8208809 195.6419830  12.5388260  63.7737465 194.4461060  14.4848909
  62.8042259 193.7303925  15.2697144  61.7952728 193.9383240  14.9135160
  62.9096298 193.8995972  16.3413277  63.0429955 192.2280884  15.0071602
  62.6245880 191.9920959  14.0287180  62.6478386 191.6342316  15.8313627
  64.5513458 192.1023712  14.8976641  64.8041458 191.3578949  14.1427240
  65.0372925 191.7737274  15.8163252  64.9438400 193.5088196  14.3976555
  65.6803360 193.8874207  15.1064110  65.5542984 193.4184265  13.0162897
  64.8195343 192.9817963  12.0839005  66.8196716 193.6914673  12.8200397
  67.0763931 193.6233978  11.8455801  67.8363571 194.2456665  13.7957153
  68.7538986 194.4679718  13.2509279  68.2419205 193.1571960  14.8087244
  68.9984360 193.5611725  15.4814625  67.3809891 192.8643646  15.4096851
  68.6884689 191.9853363  14.1925621  69.0975723 191.4027405  14.8366222
  67.4596252 195.5601196  14.5597363  66.3556976 196.0834503  14.4745054
  68.4467392 196.1079712  15.3158321  69.3410645 195.6401520  15.3536348
  68.1124725 197.0855408  16.3669624  67.3316422 197.7319336  15.9662466
  67.4147339 196.3724060  17.5927849  67.0464935 195.4749908  17.0956268
  68.1919022 196.0741425  18.2964554  66.3284302 197.0894318  18.1564255
  66.3371964 197.0798645  19.1163368  69.1836395 198.0903625  16.8916740
  69.1204681 198.4823608  18.0457497  70.3030396 198.4114990  16.2057896
  70.7680283 199.2001495  16.6323204  70.9334335 197.9869232  14.9619093
  71.8553314 198.5651245  14.8995657  70.0081711 198.3989258  13.7953005
  68.9994278 198.0122070  13.9401760  69.9066849 199.4818268  13.8668690
  70.4200821 198.0398254  12.3095989  70.1341019 196.9996338  12.1536112
  69.7505188 198.6464233  11.6998205  71.9652939 198.1977234  11.9425964
  72.5902710 197.8925018  12.7818480  72.2496567 197.5160980  11.1409521
  72.3988419 199.6088257  11.4702101  71.9742203 200.3117676  12.1869154
  73.4836197 199.7023926  11.4191322  71.8958817 199.8582306  10.0783005
  70.8870773 199.8973846  10.0485172  72.2567749 200.7238770   9.7034531
  72.2150955 199.1405334   9.4433994  71.5379105 196.5899353  14.9791117
  71.3557816 195.8720703  13.9905739  72.2108154 196.1884155  16.0655327
  72.0090485 196.3833771  17.4769516  70.9765930 196.1889801  17.7673817
  72.3034973 197.4313202  17.5338154  72.9322891 195.3795624  18.2587509
  72.2940750 194.8489990  18.9653511  73.7481842 196.0084839  18.6149406
  73.3921661 194.4749603  17.1939545  74.3918915 194.0765991  17.3670559
  72.6783600 193.6555328  17.1096382  73.3094330 195.2522278  15.8723230
  73.1269455 194.5165863  15.0889788  74.6515656 195.9777374  15.6214685
  75.6391907 195.2772064  15.3909731  74.7134094 197.2636414  15.9422522
  73.8625107 197.7656708  16.1521034  75.9816513 197.9656830  16.0565033
  76.6029053 197.8030396  15.1757698  75.6551132 199.4461975  15.9220886
  75.1956329 199.5951538  14.9449530  74.9749374 199.8355255  16.6796474
  76.8304749 200.4335938  16.0242577  77.2909775 200.2595367  16.9967442
  77.5264206 200.2215271  15.2125978  76.3794098 201.8940430  16.0039730
  75.7232971 202.0409241  16.8619003  77.2773590 202.5028687  16.1094799
  75.7386475 202.2121582  14.6369534  76.3056107 201.6568909  13.8897305
  74.7333679 201.8019867  14.7333117  75.8340454 203.6940155  14.3567181
  76.8189240 203.9169464  14.3769197  75.4385452 204.0052490  13.4810400
  75.3781967 204.2117615  15.0944462  76.8273544 197.6696320  17.3096085
  78.0563965 197.7545624  17.1823902  76.2126923 197.3159790  18.4092007
  75.2043228 197.2736359  18.3705044  76.9057465 197.1952515  19.7443485
  77.7983398 197.8208466  19.7415142  76.0453720 197.8504639  20.8680859
  76.7184906 198.0842133  21.6929359  75.4713516 199.1394958  20.4132633
  74.5248108 199.0392609  19.8821106  75.0332413 199.6277924  21.2837448
  76.1819000 199.7946930  19.9093399  74.9911499 196.9492950  21.5415859
  75.3996964 196.1056519  22.0978699  74.3470459 197.5103455  22.2186775
  74.3916550 196.4991913  20.7503147  77.4510422 195.7731628  20.1992073
  78.1235809 195.6742554  21.2756729  77.2738266 194.7264099  19.3478241
  76.7686005 194.8856049  18.4878807  77.5667343 193.3457947  19.6486435
  77.4416122 192.8307953  18.6961651  79.0867157 193.0205688  19.9587479
  79.3043213 193.2403412  21.0039482  79.3469467 191.9639435  19.8961926
  80.1111832 193.7258453  19.1516800  80.9508438 194.6352844  19.6398945
  80.9772720 194.9485779  20.6731129  81.7988205 195.0569611  18.6378574
  82.5822906 195.6862030  18.7394485  81.5190048 194.3971252  17.4645386
  82.1623383 194.4883270  16.1896877  83.0218811 195.1147308  16.0020542
  81.6924667 193.7609863  15.1135588  82.1782684 193.8375397  14.1520348
  80.6556854 192.8796234  15.4246998  80.4419937 192.1945190  14.6176147
  80.0292816 192.7218323  16.6729851  79.2174988 192.0285187  16.8365173
  80.4240036 193.5389862  17.7829800  76.5943069 192.6617737  20.6877251
  75.3806686 192.8543091  20.6437130  77.1045227 191.8778534  21.6437721
  78.0665207 192.1091156  21.8466549  76.3472900 191.1421509  22.6609650
  77.1239548 190.6419373  23.2394657  75.3808060 190.0473633  22.1695843
  74.8483658 189.7873688  23.0844669  74.6292267 190.4935455  21.5183125
  76.0810547 188.8488922  21.4805546  75.3258286 188.1325836  21.1570911
  76.5451660 189.2560425  20.5822582  77.0703354 188.0990295  22.3798084
  77.2321091 188.2751312  23.5778542  77.8976669 187.2774200  21.7743893
  78.6948776 186.9011841  22.2673492  77.7611160 186.9890747  20.8161011
  75.7555695 192.0422516  23.7744007  75.1577759 193.0563507  23.5713272
  76.0630569 191.5907898  24.9988651  76.5100403 190.6908569  25.1010151
  76.3677216 192.3475494  26.2369709  76.2307587 191.5780792  26.9967499
  77.8763351 192.7486877  26.3231659  78.1394958 193.3509521  27.1927261
  78.3077087 191.7485504  26.2813988  78.4278259 193.5874176  25.1560421
  78.6182251 194.7944031  25.3544636  78.6935654 193.0941620  24.0052471
  75.4403076 193.6135864  26.4304447  75.4613113 194.6941376  25.8019276
  74.5496368 193.4591064  27.4249840  74.5110626 192.5416107  27.8454857
  73.7866669 194.5626068  28.0559616  73.0108261 194.0457458  28.6207905
  74.7409821 195.2582550  29.1491871  74.1319275 195.9341888  29.7494068
  75.1117477 194.4571686  29.7886429  76.0144501 196.0233459  28.7550526
  76.6734543 195.8863525  29.6124020  76.5003128 195.6192169  27.8669491
  75.7252121 197.5453339  28.4409294  74.7398453 197.8853607  28.7595730
  76.4749985 198.0310974  29.0653915  75.9835815 197.9763489  27.0200348
  75.3481903 198.6640778  26.6413422  77.0762100 197.8548431  26.2860298
  78.1428223 197.1926575  26.6832352  78.4045410 197.2734833  27.6553822
  78.7375031 196.7340546  26.0078526  77.0855637 198.3361511  25.0547352
  77.8424149 198.0824585  24.4359379  76.2592545 198.6747131  24.5828381
  72.9783783 195.5425415  27.1298790  72.4841614 195.0817871  26.1180038
  72.5612030 196.7335052  27.6791058  72.6757355 196.8202515  28.6788368
  71.6191330 197.7157288  27.1474342  71.4856796 198.4455872  27.9459248
  72.3143692 198.3858948  25.9974327  72.6713333 197.8020477  25.1490211
  71.6940536 199.1316528  25.5002708  73.2116928 198.9173584  26.3143940
  70.1197052 197.4217987  26.9024544  69.2296219 198.1039581  27.2597332
  69.8493271 196.3897247  26.1303120  70.6019440 195.7879486  25.8277855
  68.5608521 196.2548676  25.3689690  68.1552582 197.2421265  25.1477890
  68.8319855 195.6365204  23.9815407  67.8739777 195.4309082  23.5039921
  69.3043671 196.3359985  23.2918415  69.6161270 194.3304596  23.8818207
  69.1951599 193.1251373  24.5196190  68.3198624 193.1434021  25.1520061
  69.9081650 191.9226379  24.2693176  69.6278992 191.0171051  24.7868729
  70.9955673 191.8973999  23.3399105  71.5660095 190.9967346  23.1672955
  71.4668350 193.1445770  22.7789631  72.3295746 193.1608429  22.1294899
  70.7197876 194.3428345  23.0083694  71.0820923 195.2143707  22.4834328
  67.3772659 195.5377960  26.0305595  66.3087616 195.3302002  25.4747772
  67.5306473 195.1770935  27.3467369  68.4568558 195.3916931  27.6875858
  66.5325623 194.4376373  28.1924877  66.1676788 193.5967560  27.6026783
  66.9988098 194.0655670  29.6188335  66.7006149 194.7969055  30.3700352
  66.5123138 193.1051788  29.7893486  68.5298615 193.9414978  29.7552471
  68.7141113 193.0861359  30.4052582  68.9450302 193.6799622  28.7819366
  69.2158890 195.1497955  30.3849583  70.2744370 194.9117889  30.4894161
  69.0563354 196.0142517  29.7404709  68.7878418 195.4337921  31.7514076
  68.2336731 194.7523651  32.2500420  68.9458542 196.5883179  32.4008446
  69.4067383 197.6787415  31.8900166  69.6760864 197.7168427  30.9173412
  69.2802277 198.5752563  32.3376160  68.4585876 196.7766113  33.5813599
  68.1044922 196.0455627  34.1816101  68.1448364 197.6744385  33.9212799
  65.2690353 195.3763275  28.2621422  64.1342697 194.8797150  28.1772728
  65.4742279 196.7377930  28.2915592  66.3950119 197.1278687  28.4333115
  64.3542175 197.6111145  28.2256184  63.5634270 197.3397980  28.9250050
  64.7922745 199.0276337  28.5743942  65.5634232 199.4209747  27.9120293
  63.9153633 199.6745911  28.5985374  65.3345108 199.1281586  30.0025368
  64.7210770 198.5043030  30.6526165  66.2946320 198.6311493  30.1412315
  65.3325500 200.5435181  30.5326900  65.5729141 201.5333557  29.8376274
  65.1534500 200.7094269  31.8209305  65.1490860 201.6383362  32.2174225
  65.1323318 199.9756012  32.5145798  63.7432365 197.5894012  26.8172569
  62.5578079 197.4203491  26.7256947  64.4742508 197.6190948  25.6544132
  65.3800049 198.0633545  25.6061592  63.8437538 197.5099487  24.3652725
  63.1631775 198.3499451  24.2262478  64.8758087 197.5887756  23.2324123
  65.4183197 198.5307617  23.3126354  65.5964432 196.7745972  23.3090630
  64.1640778 197.5240021  21.9072571  63.4953537 198.5100403  21.2975311
  63.3782921 199.5220184  21.6561604  62.9875908 198.0151367  20.1292362
  62.5955811 198.6107178  19.4138851  63.0815697 196.6408844  20.0771217
  62.5232468 195.6907196  19.1918831  61.8602142 195.9924927  18.3945618
  62.9173393 194.3343964  19.2031040  62.5089073 193.6163940  18.5073566
  63.9003143 193.9446106  20.1797924  64.2119904 192.9141388  20.2655792
  64.4354630 194.9527283  21.0759258  65.2749786 194.6478577  21.6831093
  63.9421234 196.2847900  21.1219292  62.9532356 196.2518311  24.1922894
  61.8711777 196.3998413  23.6869907  63.3710594 195.0785065  24.7275944
  64.2926178 195.0171356  25.1363220  62.5645065 193.8350220  24.6044178
  62.3053589 193.8372345  23.5456734  63.3580513 192.6156769  24.9667263
  64.0962906 192.9059448  25.7142849  62.7327194 191.7846832  25.2931004
  64.1355972 192.0626831  23.8456440  65.4323044 192.3033295  23.6093178
  66.1187973 192.9543762  24.1301441  65.7679214 191.5639343  22.5042305
  66.7150803 191.5646057  22.1535206  64.7210236 190.8923950  21.9162712
  64.4789810 190.0946350  20.7498512  65.1632767 189.9082947  19.9353485
  63.2158012 189.5363159  20.5339661  63.0265045 188.9185638  19.6685352
  62.1712456 189.7587433  21.4113274  61.2085075 189.2965546  21.2503414
  62.3456459 190.6247559  22.5344830  61.5245018 190.8237152  23.2071915
  63.6151428 191.2630615  22.7492943  61.2297974 193.9591827  25.3805408
  60.2754593 193.4202576  24.8001804  61.1018143 194.7859192  26.4445457
  61.9652100 195.2446442  26.6979542  59.7972679 195.2669067  26.9652786
  59.1853104 194.3720703  27.0788212  59.9144478 195.8329926  28.4013844
  60.5530014 196.7156677  28.3663731  58.9344025 196.1447449  28.7625408
  60.5187912 194.8473053  29.3453979  59.8445930 193.9915924  29.3817043
  61.4843140 194.4869385  28.9904385  60.6505775 195.4974670  30.7269516
  61.1909904 196.5885315  30.8932896  60.2397270 194.8238068  31.8192577
  60.5361137 195.2814789  32.6694260  59.8683853 193.8855591  31.7756596
  59.0610847 196.2796173  26.1130772  57.8437157 196.1818848  25.9468689
  59.7648621 197.2859192  25.5426617  60.7275314 197.3604279  25.8390045
  59.2610893 198.3334961  24.6756668  58.4963684 198.8661652  25.2409706
  60.3722878 199.2478180  24.3895092  61.0095634 199.4364624  25.2534561
  61.0092087 198.8529510  23.5979824  59.8331871 200.6219940  24.0487537
  59.0628204 200.5509186  23.2809105  59.3554382 201.0610962  24.9245644
  60.9044647 201.5836182  23.4205055  61.8111839 201.7899017  23.9891949
  61.2807617 201.0348511  22.5571747  60.3765945 203.0072479  22.9957123
  61.2281609 203.5050507  22.5318928  59.5113373 202.9411163  22.3361187
  60.0606651 203.8830566  24.1643696  60.9140701 203.9817047  24.6954784
  59.8837509 204.8582306  23.9698887  59.2792053 203.5419922  24.7057552
  58.5962296 197.7636261  23.4591885  57.5090218 198.1581268  23.0537128
  59.3038940 196.8379211  22.7799149  60.1986542 196.5437469  23.1445503
  58.7140160 196.1571350  21.6238422  58.5274277 196.8683777  20.8192158
  59.8160248 195.2920990  21.0892372  60.6836243 195.8971100  20.8259258
  60.2062225 194.6047974  21.8398762  59.5099258 194.3166046  19.9507027
  59.1251411 194.7792969  18.6387577  59.0081558 195.8323364  18.4294567
  58.8221931 193.8842926  17.5881672  58.5026169 194.2368011  16.6186237
  59.1221161 192.4802399  17.8105602  58.8645401 191.5057983  16.8558407
  58.0864677 191.5775146  16.2981129  59.4596672 192.0242767  19.0712109
  59.4921646 190.9515686  19.1922741  59.5506859 192.8830872  20.1314869
  59.8404579 192.5394592  21.1135025  57.4774170 195.2578888  21.9166527
  56.4186058 195.3910217  21.2845745  57.5987740 194.5439453  23.0251160
  58.4661636 194.5931854  23.5401936  56.4734497 193.8100739  23.5869427
  56.0794067 193.0512543  22.9109001  57.0397644 193.0980225  24.8897018
  57.8066254 192.3910828  24.5730705  57.5209198 193.7705078  25.5998878
  55.9991837 192.4083557  25.7885971  55.3979797 193.1815491  26.2669697
  55.2904587 191.7056427  25.3504257  56.6561928 191.6582642  26.9270744
  57.6394730 190.9437103  26.7900143  55.9911728 191.5845184  28.1029186
  56.4642220 191.2384796  28.9254665  55.2240410 192.2407379  28.1344624
  55.2889977 194.8040009  23.9301567  54.1720276 194.5711823  23.3553276
  55.5569420 195.9653625  24.5779057  56.4850883 196.1934662  24.9044228
  54.5056763 196.9888458  24.7793522  53.7415771 196.3836060  25.2671394
  54.9923325 197.9906006  25.7879543  55.6365700 197.5235443  26.5328732
  55.6465645 198.6541748  25.2224960  53.8509865 198.7625732  26.5351753
  53.2703857 199.3576050  25.8302307  53.2322273 198.0433502  27.0717964
  54.4753609 199.6125793  27.6198387  54.9057732 199.0243530  28.4302940
  55.1943626 200.3151703  27.1985168  53.3500748 200.4162903  28.2363663
  52.9297028 201.1464996  27.5448608  52.4967308 199.8365936  28.5883007
  53.8493843 201.2278900  29.4080868  54.6568489 201.7906952  29.1814804
  53.1165771 201.8593140  29.6985893  54.1018333 200.6629028  30.2063122
  53.9143333 197.6970367  23.5204334  52.6747284 197.8052063  23.3924084
  54.6814842 197.9955750  22.4819927  55.6736221 197.9182587  22.6545887
  54.2929726 198.5221405  21.1266079  53.5700493 199.3235474  21.2790508
  55.5810204 199.1516418  20.4846764  55.8031616 199.9169617  21.2283421
  56.3363609 198.3965759  20.2668438  55.2924538 199.8433380  19.1149845
  54.8287926 199.1373138  18.4260330  54.6883965 200.7251892  19.3283691
  56.6019974 200.3464355  18.4828663  57.3899612 199.5958862  18.5452290
  56.4286308 200.5505676  17.4262829  57.0495415 201.5792694  19.1583824
  56.8247757 201.5877380  20.1430225  57.6204643 202.6407318  18.6244755
  57.8118935 202.7651367  17.3386250  57.5505753 202.0224762  16.7059593
  58.2734261 203.5713043  16.9421482  57.9107895 203.7193756  19.3496780
  57.7055016 203.7783356  20.3368359  58.3722076 204.5149841  18.9322872
  53.5639000 197.5130157  20.2172871  52.5343819 197.8699799  19.6086292
  54.0998077 196.2592163  20.0512562  55.0262146 196.1183777  20.4281311
  53.5321159 195.1734772  19.1787319  53.1735573 195.5980225  18.2410240
  54.6353149 194.1828003  18.8174381  55.3571701 194.7619476  18.2415752
  55.0315933 193.7376404  19.7300663  54.0128975 193.0195160  18.0467129
  53.4350815 192.3153687  18.6453915  53.3764458 193.4332428  17.2644978
  55.1152992 192.2121582  17.2823257  55.5341721 192.8754730  16.5255756
  55.9626999 191.9472046  17.9146385  54.5040474 191.0237732  16.6290092
  55.2471275 190.2584991  16.4047489  53.7595024 190.5721130  17.2845707
  53.7703400 191.4033813  15.3929873  54.3970833 191.7150269  14.6648636
  53.2626953 190.6592102  14.9362459  53.0921783 192.1132050  15.6303635
  52.3382416 194.5623016  19.7287655  51.4133873 194.2162933  19.0082588
  52.2194252 194.3612976  21.0678520  52.9625053 194.7591095  21.6243382
  51.0482750 193.6318665  21.6685448  50.3678665 193.4203491  20.8436813
  51.3793907 192.2126923  22.3470917  51.8504333 192.3494263  23.3205032
  50.4306259 191.7035522  22.5165195  52.2497635 191.3930969  21.4630203
  51.7336197 190.4956207  20.4636841  50.6611366 190.4702454  20.3390427
  52.5914726 189.6446686  19.7995186  52.1814957 188.9181671  19.1135731
  53.9555511 189.7013702  19.9994965  54.5891113 189.0671539  19.3971844
  54.4933586 190.5260315  21.0109749  55.5503616 190.7419586  21.0612259
  53.6403008 191.3972168  21.6751099  54.0925140 192.1150360  22.3434334
  50.3013344 194.5793915  22.5926476  49.3630600 194.1300659  23.2911644
  50.4885368 195.9070435  22.4608631  51.2575302 196.2170868  21.8841248
  49.5208588 196.9143372  22.9100780  49.6736374 197.0902405  23.9748859
  49.7501984 198.2456818  22.1075325  50.8015327 198.5206604  22.0228062
  49.4819832 198.0635986  21.0668545  49.0816689 199.4974823  22.4776764
  49.5784416 200.2718964  23.5074539  48.9824486 201.4666138  23.3095436
  49.2605286 202.3769684  23.8197536  48.0419807 201.4142456  22.3589478
  47.4753876 202.1949463  22.0596199  48.1077385 200.1544647  21.7769222
  47.7019577 199.8350830  20.8283749  48.0536995 196.6707611  22.5709248
  47.1637878 197.0826569  23.3063011  47.7077026 196.0268097  21.4375305
  48.5189056 195.6646881  20.9569855  46.3524551 195.7821960  20.9886570
  45.7645950 196.6652985  21.2389793  46.2952156 195.6426086  19.4346294
  46.8376083 194.7368011  19.1636486  45.2561684 195.5272827  19.1261158
  47.0008621 197.1175079  18.6458588  46.0028076 198.0021362  18.5670376
  45.6397743 194.6237640  21.6910210  44.4816666 194.3377838  21.4112930
  46.2829323 193.9852753  22.6296864  47.2135086 194.3315887  22.8146114
  45.8079529 192.9326782  23.5496044  45.4560966 192.0893555  22.9553947
  46.9881096 192.4354401  24.4090500  47.1951218 193.1818390  25.1759510
  46.7559891 191.5044403  24.9262199  47.7858887 192.0939941  23.7494621
  44.6121368 193.4871063  24.3542957  43.7649803 192.6904602  24.7514172
  44.5500259 194.7415161  24.6021194  45.0434570 195.4178314  24.0371265
  43.3753891 195.3672333  25.3123283  43.3416786 195.0288544  26.3479328
  43.7245026 196.8784332  25.3399696  42.9525414 197.4140625  25.8924885
  44.5629387 197.0841675  26.0054073  43.9329453 197.3868713  24.0554409
  43.9819984 198.3286591  24.2349758  42.0469933 195.1530762  24.6770115
  41.0584450 195.1927490  25.4368763  41.9370537 194.9396210  23.3565979
  42.8185883 194.7753296  22.8918381  40.7239380 194.6556549  22.6143761
  39.8772507 195.1921234  23.0426636  40.9268227 195.0554352  21.1306973
  41.5803185 194.3367157  20.6362228  40.0102196 194.9798279  20.5457001
  41.4932137 196.5033569  20.8323307  42.4941978 196.6336060  21.2436333
  41.6078911 196.6262512  19.3255615  40.6005478 196.5915680  18.9106426
  42.0509758 197.6157684  19.2131424  42.1964836 195.8234406  18.8815517
  40.5725327 197.6333466  21.2789173  40.2569618 197.5032196  22.3140945
  41.1365356 198.5580444  21.1567364  39.6558914 197.6035461  20.6898670
  40.3015060 193.1503448  22.6431026  39.2601738 192.7417145  22.0081596
  41.0269432 192.2115326  23.2613907  41.9124832 192.5238647  23.6333637
  40.5344696 190.9149628  23.6352329  39.4672699 190.8189545  23.4353256
  41.3287430 189.8297424  22.8027878  40.9882545 188.8656158  23.1804276
  41.1440315 189.7352448  21.3253345  41.5139503 190.6875458  20.9453316
  41.6847649 188.8539734  20.9802742  40.1103020 189.6044312  21.0053387
  42.6849442 189.9639435  23.0825958  43.1176071 189.2469940  22.6131401
  40.6687469 190.6840057  25.1603451  40.8148689 191.6059113  25.9805489
  40.4736061 189.3887634  25.5563831  40.2279205 188.6772156  24.8829899
  40.3253136 189.0319366  26.9733887  39.8191452 189.8006287  27.5573349
  39.2870903 187.8989258  27.0541534  39.1459541 187.7570496  28.1256256
  38.3203239 188.1248779  26.6042500  39.8548851 186.7590179  26.4387321
  39.1852188 186.0717316  26.4105110  41.5834236 188.6652985  27.7409706
  41.5004959 188.4503784  28.9425735  42.7305145 188.6845398  27.0634613
  42.6493721 188.9061432  26.0814152  44.1084747 188.4229126  27.6123085
  44.0150948 188.1364899  28.6598492  44.7641144 187.1326752  26.9374046
  45.2517776 187.3252411  25.9817886  45.6506882 186.8132935  27.4852066
  43.9035912 185.9155121  26.7343616  43.3902321 185.4674225  25.5778084
  43.5180702 185.9796906  24.6356621  42.7129860 184.2451782  25.7380219
  42.2774239 183.7289886  24.9870605  42.8327293 183.8548584  27.0504189
  42.4961586 182.6576996  27.6615105  41.8860130 181.9107056  27.1755810
  42.9692421 182.4571381  28.9659042  42.6989517 181.4695282  29.3093796
  43.7049446 183.4382935  29.7011013  43.9095764 183.2751770  30.7489185
  43.8923912 184.6811218  29.1016331  44.3670692 185.5104675  29.6048946
  43.5749168 184.8756714  27.7448101  45.1446304 189.5831299  27.5748386
  45.1461029 190.4703827  26.7113895  46.0378609 189.5694122  28.6101971
  46.1824493 188.5847473  29.6795139  46.3576736 187.5946808  29.2586098
  45.3082199 188.6747894  30.3242779  47.4148331 188.9465790  30.4331379
  48.2192764 188.4118805  29.9281006  47.4124527 188.7176819  31.4988308
  47.5481606 190.4245453  30.1850414  48.5420685 190.8281860  30.3782139
  46.8266945 190.9389954  30.8198051  47.0241547 190.5690613  28.7570400
  46.4700432 191.5034180  28.6672707  48.1914215 190.4528809  27.7087002
  48.3940544 189.4546814  27.0633049  49.0798988 191.4991608  27.6213303
  48.7532005 192.8480072  28.1751251  49.0317612 192.8020172  29.2279243
  47.7047043 193.0733948  27.9802837  49.6168251 193.7850494  27.4389191
  49.8744545 194.6284790  28.0795135  49.1270142 194.1190796  26.5242519
  50.8228569 193.0009308  27.0327110  51.4873390 192.9026337  27.8911400
  51.3312073 193.5196533  26.2199287  50.1871223 191.6325073  26.6604862
  49.8136330 191.6863098  25.6378860  51.2302284 190.4697418  26.7707958
  51.6509857 190.0236816  25.7013130  51.6442413 189.9617157  27.9145603
  51.1511803 190.3643646  28.6986942  52.6617432 188.8638306  28.0883732
  53.5860367 189.1849060  27.6080666  52.9951134 188.7744446  29.5745716
  53.7828522 188.0229340  29.6275902  53.5392799 189.6859589  29.8217697
  51.9171867 188.5083618  30.6722355  51.3046074 189.4001312  31.4948807
  51.4920502 190.4637299  31.4994640  50.3151817 188.7614288  32.2050552
  49.7303352 189.3042755  32.8242340  50.2032356 187.4425659  31.9091969
  49.4413185 186.3626404  32.3811760  48.6051826 186.5864563  33.0270767
  49.5675621 185.0575714  31.9225159  48.9500198 184.2189941  32.2085915
  50.6324730 184.8683777  31.0154743  50.7337112 183.9162445  30.5158558
  51.5289917 185.8484039  30.6105309  52.2730293 185.6222076  29.8611031
  51.2807770 187.1901855  31.0172176  52.2735481 187.5108185  27.4977207
  53.1773109 186.7193298  27.1946239  50.9842186 187.2527771  27.2903576
  50.3620758 188.0071259  27.5433350  50.5057869 185.9900513  26.7957497
  50.9338264 185.2490387  27.4708576  48.9911766 185.8985138  26.9004574
  48.6984215 186.0269318  27.9425240  48.5663223 186.7067871  26.3052406
  48.4444504 184.5284271  26.3715019  48.8667831 184.3386230  25.3847370
  48.5955429 183.3610840  27.3299446  48.0491333 183.5439758  28.2551899
  48.1478729 182.4558563  26.9197445  49.6448555 183.2679901  27.6099300
  46.9348946 184.5345154  26.0371361  46.6764755 185.2818146  25.2868900
  46.5859871 183.5961609  25.6060295  46.3885574 184.6906586  26.9673176
  51.0921669 185.7219543  25.4071903  51.7195854 184.7230377  25.1756439
  50.9075089 186.6492615  24.4675293  50.4729462 187.5151367  24.7530384
  51.2827911 186.5795898  23.0449333  50.8111916 185.7101746  22.5868912
  50.5729713 187.7302399  22.3262959  51.0329971 188.6710815  22.6284504
  50.7615204 187.6052856  21.2600231  49.0381470 187.8114014  22.5280151
  48.1516304 187.0329590  21.6802502  48.6301956 186.4588776  20.9006367
  46.7469063 186.9310760  21.9444695  46.1292229 186.3577881  21.2690392
  46.2592049 187.7312164  22.9659481  44.9195404 187.6262054  23.2389870
  44.3868103 187.4889679  22.4522400  47.1098976 188.5426178  23.7913685
  46.7433586 189.0905914  24.6468086  48.4612465 188.5881653  23.5413933
  49.0559044 189.3073425  24.0850563  52.7642899 186.6086731  22.8464985
  53.2710876 186.1368408  21.8448200  53.6017952 187.0309753  23.8403625
  53.1293640 187.5894165  24.5368195  55.0772247 186.8252563  23.8131542
  55.3752556 187.3053894  22.8810883  55.8005714 187.5367737  24.9077797
  55.7035484 186.9852142  25.8429089  56.8356781 187.5875854  24.5700302
  55.3060341 188.8540955  25.1593113  55.5448837 189.3227234  25.9623947
  55.3926010 185.3335114  23.7994518  56.3216400 184.9662628  23.0542049
  54.6219330 184.5271454  24.5375118  53.8702431 184.9373932  25.0730152
  54.7372780 183.0681915  24.5810165  55.7928848 182.8047943  24.6473904
  54.0823898 182.5632477  25.9078484  53.0111122 182.4166260  25.7701416
  54.3846130 181.5242004  26.0388298  54.4229927 183.3260193  27.2080250
  53.9775238 184.3181000  27.1342564  53.8067780 182.6267242  28.4083366
  54.1973839 181.6254120  28.5896454  53.8724136 183.2754364  29.2818203
  52.7775116 182.4316559  28.1072311  55.9204597 183.5194092  27.4735146
  56.2804832 184.1710968  26.6774044  56.1598930 184.0403595  28.4005432
  56.4764290 182.6007080  27.2864723  54.0232124 182.3976898  23.4008179
  53.8204803 181.2031860  23.4646339  53.6266670 183.1165924  22.3513126
  53.7607193 184.1145782  22.4298973  53.1365700 182.5829773  21.1144314
  53.5361824 181.5742340  21.0102177  51.6235695 182.3311615  21.1649265
  51.0035782 183.1703186  21.4803963  51.3082886 182.1089935  20.1454449
  51.1834984 181.1837616  22.0028648  50.7036858 181.4832764  23.2969952
  50.8357277 182.4893494  23.6668625  50.0972862 180.4968414  24.0000305
  49.6547546 180.6952209  24.9650249  49.9117279 179.1524811  23.4506454
  49.1730156 178.2034302  24.1133003  48.9261513 178.4673157  25.0026932
  50.4229546 178.8609009  22.1731071  50.1987038 177.9032135  21.7270679
  51.0656776 179.8990021  21.4320717  51.3658943 179.6304169  20.4300117
  53.6716347 183.2866669  19.8382778  53.3310051 182.8862457  18.7047958
  54.5997429 184.2518005  20.0080853  54.6753120 184.5676727  20.9644394
  55.2911263 185.0543671  19.0116959  54.6125259 185.3429565  18.2090073
  55.6350212 186.3590240  19.7077732  54.7445869 186.9775848  19.8200760
  56.0561104 186.1111298  20.6821117  56.5638771 187.2684937  18.9395161
  56.4304771 187.4025879  17.7051010  57.4041748 187.9344635  19.6004429
  56.5100746 184.3572235  18.3808670  57.4408951 183.9793549  19.0811691
  56.5669441 184.2381287  17.0583267  55.7878571 184.5338135  16.4876251
  57.7287025 183.5996857  16.3731995  57.8812943 182.5667267  16.6859531
  57.3846092 183.5778961  14.8936033  57.1937675 184.5556030  14.4511509
  58.1264496 183.0964050  14.2564745  56.5234756 182.9510803  14.6619825
  59.0668983 184.2808533  16.6537361  60.0521851 183.5526276  16.7601414
  59.1325874 185.6576080  16.6485653  58.2138138 186.0705872  16.5750713
  60.3553352 186.4312744  16.9346085  61.1776314 186.1232300  16.2888279
  60.1398277 187.9645691  16.6022263  59.3815613 188.3702240  17.2719917
  61.0470467 188.5020142  16.8783016  59.7445602 188.3122101  15.1449900
  58.7804680 187.8208008  15.0140724  59.5918808 189.3868866  15.0456886
  60.8283958 187.8330231  14.0874062  62.0765343 187.9367065  14.1901751
  60.3217697 187.4137878  13.0351019  60.8822708 186.2972260  18.3711147
  62.0633469 186.1200104  18.6825466  59.9573669 186.2572479  19.3619652
  59.0572166 186.6819305  19.1902523  60.3578033 186.0074005  20.7829647
  61.2768440 186.5642242  20.9658051  59.1849670 186.4687500  21.6983490
  58.1991882 186.0658875  21.4658871  59.4739189 186.2716675  23.2069645
  60.4427528 186.7521057  23.3434944  58.7745056 186.8383179  23.8216476
  59.5067902 185.2333221  23.5368671  59.0555115 187.8705750  21.5667534
  58.3827248 188.0414734  20.9036160  60.7709312 184.5514374  20.9686050
  61.8559456 184.3267670  21.4365997  59.8958778 183.6656952  20.5328598
  59.0641022 183.9574127  20.0397549  60.3696785 182.2460480  20.6032486
  60.5545006 182.0405579  21.6576290  59.2819138 181.2981110  20.1078644
  59.0952530 181.7038116  19.1135521  59.7074623 180.2972870  20.0344810
  57.9360695 181.1771698  20.8335361  57.5283203 182.1400452  21.1413116
  56.8541451 180.4238586  20.0239735  57.2544327 179.4804230  19.6527653
  55.9578705 180.2167053  20.6086769  56.5287437 181.0166931  19.1691189
  58.1925964 180.3664093  22.0934448  58.9312553 180.8017883  22.7664452
  57.2877617 180.3163147  22.6991386  58.5379257 179.3417511  21.9559307
  61.6951065 181.8959656  19.9005394  62.4149437 180.9798584  20.3544903
  62.0657272 182.5796661  18.8345470  61.5095711 183.3787842  18.5658169
  63.3448257 182.3893738  18.2085915  63.4840889 181.3104858  18.1401405
  63.4941406 183.0466309  16.8693714  62.9394875 183.9838715  16.9146519
  64.5298691 183.3429871  16.7034245  63.1669388 182.2533875  15.6189337
  63.9108963 181.4664612  15.4949255  62.1931038 181.7963409  15.7945700
  63.1537285 183.3190308  14.1618233  64.9228668 183.2049866  13.6839390
  65.4844894 183.3405609  14.6082230  65.0522537 182.2505646  13.1736088
  65.1694183 184.0045929  12.9854069  64.4635696 182.8769684  19.1467896
  65.4753723 182.1577911  19.4383774  64.3924408 184.1567688  19.5047188
  63.6422997 184.7620697  19.2030506  65.3644257 184.7352600  20.4217663
  66.2745590 184.6829071  19.8242569  65.1130219 186.2431641  20.6058331
  64.9560089 186.8080444  19.6869431  64.1597443 186.2239838  21.1340427
  66.1105194 186.9824677  21.5565281  65.6485062 187.9151764  21.8801193
  66.1601486 186.4652710  22.5147247  67.5273972 187.1267090  20.9573307
  67.6418457 187.3930054  19.7605934  68.5187683 187.0267029  21.7767143
  65.5542068 184.0137177  21.7669735  66.7170410 183.8257446  22.1831131
  64.5452652 183.4486847  22.3736382  63.6036377 183.6184845  22.0502090
  64.7591553 182.6051025  23.5954380  65.2324600 183.1641083  24.4026527
  63.3836937 182.2215576  24.2145081  62.8491440 181.6269379  23.4736977
  63.6076469 181.5856018  25.0709648  62.6218491 183.4469452  24.7118092
  63.0790329 183.9729156  25.5499249  62.4364662 184.0782623  23.8428001
  61.1957741 183.0246429  25.2738419  60.5744438 183.8768311  25.5491619
  60.7250137 182.5533295  24.4110832  61.3253250 182.0541687  26.3985596
  62.2246170 181.9156036  26.8369370  60.3500900 181.1666718  26.8084049
  59.0817680 181.2079926  26.3618851  58.8689079 181.9310303  25.6895695
  58.3553429 180.6154175  26.7377262  60.6330338 180.2239227  27.6306458
  61.5281982 180.2472534  28.0977974  59.9500732 179.5635376  27.9735241
  65.6359253 181.3769684  23.3894291  66.4204483 181.0151062  24.2098465
  65.6266937 180.7830200  22.1884575  64.9265747 181.0230408  21.5011997
  66.6208801 179.8048859  21.7449970  66.8476486 179.1443176  22.5818520
  65.9861755 178.9229736  20.6143074  65.5159607 179.5132141  19.8277893
  67.0251694 177.8880615  20.1845112  67.3687973 177.3530121  21.0698147
  66.5342331 177.1263275  19.5788326  67.8061447 178.3968353  19.6194267
  64.7757034 178.1439667  21.1802311  63.9594955 178.8621368  21.2584743
  64.5255051 177.4358063  20.3902836  65.1132278 177.6558990  22.0945415
  68.0336914 180.4608307  21.4318981  69.0346069 179.8218231  21.7799072
  68.1491089 181.7145691  20.8810081  67.3075104 182.2012177  20.6071682
  69.4679871 182.3006744  20.5958462  70.0728760 181.5891876  20.0337009
  69.3447952 183.6185455  19.7715740  68.6755905 184.3614960  20.2054787
  70.3635025 184.0016632  19.7120094  68.8862610 183.3967438  18.3032646
  69.5624313 182.6329193  17.9192696  67.8562546 183.0417633  18.3375111
  68.9268875 184.6555939  17.5406437  68.1022491 185.3031464  17.8385410
  69.8211212 185.2298737  17.7828732  68.7703857 184.5558167  15.9996796
  69.2279053 183.7044678  15.4957180  67.7247543 184.3935089  15.7381096
  69.2808304 185.7886658  15.3391027  70.2062454 186.0251312  15.6674471
  69.4227600 185.6335144  14.3512335  68.8145828 186.6491241  15.5887527
  70.2582474 182.5845947  21.8885326  71.4683456 182.2932281  21.9612122
  69.4439392 182.9189911  22.8877869  68.5151901 183.2631378  22.6900597
  69.9406967 183.0569153  24.3160439  70.8827744 183.5980225  24.2277317
  68.8935089 183.9191589  25.0939674  68.5111313 184.6991577  24.4355774
  68.1024475 183.2645721  25.4597969  69.5259705 184.6064301  26.2744598
  69.8529205 183.8469543  26.9846706  70.3551483 185.2530670  25.9873562
  68.5351181 185.5267334  27.0841160  69.0473175 185.8046875  28.0052528
  68.3785553 186.4558716  26.5361176  67.2703323 184.7878113  27.3991547
  67.3455963 183.7848816  27.4917870  66.0566559 185.2235413  27.5240746
  65.8073120 186.5273285  27.4612045  66.6102524 187.1035919  27.2530899
  64.8531723 186.8533936  27.5195656  65.0787659 184.4196625  27.9067974
  65.3419113 183.5377960  28.3229160  64.2023010 184.8435364  28.1755905
  70.2869797 181.7279510  24.9762039  70.7240601 181.6805420  26.1334057
  69.9841537 180.5520477  24.3260155  69.3872833 180.6044922  23.5129375
  70.7126770 179.2833099  24.6338978  71.1033401 179.3749390  25.6473522
  69.7526093 178.0513458  24.6659946  69.0120163 178.2879333  25.4299679
  69.2206650 177.9920349  23.7164574  70.3408890 176.7211761  25.1389542
  69.5125885 176.0191193  25.0433216  71.1445160 176.3479004  24.5041637
  70.8468552 176.7466125  26.5891762  70.0651093 176.8295441  27.5024338
  72.1382675 176.6191406  26.7364445  72.5255966 176.6711578  27.6677742
  72.7327423 176.4701385  25.9336357  71.9340973 179.0043488  23.7584000
  73.0052338 178.7088470  24.2775555  71.7274857 179.0872955  22.4088688
  70.8574677 179.4639435  22.0605717  72.7671509 178.8179626  21.3620605
  73.0612640 177.7695770  21.4121037  72.1709671 179.0422516  19.9546375
  71.8736038 180.0883179  19.8810272  73.0054092 178.9528961  19.2590694
  70.9593811 178.2079163  19.5072842  70.1432037 178.3187103  20.2212124
  70.5717621 178.8312683  18.1124973  71.3570404 178.6425476  17.3804951
  69.6709137 178.3769379  17.6999912  70.4362183 179.9044189  18.2469349
  71.3279648 176.7073975  19.3808746  71.5784225 176.3265381  20.3709908
  70.3971405 176.2068481  19.1141758  72.0514145 176.5046234  18.5911884
  74.0383911 179.7524872  21.5368404  75.1547241 179.3641815  21.1588249
  73.9455185 180.9263458  22.1368694  73.0305634 181.3397980  22.2465057
  75.0988846 181.8046875  22.4802246  75.7434998 181.8238983  21.6014709
  74.7211609 183.2597961  22.7599812  73.7686081 183.3376770  23.2840729
  75.4486847 183.6438141  23.4750595  74.6513824 184.0897217  21.5528507
  75.7957840 184.5702667  20.8200245  75.3209763 185.3333282  19.8078575
  75.9157791 186.0153351  19.2183933  73.9759674 185.2941437  19.8343620
  73.3940659 185.8742065  19.2469711  73.5189133 184.5142212  20.9173908
  72.4905090 184.4183655  21.2329731  76.0637970 181.2274933  23.5495453
  77.2437439 181.5453033  23.5167255  75.4996796 180.4775543  24.4635792
  74.5134964 180.2767487  24.3786240  76.2135315 179.7635040  25.4842796
  77.1423645 180.2922211  25.6983414  75.3527451 179.5584259  26.7118187
  74.5196991 178.9271240  26.4026623  75.8988876 179.1198730  27.5469875
  74.7969666 180.8743286  27.2483482  75.3097687 181.7214355  26.7927742
  73.7709274 180.9732666  26.8940220  74.8576050 180.9451447  28.8050289
  75.5442047 181.8489532  29.3210506  74.2565842 180.0645294  29.5145969
  76.7295761 178.4117889  24.9601631  77.8337250 178.0296173  25.3333054
  76.0991898 177.7056274  24.0446968  75.2564011 178.0176697  23.5838013
  76.7605209 176.5098114  23.4624863  77.2975082 175.9938812  24.2584457
  75.6786118 175.5354614  22.8710289  75.1213837 176.1398926  22.1553078
  76.2598801 174.7713470  22.3549175  74.7165909 174.8783417  23.8132744
  74.9399261 174.8305206  25.1522770  75.7756577 175.1978912  25.7293339
  73.8488770 174.1456757  25.7622242  73.8130798 173.9199219  26.7460175
  72.8964615 173.8296051  24.8034096  71.6491776 173.2266235  24.8556309
  71.2969818 172.8440552  25.8022022  70.8583908 173.0359802  23.7094154
  69.8370438 172.6931915  23.7851963  71.3665771 173.4057770  22.4302082
  70.8613129 173.2239990  21.4931583  72.6227112 174.0717621  22.4302330
  73.0540771 174.4071655  21.4986591  73.4037018 174.3238983  23.6113377
  77.8535995 176.8136597  22.4111729  78.5587082 175.8917694  21.9922676
  77.9846802 178.0843658  21.9758472  77.5127335 178.7736359  22.5435390
  78.9481964 178.4878845  20.9815578  79.8645782 177.9103699  21.1033039
  78.3339081 178.2099915  19.6285362  78.0751801 177.1511536  19.6337490
  77.4278564 178.8012238  19.4958515  79.3639832 178.4516907  18.5245094
  80.5305939 178.7275696  18.8104343  78.9873734 178.4099884  17.3148136
  79.3380508 179.9342346  21.1503105  78.7233276 180.8420410  20.6395855
  80.3284760 180.1122589  22.0133743  80.5896301 179.3356018  22.6038780
  80.8569260 181.3919220  22.3728008  80.0522766 182.0767212  22.6405563
  81.8434982 181.1948547  23.5313168  82.7571716 180.6483765  23.2974873
  82.1518402 182.1876221  23.8591194  81.3043976 180.5128174  24.7293377
  81.7328491 180.9401245  25.6359444  80.2251358 180.5824738  24.8651676
  81.6610718 179.0087433  24.7668571  81.4936523 178.3169250  23.7558460
  82.2124786 178.5479431  25.7768478  81.5707779 182.2209320  21.2987347
  82.3064499 183.1648407  21.5307751  81.3897018 181.9256592  20.0043964
  80.6350708 181.2707062  19.8571911  81.9599228 182.6379395  18.8877525
  82.2256393 183.6079559  19.3079224  83.1834869 181.9030762  18.4110641
  82.8334122 180.9347382  18.0534687  83.6186829 182.3628693  17.5237694
  84.3036880 181.7243958  19.4110832  84.4312820 180.7117615  20.0946846
  85.2236557 182.6819305  19.4235058  85.9617844 182.5997467  20.1079826
  85.1475677 183.5583649  18.9273300  80.9297867 182.8136902  17.7261925
  81.3261490 183.0728302  16.5905743  79.6578217 182.4366455  17.9932270
  79.5227051 182.1930542  18.9640541  78.5666275 182.4152222  17.0520496
  78.7480698 181.8473511  16.1395226  77.4628830 181.6053925  17.7624149
  77.9818802 180.6971741  18.0688286  77.0579681 182.0833740  18.6544189
  76.3058472 181.1287384  16.8266506  76.7152634 180.8023376  15.8706474
  75.5606232 180.0245972  17.4822636  74.9929581 180.3252411  18.3628597
  74.8382339 179.6769409  16.7437553  76.3268814 179.2870636  17.7210007
  75.2815247 182.2164459  16.5655193  75.7932129 182.9501038  15.9426022
  74.3884354 181.8537292  16.0566769  74.9679565 182.6803894  17.5006924
  78.1708298 183.8679352  16.6640606  77.4460831 184.4532166  17.4575024
  78.6052170 184.4165802  15.5333548  79.4842682 184.0612946  15.1852951
  77.9882126 185.6047668  14.8612595  77.8594208 186.4441223  15.5446320
  79.0283432 185.9955750  13.7253551  79.2720261 185.0845337  13.1788168
  78.5796204 186.6764984  13.0021038  80.2954407 186.6172180  14.3477869
  80.0593033 187.5552521  14.8502178  80.7660446 185.9826965  15.0987883
  81.3412628 186.9957275  13.2800665  82.2469254 187.3936310  13.7378330
  81.6947556 186.0579071  12.8515282  80.9226379 187.9296722  12.1235113
  81.6309814 188.0285034  11.3009663  80.0129623 187.6123505  11.6137114
  80.8518372 189.2985992  12.7006645  81.7133713 189.7175140  13.0206385
  80.4025192 189.9762421  12.1014872  80.2630768 189.3045044  13.5212908
  76.6805801 185.1662598  14.2920895  76.7068787 184.0916138  13.6803837
  75.5651016 185.7791901  14.6845455  75.5858231 186.4792480  15.4122772
  74.1566696 185.3239441  14.3832293  73.8966370 184.4965668  15.0434704
  73.1306458 186.4363556  14.6726284  73.5129929 187.3654480  14.2498922
  72.2204132 186.1779022  14.1315422  72.6885910 186.6309662  16.1901894
  73.5548477 186.2154999  17.0256557  71.5027771 186.9855042  16.4646778
  73.9262390 184.9404907  12.9088688  73.0235443 184.1129303  12.6662149
  74.6717453 185.5466309  11.9420042  75.3013992 186.2478790  12.3051777
  74.7010651 185.3001251  10.4695930  73.7627106 185.6721802  10.0582924
  75.8564148 186.0951538   9.8771343  76.7658615 185.6720123  10.3036928
  75.8594742 185.9947205   8.7917747  76.0049057 187.5864563  10.2494669
  76.1368866 187.7342377  11.3213091  76.8841324 187.9402771   9.7110558
  74.7784729 188.3982086   9.8293324  74.3134842 188.2119141   8.6652670
  74.2786102 189.2726440  10.5845175  74.9276581 183.8348846  10.0110407
  74.7475739 183.4536896   8.8764954  75.4065018 182.9767151  10.9226103
  75.6717072 183.2715302  11.8515072  75.4572601 181.5200195  10.6373453
  75.7033386 181.3650970   9.5868444  76.3701630 180.7918243  11.6003504
  76.4849930 179.7361755  11.3543682  77.3786011 181.2029572  11.5543213
  76.0113602 181.0288544  12.8968449  76.5525360 180.4966278  13.4846010
  74.0483322 180.8817444  10.6877422  73.8868103 179.7509613  10.2204304
  73.0810242 181.4551697  11.3372822  73.2358475 182.4282684  11.5591125
  71.6706543 180.9572144  11.4613142  71.6499863 179.8681641  11.4206514
  71.1066513 181.2873840  12.8165350  71.0796967 182.3770447  12.8166571
  70.0762177 180.9634399  12.9627151  71.9678574 180.7293396  14.0322409
  73.0226746 180.9585419  13.8808222  71.5580521 181.3321075  15.4147444
  70.4908752 181.1889038  15.5842419  72.1810608 180.8674011  16.1789532
  71.8003922 182.3942413  15.4499550  71.7834396 179.2266388  14.0971193
  72.2202148 178.8307953  13.1802578  72.4454193 178.9398346  14.9142084
  70.7453156 178.9237976  14.2338152  70.6498642 181.4524841  10.4052353
  70.9172363 182.4371643   9.7127295  69.5277863 180.7540894  10.1674786
  69.2314911 179.4412079  10.5857086  68.7753220 179.4905243  11.5744362
  70.0865250 178.7673340  10.5317554  68.2389374 178.9940643   9.4670773
  67.5708694 178.2302856   9.8650970  68.8023529 178.7433929   8.5682878
  67.3673477 180.2179565   9.2472248  66.5709000 180.3207703   9.9842443
  66.9615784 180.2106781   8.2355881  68.4640579 181.2813873   9.3773041
  68.8642807 181.5345306   8.3955526  67.8116608 182.5247955  10.0955296
  67.5914917 182.4791565  11.2805176  67.4154282 183.5085297   9.2715778
  67.8838120 183.6194000   8.3836441  66.4846039 184.5482635   9.7167521
  66.7938538 184.7994537  10.7313299  66.6457977 185.8144836   8.9403477
  65.8801193 186.5427704   9.2076359  67.9771500 186.4076538   9.2676172
  68.8240356 185.9456482   8.7602339  68.0359573 187.4136200   8.8520784
  68.2276154 186.3946228  10.3283739  66.5754776 185.5518799   7.5094519
  65.7061844 185.7916718   7.1801639  64.9926147 184.1880646   9.7167673
  64.1622009 184.8833313  10.3235464  64.6418762 183.0290222   9.1408749
  65.3126831 182.4409332   8.6673050  63.2435989 182.6352081   8.9765081
  62.5743713 183.4509430   9.2500277  63.0010185 182.1514282   7.4851041
  63.2394600 182.9235992   6.7536631  63.6741066 181.3132782   7.3046675
  61.5184326 181.8558197   7.3081312  60.6480370 182.6600647   7.4460888
  61.2096176 180.5975952   7.1267157  60.2648239 180.4057465   6.8256197
  61.9715576 179.9545898   6.9651766  62.8732681 181.6098328  10.0908327
  63.6607056 180.6635742  10.2220869  61.7191658 181.7141113  10.8181734
  60.8768959 182.8902283  10.8812380  60.5833626 183.2880402   9.9097996
  61.3060074 183.7392273  11.4133692  59.6496811 182.4341888  11.7072563
  58.8516808 182.1291962  11.0302963  59.3636360 183.2947845  12.3119707
  60.2055664 181.3446503  12.6643496  59.4539604 180.6771240  13.0857620
  60.6561928 181.8292694  13.5304804  61.3826866 180.7900848  11.8924513
  62.2355919 180.7507477  12.5700274  61.1803970 179.2917480  11.5287952
  61.6298790 178.4406433  12.2630720  60.6638260 178.9616089  10.3185196
  60.2809143 179.7229919   9.7764959  60.4404945 177.5620575   9.9016542
  59.8505325 177.1337585  10.7119608  59.7203598 177.5659485   8.5201254
  60.2444458 178.2976227   7.9052305  59.8615303 176.2434998   7.7330751
  59.4094582 175.4360504   8.3090515  59.4511986 176.2131500   6.7237153
  60.9313736 176.0348511   7.7325964  58.1840019 177.8876038   8.6355772
  57.5366936 177.4640350   7.8676648  57.7770691 177.4586487   9.5512791
  57.9626732 179.4409332   8.7423658  58.4270096 179.9391479   7.8913193
  56.9014816 179.6791992   8.6701994  58.3885612 179.8226471   9.6702738
  61.8292542 176.8726196   9.9561501  62.0972366 175.9248962  10.6827269
  62.7959785 177.3892517   9.0886784  62.6200790 178.2481689   8.5872650
  64.1565781 176.8393707   9.0378466  64.0217361 175.8525543   8.5950108
  65.0123291 177.6041565   8.0109692  65.2784653 178.5142212   8.5486059
  65.8813782 176.9880371   7.7802291  64.3839493 178.0428925   6.6912341
  63.3422012 178.7253418   6.6621141  64.8518524 177.6244659   5.5877056
  64.9775772 176.8038483  10.2846823  65.6642227 175.7949524  10.4466581
  64.9442215 177.8145294  11.1796865  64.4178543 178.6330719  10.9094400
  65.6033554 177.8959961  12.5230742  66.6838455 177.7775116  12.4418888
  65.4240799 179.2964783  13.1021805  65.7561493 180.0099182  12.3479757
  64.3643417 179.5440063  13.0406761  66.0035477 179.6800385  14.4645853
  65.3367157 179.1376953  15.5904694  64.4896011 178.4873962  15.4295340
  65.7729263 179.4614716  16.8815193  65.2901077 179.0462646  17.7538090
  66.8840408 180.3304291  17.1145020  67.3093414 180.5749512  18.0766506
  67.5514069 180.8020172  15.9292326  68.4224701 181.4004517  16.1517906
  67.1561127 180.4645844  14.6535368  67.7653580 180.7891388  13.8229456
  65.0127640 176.8336029  13.4341679  65.7711105 175.9515381  13.8934069
  63.6834068 176.8048096  13.5432901  63.0537415 177.4703522  13.1182299
  63.0699654 175.7534637  14.3656502  63.4211769 175.8520813  15.3927946
  61.6022072 175.9047394  14.5522718  61.2851601 175.2301025  15.3475409
  61.2936363 176.9307098  14.7529631  61.0673294 175.6417236  13.3122377
  61.2687263 176.3342743  12.6786518  63.5498428 174.3707886  13.8766069
  63.9356689 173.5392914  14.6704874  63.6579781 174.1392822  12.5254955
  63.1940689 174.8275299  11.9499931  64.0988770 172.8861542  11.9449406
  63.4623795 172.1406860  12.4216537  63.8381310 172.7498322  10.4681158
  64.1273499 173.5926666   9.8403473  64.5972214 172.0428925  10.1332912
  62.5094109 172.2894135   9.9963474  61.9505882 171.0734711  10.4827147
  62.3488197 170.6083527  11.3723640  60.8537827 170.5505676   9.7549706
  60.3584976 169.6339569  10.0394573  60.3069992 171.2653198   8.6595984
  59.2290649 170.7692261   7.9463515  58.8559380 171.3965302   7.3227611
  60.8143425 172.5218964   8.2484856  60.4838905 173.0432281   7.3622513
  61.9558640 172.9722290   8.9022226  62.4808540 173.8278656   8.5038729
  65.5384064 172.5933990  12.2698965  65.7930450 171.4701996  12.6914482
  66.4525070 173.5463104  12.2087374  66.1765976 174.4605103  11.8797684
  67.8432312 173.3666840  12.5651903  68.2333908 172.5390625  11.9728165
  68.6391144 174.5993042  12.1665945  68.4308243 174.7771301  11.1115608
  68.3390350 175.4662628  12.7551794  70.1163254 174.3248444  12.4353905
  70.6960526 175.2451019  12.3635626  70.2843094 173.9117126  13.4299803
  70.8568573 173.4272003  11.4278097  71.8798065 173.2912750  11.7788105
  70.3528748 172.4607697  11.4170523  70.8803787 174.0499878  10.0671587
  70.1468277 173.7501068   9.4409981  71.8742065 174.7453156   9.4866781
  72.8861771 175.2444458  10.1758003  72.9617233 175.0971985  11.1721487
  73.6867142 175.5643921   9.6496067  71.8846283 174.9992676   8.1779394
  71.2497177 174.4822845   7.5865774  72.5850449 175.6210480   7.7999034
  67.9863663 173.0037537  14.0446911  68.6093750 171.9828339  14.3653536
  67.2924500 173.7364044  14.8898468  66.8413925 174.5530853  14.5029736
  67.1692505 173.4657898  16.2996540  68.1680908 173.4171295  16.7333031
  66.4709473 174.6390533  16.9866257  65.4923401 174.8231354  16.5432968
  66.4025955 174.3186798  18.5251236  67.4127197 174.1259308  18.8865013
  65.9269791 175.1925964  18.9702816  65.8012543 173.4284668  18.7095432
  67.2458344 175.9950104  16.9033127  67.4267807 176.2311554  15.8546944
  66.6942902 176.8025208  17.3848133  68.2280884 175.9092865  17.3679981
  66.5210419 172.0907440  16.6435738  66.9554367 171.3821869  17.5449390
  65.4906540 171.6754913  15.8608522  65.0591812 172.4050140  15.3115683
  64.8098297 170.4179077  16.1029263  64.4755707 170.2777100  17.1308918
  63.5587006 170.2789459  15.2660036  63.7868385 170.4900513  14.2212582
  63.0387917 169.3220825  15.3129082  62.8376961 170.9758148  15.6933613
  65.8501816 169.2689667  15.7458630  66.1263962 168.3877411  16.5693035
  66.5319901 169.3486481  14.6262016  66.2193527 170.0679016  13.9897680
  67.5433807 168.3860016  14.1954689  67.0242462 167.4410400  14.0352955
  68.0282593 168.9756012  12.8383236  68.3340378 170.0181885  12.9255857
  68.9020157 168.4036255  12.5260811  67.2350311 168.9134674  12.0933247
  68.6718216 168.2619476  15.2138414  68.9333878 167.1235962  15.6224852
  69.1981583 169.3295746  15.7556458  68.7916565 170.2514801  15.6852636
  70.3817368 169.2701874  16.6132774  71.0069275 168.4008636  16.4095573
  71.3276901 170.3992157  16.3573456  72.3083496 170.1453705  16.7597980
  71.5399323 170.5280457  15.2960005  70.6786270 171.9485474  17.0677547
  71.7176743 172.7393341  16.7850227  70.1953659 169.1405945  18.1174202
  71.1464462 168.9002380  18.8319817  68.9405823 169.2414551  18.6494064
  68.1687241 169.4882812  18.0465622  68.6142654 168.8461914  19.9956169
  69.1972656 169.4640045  20.6786289  67.1493149 169.0310822  20.2768936
  66.5896530 168.8461456  19.3600063  66.8923264 168.3842773  21.1157742
  66.8601151 170.4333801  20.7281208  67.1928940 171.1270447  19.9559879
  65.3549805 170.4761047  20.9460201  65.1688766 169.9280090  21.8696308
  65.1720886 171.5349274  21.1291885  64.8664474 170.0938110  20.0497589
  67.5219345 170.8243713  22.0908241  68.5726624 171.0484009  21.9067287
  67.0357895 171.6628418  22.5895710  67.3091583 170.0079956  22.7810078
  68.9857712 167.3796692  20.3134346  68.4860001 166.5109406  19.5851326
  69.6884308 167.0575714  21.3854771  70.6098099 167.9262848  22.1029491
  70.2251968 168.8607025  22.5116558  71.4336395 168.2338409  21.4588890
  71.0611191 167.1190033  23.3274403  70.3042374 167.1386566  24.1115646
  71.9554596 167.5891113  23.7364006  71.0188293 165.6735992  22.8141632
  70.9633560 165.0127716  23.6792221  71.9446411 165.4130707  22.3012352
  69.8233948 165.7142029  21.8492584  69.9538116 164.9475861  21.0854511
  68.5754852 165.3244476  22.7050896  68.2753220 165.9598846  23.6884804
  67.9123001 164.2205963  22.3273811  68.1547165 163.6581573  21.5242653
  66.7902603 163.5618591  23.0745277  67.1531601 163.4974670  24.1003208
  65.4364243 164.4172668  23.0351849  64.6005402 163.7718048  22.7654114
  65.2201767 165.1037598  24.4268208  66.1352768 165.6010437  24.7483749
  64.3873672 165.8059998  24.3896198  65.0170441 164.4268646  25.2566700
  65.3869705 165.5046692  21.9398155  65.8689194 166.4041138  22.3229809
  65.9105911 165.1033173  21.0721569  63.9787369 166.0857086  21.5256710
  63.5248375 166.6633606  22.3308926  64.0322037 166.6634064  20.6029034
  63.3299828 165.2462311  21.2756386  66.5355148 162.1596069  22.5367184
  67.0638504 161.8138123  21.4474068  65.7013931 161.3238068  23.2554951
  65.3166504 161.5854492  24.1519394  65.2505798 160.0008698  22.7796078
  66.1252136 159.4626617  22.4143028  64.6909180 159.2081604  23.9996662
  64.2709732 158.2686157  23.6404686  65.5062485 158.9794159  24.6859760
  63.6229477 159.9274597  24.7990341  63.9691124 160.8436127  25.5886669
  62.4651299 159.4413605  24.7810516  64.2712555 160.0937195  21.6165314
  63.5477448 161.0839996  21.4225273  64.2229691 159.0097656  20.8307076
  64.8079453 158.2193146  21.0611229  63.4608536 159.0288544  19.5621891
  63.7456551 159.8908691  18.9589481  63.7573662 157.8092804  18.6588478
  63.4676514 156.8868256  19.1620865  63.1448326 157.8340302  17.7575779
  65.1784134 157.7598877  18.1831112  65.6171265 158.7721710  17.6188164
  65.9180984 156.8562164  18.5188141  61.9466095 159.2625580  19.7400913
  61.3072472 159.9813232  19.0132828  61.4126816 158.6595154  20.8244438
  61.9011002 158.1090546  21.5162010  59.9374352 158.7767792  20.9876633
  59.5278473 158.5506897  20.0031738  59.5154152 157.6562653  22.0146027
  60.1074295 157.7308655  22.9267731  58.4687614 157.6785126  22.3181267
  59.7210732 156.6449432  21.6638546  59.3912621 160.1785583  21.3400116
  58.1751289 160.3433228  21.2724457  60.3006477 161.1371613  21.6498966
  61.2323723 160.7984009  21.8428497  60.0217285 162.5550537  21.8480511
  58.9737816 162.6860809  22.1177559  60.7933044 163.0452881  23.0484791
  60.3190575 162.5233154  23.8795872  61.8250618 162.7371063  22.8793278
  60.7941437 164.4680481  23.3025761  61.4177170 165.0398407  22.6153316
  59.4385376 165.1725159  23.3237286  58.8016396 164.7121887  24.0790806
  59.5933723 166.2395782  23.4833870  59.0970268 165.1047821  22.2908287
  61.3653412 164.6975403  24.6961689  62.4013863 164.3774261  24.8067360
  61.2814941 165.7468719  24.9789524  60.7893944 164.0528717  25.3600883
  60.3416100 163.2664032  20.4891453  59.4333572 164.0148163  20.0976086
  61.4056931 162.9950104  19.7896862  62.0265312 162.2852325  20.1514339
  61.6204453 163.4909668  18.4183464  61.6172600 164.5805206  18.3870239
  62.9865074 163.0256348  17.8482285  63.0129509 161.9362030  17.8247471
  63.0981407 163.4272919  16.8411026  64.1932602 163.5798950  18.6395626
  64.2171173 164.6693878  18.6632404  64.1122665 163.2570953  19.6775131
  65.5544281 163.0484619  18.1313610  66.3378677 163.3585815  18.8228397
  65.5469131 161.9632111  18.2328300  65.9708939 163.3673706  16.7226124
  65.6512909 162.7209930  16.0153999  66.9470901 164.1627960  16.3904171
  67.3914032 165.1189880  17.1143303  67.0616302 165.2279968  18.0627327
  67.9999466 165.8553467  16.7864056  67.5179443 163.9933624  15.2518625
  67.1124954 163.4407043  14.5100508  68.2821045 164.5999298  14.9906664
  60.5093422 163.0563812  17.4283371  60.3051453 163.8017273  16.4629745
  59.7338486 161.9946747  17.7026825  60.1479568 161.2912140  18.2974625
  58.4972076 161.6727905  17.0264740  58.7374420 161.6481171  15.9635592
  57.9882317 160.2144318  17.4298420  57.9260063 160.1495819  18.5161304
  56.5104713 160.0423737  16.9906788  56.4161911 160.1897430  15.9148121
  56.2150421 159.0144043  17.2006931  55.9154358 160.7662811  17.5474510
  58.9033318 159.1004791  16.7652988  58.8842087 159.2905884  15.6921749
  59.8920403 159.2176819  17.2089386  58.4510841 157.6388702  17.1379051
  57.5405159 157.3119049  16.6358509  59.2720566 157.0155792  16.7834740
  58.4265060 157.5081024  18.2197533  57.4934616 162.8247223  17.2289886
  56.9670067 163.3807983  16.3056488  57.2030220 163.1492767  18.5052853
  57.7635765 162.7312164  19.2340508  56.3477898 164.2356873  18.9012566
  55.4015923 163.9890442  18.4196091  56.1243401 164.4538116  20.4442406
  56.9238167 165.0160217  20.9267845  55.2475052 165.0921021  20.5530357
  55.9128647 163.1432037  21.2491512  56.8779030 162.6371155  21.2753029
  55.5480156 163.4552002  22.2277431  54.8472900 162.1637726  20.6106358
  53.7846565 162.5473022  20.1581860  55.1472435 160.8707275  20.6506596
  54.4387741 160.2049713  20.3769093  56.0322266 160.5366669  21.0046406
  56.8201561 165.5892944  18.3816452  55.9751129 166.4100952  18.0306950
  58.1455841 165.7730560  18.1672134  58.7419662 165.1177521  18.6519909
  58.7776375 166.9735260  17.5369816  58.2680893 167.8359070  17.9668121
  60.2351532 167.0008850  17.9360905  60.3025246 166.7199249  18.9871025
  60.7086563 166.2526093  17.3005123  60.9701653 168.4034729  17.8192272
  60.8970718 168.6851196  16.7687855  60.4457664 169.5917358  18.5634460
  60.5422478 169.3643188  19.6250839  60.9851990 170.5166931  18.3595905
  59.4057579 169.7269745  18.2664642  62.4168129 168.1406555  18.2050457
  62.9890099 167.4026947  17.6428032  62.9389496 169.0937653  18.1210594
  62.4287605 167.8450012  19.2541180  58.5783844 167.0079498  16.0080910
  58.2271156 168.0463104  15.4518967  58.6829071 165.8566742  15.3241005
  58.9742699 165.0282288  15.8229675  58.4231377 165.7703247  13.9168234
  58.9219894 166.5852051  13.3922234  59.0583649 164.4573822  13.3679914
  60.0744286 164.3451385  13.7463007  58.5176277 163.6008148  13.7704840
  59.0248795 164.3711700  11.7864161  58.2082520 164.9580231  11.3659039
  60.2203789 165.0667419  11.2128420  61.1412239 164.4857788  11.1614609
  60.1161537 165.1944580  10.1353807  60.4132843 166.0425262  11.6586256
  58.9174385 162.9510498  11.2429829  57.9881248 162.4495850  11.5132122
  58.8691864 163.0654602  10.1600790  59.7130814 162.2607422  11.5232315
  56.9505157 165.9053802  13.5747747  56.6407433 166.3786163  12.4812183
  56.0247192 165.4989929  14.5146532  56.3271599 165.0533447  15.3690653
  54.5800171 165.5554047  14.2710371  54.2539139 165.0279846  13.3746138
  53.8997307 164.8635559  15.4250135  54.4833679 164.9367676  16.3426762
  52.9725914 165.3890533  15.6538420  53.4859848 163.3720703  15.1237345
  52.6073380 163.4126740  14.4799719  54.3019905 162.9302368  14.5518847
  53.1025162 162.6607361  16.4640636  53.9058800 162.5419006  17.1910992
  52.3777390 163.2723236  17.0014324  52.4904861 161.3066101  16.0272903
  51.7227097 161.6644745  15.3413210  53.2909584 160.7610779  15.5275669
  51.9083900 160.5493469  17.1407738  51.9924355 159.5496674  17.0238285
  52.2437286 160.8211517  18.0538845  50.9054985 160.6531372  17.0813065
  54.0394478 167.0048828  14.0976696  52.8743896 167.1474152  13.6822033
  54.8049583 167.9741211  14.5223570  55.7369537 167.7532806  14.8428602
  54.2548904 169.3159637  14.7969322  53.3304901 169.1126862  15.3375378
  55.1999702 170.1736908  15.7046137  56.1562996 170.3140106  15.2007866
  54.6039162 171.5822449  16.0402374  53.5897713 171.5664062  16.4394321
  55.2130241 172.0541382  16.8112240  54.6353035 172.2349548  15.1678286
  55.5302963 169.4121552  17.0143776  55.7764359 168.3800354  16.7648945
  56.4155426 169.8808136  17.4442730  54.4114151 169.4005737  18.0760269
  53.4742966 169.0384064  17.6532478  54.6990166 168.6935425  18.8541584
  54.2769394 170.3867798  18.5203438  53.7738495 170.1376648  13.5644360
  54.4107513 170.1649628  12.5328398  52.6373901 170.8682098  13.6642809
  52.1653175 170.8779449  14.5571146  52.0426636 171.5957947  12.4859886
  52.0774422 170.8683777  11.6749678  51.0182304 171.8813629  12.7249403
  52.8869820 172.8021851  12.1660557  53.3584251 172.9507141  11.0851927
  53.1013489 173.7146759  13.1379061  52.6804886 173.5406494  14.0394011
  53.6306801 175.0400696  12.9540901  53.8263474 175.1810455  11.8910999
  52.5695877 176.0966949  13.4177065  51.6319962 175.9336853  12.8862429
  52.3814316 175.8590851  14.4647217  52.9015617 177.4955292  13.2873526
  53.0496750 177.7142944  12.3644180  54.9669037 175.3487854  13.6980772
  55.1690140 174.8747559  14.8100271  55.7531013 176.2564850  13.1601791
  55.4964600 176.5384369  12.2249031  57.0559616 176.5376740  13.7062912
  57.5399513 175.5767822  13.8810291  57.8813248 177.2542877  12.6221094
  57.4021530 178.2231903  12.4816809  58.9260750 177.4513245  12.8624401
  57.8274498 176.6733246  11.7014189  57.0221138 177.3439331  15.0530329
  57.9954453 177.2285919  15.7779322  55.9596825 178.1284943  15.2973652
  55.3102303 178.2910004  14.5411177  55.5929337 178.5953217  16.6789360
  56.2983093 179.2843170  17.1435165  54.2666435 179.3940277  16.6492462
  53.5447197 178.7957153  16.0934219  53.7025986 179.6142578  18.0887852
  54.3900223 180.0974274  18.7831173  52.7738495 180.1847076  18.0775986
  53.4964104 178.6110229  18.4617176  54.5956917 180.6703186  15.9321480
  55.3432274 181.1855316  16.5353374  55.0595551 180.4035492  14.9825344
  53.3310509 181.4308167  15.5011377  52.8552399 181.8471527  16.3890343
  53.7823067 182.2735901  14.9775095  52.6950798 180.7984772  14.8816319
  55.5765381 177.3961945  17.6425571  56.2754135 177.3692780  18.6260548
  54.7265625 176.3712616  17.4308357  54.1226006 176.3896484  16.6215210
  54.4899635 175.2533417  18.3590012  54.1588173 175.6013641  19.3374329
  53.5117798 174.3819580  17.6606445  53.8158798 174.0850220  16.6569271
  53.4327545 173.4707336  18.2535305  52.0683060 174.8718567  17.4596939
  51.6102943 174.8053131  18.4465561  52.0862465 175.9220276  17.1683197
  51.2502060 174.0915527  16.4646912  51.7162628 173.3831787  15.6109486
  49.9450226 174.2736053  16.4824314  49.4379692 173.8150787  15.7389631
  49.5544853 175.0013275  17.0638218  55.7225685 174.4167480  18.5350914
  55.9443512 173.8896027  19.5923290  56.5676308 174.2543488  17.4655609
  56.1609154 174.5960693  16.6065483  57.8670425 173.5628204  17.4076672
  57.7079582 172.5157928  17.6656017  58.2653732 173.4267120  15.8878078
  57.4346771 172.9725037  15.3476706  58.4922791 174.3986969  15.4498014
  59.4836807 172.5435333  15.6471157  60.3457298 173.1399536  15.9458494
  59.4733887 171.7149048  16.3551979  59.6940155 171.9421234  14.1885500
  60.5936928 171.3278046  14.2246828  59.0097809 171.1415405  13.9074402
  59.8478470 173.0359650  13.2510548  60.4544258 173.7845612  13.5539923
  59.2414818 173.0447388  12.0746384  58.3299255 172.2349243  11.6608667
  58.0470200 171.4433594  12.2207766  57.8986931 172.3887939  10.7606106
  59.5411911 174.0615540  11.3294096  60.2911034 174.6831360  11.5965576
  58.9844666 174.1628723  10.4928122  58.8770447 174.1811066  18.3702011
  59.3546448 173.5299377  19.2735100  59.0532074 175.5201569  18.2639542
  58.7066231 175.9164581  17.4020271  59.7894592 176.3506775  19.2154770
  60.7719193 175.9044800  19.3696556  59.8926697 177.7866058  18.7019691
  58.8768692 178.1309509  18.5078888  60.4356689 178.4051666  19.4165459
  60.6489525 178.0197754  17.3793678  60.3518562 177.2985687  16.6179962
  60.2464142 179.4013519  16.8199692  60.6696053 180.1968689  17.4332886
  60.6198120 179.5814667  15.8118849  59.1678848 179.5577698  16.8400364
  62.2209244 177.9729767  17.4112816  62.5983429 176.9975128  17.7180653
  62.5782585 178.2328644  16.4148502  62.6342506 178.7495575  18.0548668
  59.2308846 176.2011414  20.6796341  60.0268211 176.0002747  21.5694790
  57.9088020 176.2284851  20.9025688  57.3102455 176.3665771  20.1008415
  57.2281570 176.0030212  22.2093620  57.6497726 176.7066956  22.9271431
  55.7190933 176.1834564  22.1804447  55.2478943 175.6054840  21.3854523
  55.2676086 175.8734436  23.1228638  55.2698593 177.6982422  22.0906925
  55.7679939 178.2012634  22.9195080  55.6067162 178.0952454  21.1330853
  53.7144661 177.8609314  22.1117077  53.4466095 178.9143524  22.1933308
  53.3879166 177.3983765  21.1803036  53.0279312 177.0591278  23.2434044
  52.7363892 176.1067047  23.0761070  52.8806076 177.5263062  24.4899044
  53.2328148 178.7343597  24.8582535  53.1453323 179.4831543  24.1861286
  53.2135811 178.9218292  25.8505173  52.4555168 176.6932373  25.4188595
  51.9963722 175.8372955  25.1420116  52.5543709 176.9243011  26.3970947
  57.5605850 174.6374207  22.7661743  58.0602684 174.5373688  23.8986340
  57.5091438 173.5340424  22.0140228  57.2071533 173.7026062  21.0650826
  58.0672150 172.2506256  22.4213047  57.4820786 171.9563751  23.2925854
  57.6468773 171.2979889  21.2996159  56.5720978 171.2976837  21.1181145
  58.0869102 171.6165009  20.3546181  58.2513123 169.5983734  21.6465073
  57.3314552 168.9683228  20.9104443  59.6189537 172.2419891  22.6883087
  60.0706329 171.7430267  23.7595081  60.4706535 172.7978973  21.7947197
  60.1452141 173.1365814  20.9005814  61.8586159 172.9589386  22.1178989
  62.2919388 171.9600677  22.1687012  62.6136169 173.6998901  20.9953384
  62.0664940 174.5940704  20.6966667  63.6058083 173.8350677  21.4259033
  62.6182404 172.7975159  19.6984119  63.3499413 172.0007477  19.8320694
  61.6471901 172.3225708  19.5584621  62.7467690 173.6535797  18.4518204
  63.3295937 174.7623291  18.5361443  62.3390884 173.1368713  17.4055939
  62.1401024 173.6311340  23.4977131  63.0585632 173.1675720  24.2375088
  61.5033798 174.7755280  23.8683300  60.7326202 175.1231995  23.3159199
  61.8136482 175.5238190  25.1066208  62.9020767 175.5470886  25.1602707
  61.1944199 176.9669800  25.0244446  60.1490364 176.9182739  24.7196388
  61.1701584 177.4558716  25.9983559  61.9518280 177.8838348  24.0162106
  62.0312386 177.3360596  23.0772076  61.1418190 179.1345673  23.7470455
  61.1866951 179.8160248  24.5965786  61.6471405 179.6759491  22.9472599
  60.1055374 178.9200897  23.4858646  63.3529968 178.2191925  24.5231266
  63.8814774 177.2825317  24.7005119  63.9700470 178.8313293  23.8653774
  63.1966743 178.7987823  25.4329300  61.4080544 174.8109436  26.4041843
  62.1525955 174.9672089  27.4186897  60.3375473 173.9843140  26.3362827
  59.8783722 173.9931641  25.4367371  59.9340057 172.9908752  27.2970867
  59.8009224 173.4497375  28.2768002  58.6192551 172.4521790  26.7976608
  57.9628181 173.2981415  26.5938778  58.7017555 171.9318390  25.8434372
  57.9533882 171.4938812  27.8289909  57.5188370 171.8832703  28.9818020
  57.6750221 170.3877716  27.3448219  60.9742012 171.8683929  27.4833508
  61.2529068 171.5969086  28.6063194  61.5632477 171.3484344  26.3597641
  61.1951218 171.6564941  25.4711208  62.7611465 170.5075989  26.3283882
  62.4932137 169.6393738  26.9304867  63.1144066 170.0368805  24.9265690
  63.2302246 170.8828278  24.2490349  64.5050888 169.3309021  25.0459747
  64.3989716 168.7615967  25.9694099  64.6883698 168.6604156  24.2063580
  65.2647781 170.1094971  25.1148319  62.0294685 169.0802155  24.3446751
  62.2871361 168.0653076  24.6474171  61.0831184 169.2713013  24.8506432
  61.8958473 169.0841522  22.7693596  62.7633553 168.7168274  22.2210922
  61.0953598 168.4176788  22.4482098  61.6705818 170.1019897  22.4510098
  63.9408722 171.2149506  27.0226727  64.5437698 170.6576080  27.9349003
  64.3203125 172.4341431  26.6292648  63.8204994 172.8250732  25.8434734
  65.5483932 173.1606445  27.1085777  66.2926102 172.3648682  27.1398029
  66.0223389 174.2700653  26.1539440  65.3127518 175.0910187  26.0509853
  66.9408798 174.6773987  26.5764027  66.4283524 173.8159027  24.7392979
  67.2886276 173.1475067  24.7746887  65.5600433 173.2639008  24.3795338
  66.8220749 175.2460327  23.5320930  67.1092300 174.4282684  22.0049686
  66.2721863 173.7363892  21.9114513  67.1914062 175.2156219  21.2556782
  68.0617752 173.9023895  22.0698071  65.4771423 173.6917725  28.5473251
  66.5136185 173.8872223  29.1246891  64.3023605 173.7299347  29.1608734
  63.4997749 173.7316742  28.5477123  64.1282120 174.0044250  30.6195126
  64.9435120 174.6673431  30.9092197  62.6506805 174.5952454  30.8204288
  61.9703484 174.1406250  30.1003113  62.2908897 174.4311066  31.8361607
  62.5816879 176.1537781  30.7375450  63.5849991 176.8352051  30.6142502
  61.4247017 176.7938995  30.8894882  61.4608421 177.7990875  30.7979393
  60.5980492 176.2149353  30.9290276  64.2527847 172.6543274  31.4146500
  65.0804749 172.5249481  32.2883644  63.4155388 171.6751404  30.9934483
  62.7192078 171.9288635  30.3072605  63.2785530 170.2760162  31.5860615
  62.9906044 170.4093018  32.6288567  62.1131363 169.5458374  30.9576206
  62.1549110 169.6193390  29.8709049  62.2896881 168.5028076  31.2203083
  60.7896729 170.0073090  31.5364685  60.8152084 169.9170380  32.6224251
  60.7894516 171.0775146  31.3296585  59.6089020 169.2525787  31.0400162
  59.4136581 169.3471985  29.9718266  59.6605949 168.1717529  31.1713486
  58.3643341 169.8227692  31.7987862  58.1803207 169.2762756  32.7237663
  58.6191483 170.8469391  32.0712852  57.1753616 169.8326721  30.8902225
  56.9399376 168.8687897  30.7015152  56.3607407 170.2971497  31.2654037
  57.3811760 170.3463593  30.0453129  64.5639877 169.3994751  31.5222454
  64.6947403 168.5925446  32.4221115  65.4827805 169.5318451  30.6254578
  65.2303314 170.2270203  29.9376431  66.7148895 168.6976166  30.4184456
  66.4975281 167.6699524  30.7096195  67.1649017 168.7686920  28.9356117
  66.3032990 168.3720398  28.3985767  67.4248734 169.8083801  28.7366753
  68.6173019 167.7978210  28.5609665  68.8281174 168.2064972  27.3066006
  67.9016571 169.1704254  31.2697964  68.2671967 170.3141174  31.2510662
  68.4982681 168.2504120  32.0603561  68.2754440 167.2662506  32.1038589
  69.6078873 168.6567078  32.9499741  70.0037460 169.5824738  32.5324097
  69.2075500 169.0065613  34.3959694  70.0802307 169.4027252  34.9151840
  68.1407547 170.1113739  34.5899887  67.2855377 169.9665222  33.9299049
  67.8613815 170.0668030  35.6426353  68.5684662 171.0756989  34.3156967
  68.7170181 167.8894958  35.0824089  67.7593689 167.8488464  35.0289383
  70.7856140 167.6900787  32.9385681  71.8376999 167.9724274  32.3323059
  70.7051849 166.5316620  33.5857124  69.8829346 166.3342285  34.1380081
  71.7078094 165.4507904  33.4008713  72.7269058 165.8372650  33.3871117
  71.5829849 164.5370178  34.6189346  71.8362274 165.1073303  35.5126381
  70.5621719 164.1706543  34.7276688  72.5169373 163.4526062  34.5557289
  72.3313446 162.8928528  35.3132477  71.4760590 164.6032867  32.0567856
  70.3673096 164.6007996  31.5295677  72.5095215 163.8723297  31.6215820
  73.3435287 163.9012451  32.1905251  72.5813141 162.9241180  30.4594479
  71.5290375 162.7151031  30.2667866  73.1975632 163.5858459  29.1366367
  74.2328033 163.7855377  29.4132195  73.1664047 162.9046783  28.2862606
  72.4720078 164.8913116  28.7050877  72.3588715 165.5732117  29.5478973
  73.3629913 165.5701752  27.6690178  73.6697083 164.9909363  26.7980881
  72.8619156 166.4606018  27.2893410  74.2914810 165.7752380  28.2018929
  71.1185684 164.5440216  27.9810944  70.4674301 164.0278015  28.6865311
  70.6671143 165.4539337  27.5856705  71.3409042 163.9321442  27.1068764
  73.2601471 161.5826416  30.7289181  74.4768524 161.4507599  30.8226910
  72.3576126 160.5882568  30.9528141  71.3736725 160.8054962  30.8837471
  72.8476944 159.2647400  31.4240055  73.7837296 159.3579712  31.9746952
  71.7513885 158.7727661  32.3688011  70.8388367 158.6945190  31.7778435
  72.0134964 157.7316742  32.5572701  71.7278595 159.7831573  33.8639526
  70.5679779 159.3686523  34.3814201  73.0570908 158.2114258  30.2899761
  72.8162689 158.5038910  29.0779781  73.5270309 156.9886780  30.6506710
  73.5001831 156.7262421  31.6256104  73.4508972 155.8380280  29.7393742
  73.7047958 156.1949921  28.7412720  74.5571213 154.8757629  30.1347485
  75.5387802 155.2754669  29.8804111  74.5982513 154.7764740  31.2194366
  74.4348373 153.2385559  29.2793922  75.5227737 152.6642151  29.8003845
  72.0307999 155.1969757  29.7863693  71.4554291 154.9360809  30.8251801
  71.5555420 154.8489227  28.5738621  72.1634521 154.9886017  27.7794857
  70.2602463 154.2799988  28.3379688  69.4706268 154.8664093  28.8077736
  69.9662323 154.1040192  26.8323936  69.8274307 155.0888519  26.3863888
  70.8007965 153.5718994  26.3758163  68.6244736 153.4138336  26.5108662
  68.8302765 152.4317322  26.9365807  67.7748642 153.9453888  26.9394760
  68.4126434 153.2156219  24.9706783  69.3738556 152.9543915  24.5280571
  67.6968002 152.4088287  24.8133602  67.8617172 154.4582062  24.2617264
  66.8646469 154.6337738  24.6656189  68.4429550 155.3609772  24.4495144
  67.8036880 154.2404022  22.7713146  67.6476822 153.2810669  22.4966469
  67.0745926 154.7572479  22.3007908  68.6498489 154.6109314  22.3628807
  70.1137695 152.9207306  29.0783253  69.0985031 152.7536011  29.8246708
  71.1879120 152.1371613  28.9972744  72.0163803 152.4157104  28.4911556
  71.1551895 150.7723999  29.6045017  70.1788025 150.3979340  29.2970181
  72.2048111 149.8969269  28.9602432  72.1567154 150.0225525  27.8785744
  73.2108917 150.2105255  29.2387466  72.0172806 148.4289856  29.3333969
  72.3115616 148.2437592  30.3664455  70.9739380 148.1379547  29.2116508
  72.8575821 147.4873657  28.4202290  72.9183884 147.7055817  27.1822109
  73.3799133 146.4178162  28.9009953  73.7937012 145.6826935  28.3456078
  73.2920456 146.2248230  29.8884850  71.1301498 150.7274475  31.1498184
  70.3404236 150.0214996  31.7419682  71.8012695 151.6523743  31.8352222
  72.5076752 152.1289673  31.2930622  71.6982803 151.8036499  33.3188820
  71.6633530 150.8708191  33.8816566  72.9860992 152.5324860  33.7258987
  72.9289703 153.5845032  33.4464836  73.1444244 152.5428314  34.8042870
  74.4846268 151.8846130  32.9939308  74.9655457 151.3130798  34.1016121
  70.4773254 152.5998535  33.7881470  69.8446732 152.4398956  34.8511963
  70.0789871 153.4727783  32.8459702  70.6997910 153.5426178  32.0523605
  69.2468491 154.6888885  33.0771103  69.3133316 155.1897125  32.1112671
  67.7019730 154.3984222  33.2482567  67.4869461 153.9504700  34.2184105
  67.1688766 155.3418274  33.1303673  67.2258682 153.5131226  32.1397705
  67.3654251 154.0231781  31.1866302  67.7287140 152.5531006  32.2563934
  65.7270050 153.1573029  32.2740326  64.9785385 153.3384094  33.2382317
  65.2514191 152.3591461  31.3822651  64.3100510 151.9990845  31.4476318
  65.8486252 152.0844269  30.6154633  69.7472305 155.6378937  34.1934166
  69.5664673 156.8358154  33.9273338  70.2719498 155.2430725  35.2996140
  70.1081619 154.2704926  35.5172729  70.6032257 156.0760956  36.4416389
  69.9591522 156.9527435  36.3726082  70.1895905 155.3691254  37.7600288
  70.2821655 156.1472321  38.5176964  69.1681061 154.9993439  37.6710167
  71.0658417 154.1977081  38.2677536  71.7077026 153.5983734  37.4253464
  71.0186539 153.8104706  39.4588203  72.0601883 156.4776306  36.5583916
  72.3666916 157.3689117  37.3917351  72.9456482 156.0156555  35.6482620
  72.5862274 155.2493591  35.0971680  74.3459930 156.4048309  35.6382332
  74.5521240 156.6807861  36.6723824  75.2477951 155.2261200  35.2445488
  74.9108582 154.9523315  34.2447395  76.7362900 155.3898163  35.1298180
  77.1872177 155.3309326  36.1204224  77.1455460 154.5923004  34.5096741
  76.9670563 156.3230133  34.6160240  75.0725784 154.0534515  36.1158714
  74.9396439 154.3249207  37.0270424  74.5752335 157.5888062  34.6706047
  74.3815842 157.4777222  33.4734612  74.9827957 158.7677002  35.1820030
  74.9951096 158.8695831  36.1867790  75.3183899 159.9975281  34.4923172
  74.4778900 160.2531738  33.8470993  75.4466095 161.1044006  35.5598145
  74.5889130 161.1573334  36.2303772  76.3341293 160.7937164  36.1110802
  75.8600769 162.4918671  34.9320374  76.8688431 162.4118042  34.5269547
  75.1577911 162.7244568  34.1315460  76.0219269 163.6536865  35.9936409
  75.7655716 163.4889069  37.1847610  76.5676117 164.7730560  35.6704483
  76.5748825 159.9036255  33.6523285  77.6046448 159.4477844  34.1249199
  76.4635773 160.3679504  32.4046173  75.5788269 160.7999725  32.1795006
  77.6064529 160.1977997  31.4420795  78.4310608 159.6795959  31.9315605
  77.1688385 159.4665375  30.1439304  76.0792236 159.4377747  30.1391582
  77.6362228 160.0184326  28.8045464  78.6397018 160.4240875  28.9332981
  77.6963654 159.2979431  27.9888325  76.9768753 160.8189850  28.4691658
  77.7266846 158.0196381  30.1837120  77.3759689 157.5157013  29.2830753
  78.8079987 158.0586090  30.0520039  77.4761200 157.1758118  31.4704037
  76.4554443 157.1778870  31.8528919  77.9061661 156.1838531  31.3319530
  78.1235962 157.6889191  32.1814537  78.0806885 161.6502533  31.1924953
  79.3175964 161.7814636  31.0694485  77.1741180 162.5715942  30.9419937
  76.1928940 162.3329010  30.9239807  77.3923721 164.0392151  30.7241840
  78.1761932 164.3369446  31.4206600  78.0002975 164.3016968  29.3372078
  78.8182755 163.6431732  29.0450039  77.0150528 164.2156982  28.1877384
  76.3215485 165.0514832  28.2805290  77.4745483 164.2025604  27.1994095
  76.2996140 163.4032288  28.3147907  78.5151596 165.6321411  29.3315716
  79.4669724 165.5854034  29.2154617  76.1430740 164.8992310  31.0752144
  75.1667404 164.3846588  31.6683083  76.2202530 166.2639313  30.9931755
  76.9440384 166.6531677  30.4060345  75.2603912 167.2421722  31.5866146
  74.2769775 166.7902527  31.7161045  75.7641754 167.6470184  32.9673538
  75.7294312 166.7857513  33.6345139  77.1665039 168.1975403  33.1184654
  77.3953323 168.9856262  32.4010658  77.3049240 168.5631561  34.1359444
  77.9209442 167.4399414  32.9064064  74.9309311 168.7010803  33.4191971
  75.2558594 168.9428406  34.2895851  75.1219940 168.4270020  30.6129551
  76.0632553 168.7421112  29.8832397  73.9496307 169.0646210  30.6301899
  73.2672577 168.6115265  31.2210922  73.5662079 170.1815643  29.7821026
  73.3483887 169.7840576  28.7908211  72.2246628 170.7039490  30.3176079
  71.3946762 170.0070343  30.2012978  72.2591858 170.8033600  31.4025154
  71.8936005 171.9832764  29.5605469  72.5914383 172.7561646  29.8826714
  71.9233551 171.9054565  28.4737358  70.5047760 172.5136108  29.8503189
  69.7450562 171.7898560  29.5551682  70.4760590 172.5569611  30.9390774
  70.2355042 173.8657990  29.1723347  71.1713943 174.4199371  29.2440434
  69.8558807 173.7528381  28.1568413  69.1833649 174.6018829  29.9210606
  69.2382812 174.4636230  30.9200439  69.1324539 175.5915833  29.7261295
  68.2602921 174.2381287  29.7320690  74.7548065 171.2291107  29.7376633
  75.0684128 171.7067413  28.6403599  75.4542236 171.5472260  30.8091373
  75.0536346 171.1663971  31.6544762  76.3614731 172.7209015  30.8457413
  75.8909607 173.5045166  30.2518921  76.5188065 173.2261353  32.3167305
  76.6581802 172.3641205  32.9691010  77.4033356 173.8606720  32.3722649
  75.4097366 174.1074524  32.8390121  74.7841187 174.8776550  32.0566940
  74.9254913 173.8759766  33.9926872  74.3001556 174.5660858  34.3836098
  75.2970734 173.1180573  34.5472832  77.7246246 172.4591217  30.1659374
  78.4418106 173.3695831  29.8195381  77.9530411 171.2390594  29.7463188
  77.2931442 170.4902344  29.9009151  79.1666870 170.8864899  28.9351807
  79.8600845 171.7186432  29.0570278  79.6966629 169.5613098  29.4619694
  78.9651031 168.7552338  29.4057903  80.5504379 169.2871399  28.8422966
  80.1234283 169.5746002  30.8683510  79.2172318 169.5156708  31.4712105
  80.6773911 168.6661224  31.1047745  80.9501572 170.8046875  31.3413792
  81.8587418 171.2294922  30.6031895  80.7834778 171.3016205  32.5104523
  78.8477325 170.6875916  27.4661465  79.7454453 170.4671631  26.6393013
  77.5763397 170.8298950  27.0701790  76.8845673 171.1104736  27.7504864
  77.1496124 170.8795471  25.6178226  77.4447556 169.9512634  25.1286392
  75.5672760 171.0225220  25.5008373  75.1348953 171.8462982  26.0687771
  75.2428360 171.2530823  24.0432072  75.4899063 170.3593140  23.4702797
  74.1657562 171.3044891  23.8839989  75.7653732 172.1353302  23.6734962
  74.7860641 169.7615051  26.0306549  75.1132736 168.9068756  25.4385128
  75.0500946 169.6184540  27.0784740  73.2909164 169.9035950  25.9354591
  72.9912567 169.7357178  24.9009914  72.7425385 169.1884308  26.5485897
  73.0553589 170.9037933  26.2990513  77.8817978 172.0250244  24.9099464
  77.8820953 173.1921234  25.4021816  78.5261002 171.7533722  23.7672367
  78.3614502 170.8241272  23.4073620  79.1764221 172.7702789  22.8979473
  78.5627213 173.6672821  22.9807930  80.5818405 173.1122589  23.3160858
  80.7503433 174.1883392  23.2741776  80.6363373 172.9481964  24.3922901
  81.6892700 172.3265686  22.6405525  81.9769440 171.0304871  23.1106014
  81.4266891 170.5745697  23.9203987  82.9147644 170.2012787  22.4624424
  83.0854645 169.2173004  22.8736134  83.5931015 170.7727814  21.3816376
  84.3974228 170.2665253  20.8686371  83.3894501 172.0818329  20.9012394
  84.0864334 172.5416412  20.2162571  82.4194260 172.8812714  21.5811729
  82.2969666 173.9000092  21.2441673  78.9949112 172.4672241  21.3808060
  79.0894470 171.2950439  21.0648918  78.7420654 173.4665985  20.5622330
  78.5191498 174.3630219  20.9707127  78.6432419 173.3191681  19.0958900
  78.1436539 172.3956299  18.8033199  77.7782059 174.4351807  18.5569420
  78.1096115 175.4544067  18.7554951  77.8451767 174.4635010  17.4693699
  76.4307327 174.3490295  18.8428783  76.1767044 175.2187347  19.1601639
  80.0765915 173.3863678  18.4110489  80.6036301 174.4417725  18.0864735
  80.6871109 172.2363434  18.2047272  80.3432846 171.4033203  18.6607342
  81.8761063 172.0934296  17.4623566  82.5288162 172.9106598  17.7692890
  82.5660172 170.7876892  17.9232826  82.6959457 170.8408661  19.0042038
  81.8327255 169.9960175  17.7695580  83.9121246 170.4041290  17.2681980
  83.7293625 170.2292786  16.2079506  84.9784698 171.4621887  17.5732689
  85.3132553 171.4714661  18.6105404  85.8651047 171.2903290  16.9630032
  84.6933212 172.4832458  17.3198910  84.4237976 169.0271606  17.7903442
  83.6414032 168.2984924  17.5782127  85.3098145 168.6894379  17.2527428
  84.5186768 169.0547638  18.8758564  81.6342087 172.1424561  15.9113989
  82.4936447 172.6448364  15.1589804  80.3797302 171.7612152  15.5050678
  79.7899857 171.4861145  16.2774849  79.7939377 171.8045807  14.1510639
  80.5758820 171.8453979  13.3927803  78.9327469 170.5066528  13.9440069
  79.6456299 169.6826630  13.9747839  78.1556320 170.4796448  14.7078609
  78.3671494 170.5361786  12.6566601  78.2351837 169.7135773  12.1796808
  78.8859711 172.9772034  13.8845758  78.1868439 173.4476013  14.7867661
  78.8954697 173.5220642  12.6630793  79.5456619 173.1008453  12.0150700
  77.9712830 174.4936218  12.1392984  77.9475403 175.3005066  12.8717442
  78.4716492 175.0709686  10.8144569  78.8671799 174.2528381  10.2125292
  77.5658340 175.3239594  10.2634678  79.4530792 176.2419891  10.9192228
  80.3467560 175.8906555  11.4349775  79.7594223 176.5625458   9.4542131
  78.8388138 176.8706055   8.9585590  80.4799271 177.3790741   9.4067392
  80.0812454 175.6430511   8.9652691  78.7835922 177.4655151  11.5550451
  78.9238892 177.5223999  12.6344805  79.3064346 178.3054047  11.0975313
  77.7313614 177.4678040  11.2706070  76.5114365 174.0619049  12.0140600
  75.5609665 174.9039612  11.8691463  76.2476501 172.7505493  12.2321625
  77.0689774 172.1708374  12.3293715  74.9271469 172.1467743  12.5417614
  74.1519165 172.5833893  11.9120989  74.9701462 170.6581726  12.1914845
  75.7234497 170.0944366  12.7417946  74.0148544 170.1578827  12.3503256
  75.2946472 170.5809021  10.3955832  75.2648849 169.2471771  10.3235073
  74.4775772 172.2602692  14.0422506  73.3837662 171.8983612  14.3534479
  75.2769928 172.8043060  14.9682293  76.1155853 173.2487335  14.6227484
  75.0601501 172.9368439  16.3932133  75.4157257 173.9002686  16.7585678
  73.9810791 172.8891144  16.5396252  75.8479004 171.8491821  17.2193947
  76.9248123 171.4060974  16.8357563  75.3025513 171.4038696  18.3667526
  74.0996704 171.8323364  19.0619659  73.3109512 171.5350647  18.3708401
  74.0666122 172.9163666  19.1709595  74.0303650 171.0089417  20.3392258
  73.5062027 170.0830688  20.1023483  73.5956802 171.5833893  21.1572533
  75.5264969 170.6796875  20.6009064  75.6781845 169.8149872  21.2469635
  76.0479507 171.5033722  21.0884686  76.0158997 170.4113922  19.1643639
  77.0938034 170.5489655  19.2498055  75.8299789 168.9654388  18.7014294
  76.3820648 168.0587006  19.2758083  75.1996384 168.7314911  17.5523243
  74.8386154 169.5453491  17.0754509  74.8792572 167.4412994  16.9490623
  75.7423096 166.8168182  17.1798401  73.6583252 166.9182892  17.6673088
  73.7161636 167.2381897  18.7077026  72.7909241 167.3448944  17.1635952
  73.4770050 165.3689423  17.8503475  73.3761520 164.7575073  16.9536476
  74.3669281 165.0288391  18.3799381  72.0952606 164.9932098  18.9591999
  70.7582626 165.2704773  17.7129917  71.0794449 164.6809998  16.8542461
  69.8365326 164.7604218  17.9929256  70.5829086 166.3358917  17.5637379
  74.7753983 167.5460663  15.4133339  74.2699432 168.5024872  14.8642530
  75.2812195 166.4874573  14.7656727  75.8929749 165.9083862  15.3229427
  74.9317551 166.1064758  13.4024324  73.8991394 166.3710632  13.1748791
  75.8300552 166.9342651  12.4205179  76.8140030 166.5553436  12.1441975
  75.2967911 167.1083527  11.4859467  75.9827881 167.9123230  12.8767977
  75.0291595 164.5548401  13.2346754  75.2946243 163.8140411  14.1944265
  74.8330994 164.1407623  11.9864006  74.8330231 164.8582611  11.2755585
  74.9298248 162.7292938  11.5951366  74.8078842 162.0552826  12.4430408
  73.7282944 162.4405060  10.5685015  73.6555939 163.2685394   9.8633938
  73.8515778 161.5207367   9.9967222  72.8076630 162.3174896  11.1389446
  76.2915955 162.5454407  10.8553991  76.6427841 163.3697357  10.0414133
  76.9341660 161.4118652  11.1876392  76.7332382 160.8865662  12.0265636
  78.2534332 161.1150055  10.6005621  78.3035202 161.6035919   9.6274881
  79.4353180 161.6535339  11.3962240  79.4459610 160.9471588  12.2262917
  80.3661804 161.5234528  10.8442430  79.3477402 163.0250397  11.9233885
  79.7989120 164.1441040  11.1131735  80.0917053 164.1454773  10.0736198
  79.8747711 165.3931427  11.7133198  80.3613586 166.1557312  11.1233196
  79.6036148 165.6088257  13.0973063  79.5891647 166.8261108  13.5769882
  79.6634827 167.4765625  12.8748627  79.1296539 164.5061798  13.9071741
  78.9567947 164.6514282  14.9633131  79.0193710 163.2349701  13.2794657
  78.6712570 162.3910828  13.8565979  78.2907944 159.5300140  10.4965601
  77.5592270 158.8484955  11.1864529  79.0583496 158.9855804   9.5880280
  79.5304871 159.6526642   8.9945774  79.0602646 157.5327759   9.2081232
  78.4319992 156.8939209   9.8288021  78.4211197 157.2331848   7.7832527
  78.6350403 156.2108612   7.4715409  76.8978348 157.4144745   7.7342834
  76.6546249 158.4429169   8.0011950  76.3794250 157.0525360   6.8463893
  76.4414673 156.7737579   8.4888115  78.9497833 158.1166687   6.6352921
  80.0379486 158.0535431   6.6375027  78.5329971 157.8191681   5.6730680
  78.6427689 159.1428680   6.8371663  80.4416199 156.8304443   9.2633352
  81.4306030 157.4879913   8.9172678  80.5370560 155.5761719   9.6794510
  79.6821899 155.1199188   9.9642973  81.7082596 154.6507874   9.6013670
  82.6295547 155.2133026   9.7527370  81.6019897 153.6365051  10.7333746
  82.5887375 153.1886597  10.8511324  81.3659286 154.0866699  11.6975985
  80.6155777 152.4831848  10.4699230  79.9345474 152.5115662   9.4796314
  80.6532593 151.4411926  11.2302084  80.3759460 150.5284271  10.8984432
  81.1642609 151.4857025  12.1002607  81.9711914 154.0755615   8.1860266
  81.0631409 154.2041168   7.3605862  83.0498734 153.2341156   7.9391685
  84.2430954 153.0048523   8.7255764  84.1203537 152.0643311   9.2626419
  84.4442749 153.7858276   9.4588671  85.3451538 152.8205261   7.7055407
  86.1815414 152.2959442   8.1674585  85.6351700 153.7878571   7.2953639
  84.5998611 151.9408875   6.6798620  84.5989990 150.9194489   7.0603433
  85.0085831 151.8629608   5.6724005  83.2393188 152.5821381   6.6169372
  83.2759857 153.4481049   5.9559841  82.1441116 151.5521088   6.1514754
  81.8827896 151.3092041   4.9792609  81.4342957 151.0199585   7.1266623
  81.8565216 151.2748260   8.0080624  80.4447098 149.9655762   7.1052709
  80.6711273 149.2035980   6.3594699  80.5805359 149.1908569   8.4353533
  80.1914749 149.8153076   9.2395878  80.0065155 148.2714691   8.3199186
  82.0098724 148.8869781   8.8513670  82.8018570 149.6838684   9.6922779
  83.8945618 148.9591522   9.9409924  84.7156448 149.3202515  10.5425091
  83.8693237 147.7899323   9.2993536  84.6805344 147.1882935   9.3068180
  82.6346283 147.6644287   8.7129278  82.2813950 146.8250885   8.1322994
  79.0658646 150.6133881   6.9859772  78.1085281 149.9463806   7.3890915
  78.8993073 151.8388062   6.5160508  79.6989670 152.4114990   6.2865725
  77.6070328 152.5726166   6.1883616  77.9457245 153.5374451   5.8108616
  77.0999451 152.0856934   5.3553767  76.5898132 152.7757416   7.2871594
  75.4842300 153.2484283   7.0176921  76.8961258 152.4421387   8.5270376
  77.8450241 152.1479340   8.7090635  76.0848465 152.7206726   9.7039690
  75.0503693 152.4274902   9.5250988  76.6446381 151.8072510  10.8451595
  76.8306351 150.8181915  10.4265089  77.6465454 152.1210632  11.1380844
  75.6967163 151.6947021  12.0547628  74.9408188 150.5348053  12.2099781
  75.0920258 149.6977386  11.5445137  73.9819717 150.4127350  13.2710342
  73.4658432 149.4907074  13.4944086  73.9244537 151.4072876  14.2533550
  73.0914764 151.2906952  15.2911062  72.7171707 150.4066772  15.2899446
  74.6843567 152.5671082  14.0336504  74.5832672 153.3916168  14.7238340
  75.5864716 152.7422638  12.9763098  76.2018967 153.6199341  12.8444948
  76.1444092 154.1984558  10.1917868  77.2616882 154.8095856  10.1974344
  75.0370712 154.7743988  10.6488266  74.1926880 154.2216492  10.6884737
  74.8715057 156.1603394  10.9465103  75.6288986 156.7651825  10.4478922
  73.6289215 156.7725525  10.1799059  72.7535324 156.4649048  10.7518778
  73.5865402 158.2706604  10.3744287  74.3924484 158.7926483   9.8585405
  72.6693878 158.6213379   9.9011889  73.5006943 158.4441071  11.4471092
  73.5801926 156.3691406   8.6876984  74.0814667 157.0748138   8.0252390
  74.1365814 155.4613800   8.4542255  72.1348801 156.2296295   8.2391376
  71.7172928 157.2293549   8.3585997  72.0807724 155.8227539   7.2293754
  71.5298920 155.5374756   8.8248205  74.8130722 156.4535980  12.4590759
  73.9540100 155.9506378  13.1455250  75.8019104 157.2353973  12.9195595
  76.5057602 157.6115570  12.3005352  75.9705505 157.6313019  14.3179216
  75.2276154 157.1351318  14.9423857  77.4107361 157.3508759  14.8199625
  78.0496140 157.7446747  14.0294781  77.5985641 157.7788391  15.8046846
  77.6649704 155.8947906  15.0642033  77.2135239 155.1475830  16.1610241
  77.6613464 153.9010162  15.9446192  77.5262070 153.0697632  16.6207485
  78.4569550 153.8616791  14.8301439  78.9503937 153.0610657  14.4618673
  78.3910522 155.1039124  14.2301531  78.9024429 155.4382629  13.3395948
  75.6746445 159.0828247  14.4253006  76.3087311 159.8912201  13.7740431
  74.6060715 159.4069366  15.1393242  73.9873657 158.7639618  15.6125078
  74.3727951 160.7354431  15.6222363  74.8218002 161.4868927  14.9727478
  72.8565369 161.0518188  15.7378273  72.3560486 160.1958618  16.1905422
  72.6730347 161.9122162  16.3813782  72.2111206 161.3574066  14.4110041
  72.7201462 162.2348022  14.0120459  72.3686371 160.5402832  13.7070198
  70.7276840 161.6223755  14.5265656  70.0250549 160.8480988  15.2353382
  70.2371826 162.5836792  13.8926878  75.1363907 160.9849701  16.9586563
  74.7392120 160.3511353  17.9163399  76.1247406 161.8449402  17.0004635
  76.2467346 162.4754028  16.2208900  76.9229126 162.0700989  18.2349739
  76.5867157 161.3557587  18.9865074  78.4643021 161.9110718  17.9904423
  79.1156158 162.2288666  18.8046284  78.7468262 160.4842682  17.7019176
  78.1574173 160.0043182  16.9206734  79.7748032 160.3726349  17.3571053
  78.6348801 159.9316864  18.6347771  78.9023590 162.5335236  16.8162003
  79.7625580 162.1471710  16.6362247  76.7677917 163.4735870  18.7386360
  76.8622513 164.4501953  17.9735050  76.5631485 163.6746216  20.0294380
  76.4037628 162.8315125  20.5622292  76.5863266 164.9176331  20.7757797
  76.1388245 165.7500916  20.2327728  75.6241455 164.7205963  21.9228859
  74.6045456 164.5550690  21.5748882  75.9088287 163.8405914  22.4996376
  75.6019440 165.9989471  22.8724136  76.6137466 166.4004059  22.9289036
  74.6959457 167.1433563  22.3826084  73.7217255 166.7368774  22.1110153
  74.4873657 167.9320984  23.1054325  75.0718765 167.5102234  21.4275208
  75.1876602 165.6569061  24.3246422  75.7098389 164.7608948  24.6602039
  75.5014877 166.4898834  24.9537468  74.1407013 165.3632050  24.4001808
  78.0138931 165.2114868  21.2368546  78.7533646 164.3465576  21.7497864
  78.3880844 166.4381104  21.0761719  77.8947601 166.9801178  20.3812218
  79.7189026 166.9907990  21.5291214  80.3172760 166.0996704  21.7187462
  80.4624176 167.8243256  20.4616032  81.3672104 168.2348785  20.9098148
  80.9426422 166.9730988  19.2838631  80.0664444 166.4892273  18.8522873
  81.3334503 167.6923676  18.5641289  81.6714096 166.2474670  19.6450462
  79.6369476 168.8202820  19.8977852  78.9997787 169.1868744  20.5152225
  79.5638580 167.6744843  22.8972378  78.6579819 168.5254974  23.1601334
  80.4360962 167.2610626  23.7760906  81.1031265 166.5760651  23.4506073
  80.6775131 167.8878937  25.1270943  80.3758316 168.9345245  25.1675053
  79.9039459 167.1012878  26.2343121  80.1842957 167.5352478  27.1940975
  78.3932724 167.1932526  26.0316124  78.1622009 166.7097778  25.0824299
  77.8690109 166.6512756  26.8187008  78.0228424 168.2176819  26.0694160
  80.3344421 165.6251526  26.3074226  81.4169464 165.4991302  26.3273811
  79.9839706 165.1797485  27.2384892  80.0148621 165.0338898  25.4493027
  82.1370010 167.9530334  25.3629704  82.9112701 167.0570984  24.9430981
  82.6104965 168.9763641  26.0948486  81.9885635 169.7338257  26.3388424
  84.1054230 168.9849701  26.5216198  84.6427765 168.6748962  25.6254063
  84.5780640 170.4051514  26.9534950  84.2450485 170.6588135  27.9599018
  85.6622009 170.3996124  27.0662289  84.2733994 171.5126648  25.9937038
  85.0702820 171.7479248  24.8505077  85.8603973 171.0446625  24.6324387
  84.8566360 172.9309692  24.0768108  85.4477768 173.1685181  23.2047310
  83.8636780 173.8341370  24.4698353  83.7055588 175.0365906  23.8199768
  83.9536896 174.9344482  22.8982391  83.0917282 173.5946503  25.5856762
  82.3606720 174.3524933  25.8257656  83.2780075 172.4290924  26.3465309
  82.7574768 172.2640533  27.2783127  84.4929504 167.9615631  27.5761032
  85.6441422 167.4663086  27.6292076  83.5399933 167.6584625  28.4729271
  82.6133347 168.0572968  28.4246368  83.6979218 166.7762146  29.6206970
  84.6581802 166.2635193  29.5646648  83.7470551 167.7146759  30.8525620
  84.4960327 168.4890289  30.6867199  82.7792587 168.2020111  30.9707584
  84.0876770 167.1231689  32.2015038  83.3574677 166.3552399  32.4568405
  85.0266800 166.6050262  32.0067940  84.1874466 168.2592468  33.2535019
  84.8612213 169.0426636  32.9065323  83.2322998 168.7724152  33.3650818
  84.6314621 167.6643066  34.6380272  84.4036331 168.3623047  35.4436264
  83.9146957 166.8566132  34.7862511  86.0384445 167.2604218  34.7748566
  86.7129135 167.7268219  34.1852303  86.4335556 167.4303131  35.6887131
  86.2387238 166.3088074  34.5020790  82.6629639 165.6534119  29.6882591
  81.4776688 165.7842865  29.4365273  83.0949402 164.5494690  30.1912079
  84.0812759 164.5108337  30.4051018  82.3310318 163.3690186  30.5937481
  81.2907028 163.5844269  30.8375187  82.1812286 162.4835815  29.3217831
  83.1769333 162.1386719  29.0429916  81.5157776 161.6454010  29.5285149
  81.8190765 163.1699219  28.5563583  82.8882675 162.6991272  31.8652077
  84.0237808 162.8764343  32.1942177  82.0090485 161.9067078  32.4932556
  81.1131973 161.7540131  32.0525360  82.2096481 161.4525299  33.8600998
  83.1472473 161.9632263  34.0796623  81.0755463 161.9604034  34.7128983
  80.1117935 161.6500397  34.3092117  81.1982651 161.7290802  35.7709770
  80.9090881 163.7752228  34.5064430  80.1156921 163.8204803  33.4324837
  82.5015640 159.9431610  34.0404549  83.6670151 159.5650940  34.2570992
  81.5139236 159.0106201  34.0624657  80.6019211 159.3921509  33.8556213
  81.6167374 157.5457916  34.2701492  82.4634857 157.3520813  34.9286194
  80.2842331 157.0160522  34.9503860  79.4149399 157.3868408  34.4073029
  80.2546692 155.9294128  34.8701324  80.1931610 157.5230103  36.3310814
  81.1156998 157.2157898  37.1155930  79.1825638 158.2291260  36.6690407
  79.0608978 158.4737549  37.6413879  78.5528259 158.5165710  35.9335747
  81.8729935 156.7726440  32.9692993  81.1533279 155.7519073  32.6728973
  82.9025040 157.1438141  32.2211304  83.3791428 157.9771423  32.5349426
  83.3263245 156.5173645  30.9506721  82.6206512 155.7375641  30.6642456
  83.3279037 157.5595245  29.8085136  84.0242691 158.3656769  30.0393543
  83.6150284 157.0830994  28.8711357  81.9763031 158.1267548  29.4178085
  81.5815430 158.6628723  30.2808590  82.0243073 159.1004028  28.2508354
  82.2158737 158.5866547  27.3087730  81.0235291 159.5030060  28.0944576
  82.7843399 159.8740692  28.3598919  81.0118790 157.0665436  28.8429127
  80.7260132 156.3778229  29.6379185  80.1232605 157.5841370  28.4815922
  81.4288712 156.4957275  28.0132236  84.7326431 155.9447784  31.1162949
  85.6776505 156.6021729  31.5384903  84.9485626 154.6529999  30.6345387
  84.1215134 154.2030640  30.2689762  86.2549591 154.0327606  30.4868469
  86.9073334 154.6254425  31.1281338  86.2869186 152.5445251  30.9468155
  85.6145935 152.0127258  30.2735729  87.2833099 152.1511841  30.7453327
  85.8993530 152.3438416  32.4357262  85.8314209 153.2574310  33.2276039
  85.7176208 151.0821838  32.7973404  85.6270447 150.8769226  33.7821083
  85.8276749 150.3240814  32.1391106  86.7534332 154.1678314  29.0145378
  85.8815994 154.4635468  28.1408062  88.0893707 154.0936432  28.8174152
  88.5802917 153.6553955  29.5836029  88.7018127 154.1989136  27.5207043
  88.0196686 154.6458130  26.7974834  89.9004745 155.1528778  27.6380157
  90.6401749 154.6678619  28.2749557  90.3084030 155.2646942  26.6334267
  89.6356049 156.5401611  28.3489971  89.0302200 156.4593201  29.2518101
  90.8951263 157.2571564  28.6750660  91.3836899 157.5113373  27.7344227
  90.6833115 158.1545105  29.2564507  91.5915146 156.6553955  29.2590294
  88.8203049 157.3662262  27.2962360  87.8862076 156.8345490  27.1149120
  88.5311813 158.3547668  27.6530285  89.4830170 157.5018921  26.4415340
  89.0903702 152.8134308  26.9865341  89.5305099 151.9794769  27.7607555
  88.8688202 152.4817047  25.7089138  88.4162216 153.1843719  25.1418934
  89.3097839 151.1844482  25.1020527  90.2300186 150.8423004  25.5755520
  88.2598801 150.0828094  25.3653908  88.5733643 149.0635223  25.1397877
  88.0507660 150.0243683  26.4335480  87.1185837 150.3762817  24.5975018
  86.3549194 149.9022980  24.9347839  89.7438202 151.4179535  23.6694756
  89.4586868 152.4644012  23.0702724  90.4554443 150.4377747  23.1210155
  90.5909576 149.5653839  23.6116142  91.1640778 150.7040100  21.8624077
  91.5439606 149.7939148  21.3981819  90.5502319 151.2365723  21.1359901
  92.4513321 151.5180054  22.0654831  92.8055191 151.8846283  23.1917858
  93.1259537 151.9903412  20.9860630  92.7193375 151.7814178  20.0854378
  94.0053253 153.1628571  21.1157818  93.9677582 153.5928192  22.1166878
  95.4409866 152.7719879  20.7656918  95.4288635 152.2702484  19.7981148
  96.0445633 153.6696472  20.6315365  96.1571198 151.7822876  21.7681236
  95.4671326 150.9594574  21.9550896  97.0085373 151.2603302  21.3313751
  96.4773712 152.4733276  23.0529060  97.1515808 153.3260956  22.9733467
  95.5521240 152.9333649  23.3998756  96.8473129 151.5309448  24.1386776
  97.8091888 151.2232819  24.1539364  96.1395569 151.0894318  25.1655426
  94.8853760 151.4474030  25.5007744  94.4039307 152.1216583  24.9231243
  94.4137115 150.8734894  26.1850739  96.7354279 150.1850586  25.8585396
  97.5567245 149.7059479  25.5179157  96.3030090 149.7471161  26.6593647
  93.5672607 154.2587280  20.1316299  92.8329163 153.9736176  19.1780472
  93.8873596 155.5559387  20.3981419  94.7175903 156.0045319  21.5991306
  95.7766342 155.7469025  21.5869293  94.1839752 155.5960846  22.4573498
  94.6295624 157.4944305  21.6030312  95.5474625 158.0534821  21.7847137
  93.9362869 157.7950439  22.3885841  94.2185364 157.8446198  20.1656742
  95.0609436 158.1889801  19.5657825  93.4957199 158.6599579  20.1952572
  93.5559616 156.6534119  19.5181923  92.4688721 156.6974792  19.5845299
  93.9022446 156.4511566  18.0125160  94.9794083 155.9430237  17.6425018
  92.8866501 156.6027222  17.1503086  91.9673080 156.7411957  17.5449371
  93.0457916 156.5594940  15.6809196  94.1178741 156.7277069  15.5787821
  92.7582550 155.2113647  15.1019630  93.3693695 154.4505463  15.5875664
  91.7276917 154.9910431  15.3803196  92.9270782 155.1490173  13.6928301
  92.8542252 154.2575684  13.3440933  92.5306320 157.7659454  14.8942833
  91.5077438 158.3400269  15.3452559  93.1915054 158.2006683  13.7853537
  94.1413193 157.8807068  13.6605825  92.6708755 159.2767029  12.9094858
  91.9408264 159.8986206  13.4274998  93.8290405 160.0560303  12.2852631
  93.5235672 160.7684326  11.5189171  94.5207443 160.8133545  13.4209080
  94.9668579 160.1389771  14.1518736  95.2548065 161.5087128  13.0138187
  93.7660370 161.4376373  13.8992176  94.6897736 159.1065216  11.6219177
  95.5363846 159.4303894  11.3057489  91.9404831 158.6547699  11.7024202
  91.3584137 159.4644928  10.9786129  91.9944305 157.2962036  11.4548779
  92.5499573 156.6694794  12.0194216  91.2940216 156.7636719  10.2895565
  91.7271347 157.2414398   9.4107838  91.5192032 155.2937317  10.2394981
  91.1269531 154.8723450  11.1650600  90.9289780 154.8546448   9.4351788
  92.9713593 154.7943726   9.9213562  93.7485580 155.0746918  10.6323290
  92.8768539 153.7144928  10.0354824  93.4182587 155.0316925   8.4968786
  93.1607056 156.1313782   7.9065399  94.1239319 154.2190399   7.8917398
  89.7685165 157.0247955  10.3254061  89.0312805 156.7768555  11.3144941
  89.2960052 157.6138763   9.2244358  89.8811569 157.5893097   8.4015789
  87.8754578 158.0252533   8.9886084  87.8128052 158.4236298   7.9759564
  87.0486221 156.6923523   8.7599325  87.7367706 155.9042664   8.4541960
  86.6139984 156.3549652   9.7008734  85.9569473 156.7578735   7.7055302
  84.5659790 156.7677460   8.0206413  83.9419479 156.6073456   6.8374634
  82.8791046 156.5880280   6.6466842  84.8920212 156.4522705   5.8684015
  84.6265259 156.1500702   4.9419656  86.1672516 156.5660248   6.3561463
  87.0982437 156.5308228   5.8098760  87.2801361 159.0252686   9.9453955
  86.0367203 159.1182404  10.0004416  88.1671143 159.8304291  10.5552673
  89.1587067 159.7317963  10.3906088  87.6651001 160.7689667  11.5878878
  87.0483475 160.1668701  12.2551231  88.8777771 161.3492889  12.3867798
  89.4605408 160.4643707  12.6425219  89.3997345 162.1059875  11.8010454
  88.2744522 161.9917297  13.4887848  88.9227295 162.5836029  13.8774128
  86.7833481 161.9333191  11.0968761  87.1404877 162.8024445  10.2940407
  85.6391373 162.0414276  11.7528543  85.4495468 161.4241791  12.5294781
  84.6181564 163.1206055  11.4605150  84.3533020 163.1001740  10.4033756
  83.3441696 162.7046814  12.2053490  83.4695435 162.8402252  13.2795982
  82.5652466 163.4307861  11.9726353  82.8767853 161.2917175  11.9653807
  83.1676788 160.5023651  10.9001627  83.5861282 160.9044037   9.9893007
  82.6009598 159.2625580  11.0399847  82.5037384 158.6196747  10.2671070
  82.0162201 159.0853729  12.2483349  81.4233551 157.9798279  12.8707428
  81.2490845 157.0588837  12.3341894  81.0027771 158.1464386  14.2129202
  80.5900574 157.2827148  14.7129593  81.2669907 159.2888794  15.0021791
  81.0750504 159.3558960  16.0628738  81.8965073 160.3594055  14.2894325
  82.0782013 161.2580566  14.8602457  82.2393570 160.3181152  12.9400415
  85.0348129 164.5594330  11.8424129  84.3090515 165.5147858  11.4574804
  86.1237183 164.6749268  12.5543108  86.6063232 163.8066406  12.7367887
  86.6917496 165.8648376  13.1966629  86.2287216 166.7575684  12.7762432
  86.3172531 165.7817078  14.6654720  86.7448502 164.8850861  15.1141615
  86.8154907 166.5457764  15.2621870  84.8363800 165.8415375  15.0182581
  84.1504135 167.0424042  14.7933874  84.6519623 167.9282227  14.4325914
  82.8420029 167.1304016  15.1736851  82.3311920 168.0627136  14.9832363
  82.1076431 166.1049957  15.7454119  81.0861740 166.2526398  16.0635395
  82.7340698 164.8522491  15.8058376  82.2041702 163.9272003  15.9787035
  84.1034012 164.7079926  15.4417973  84.4985886 163.7029114  15.4478035
  88.1719894 166.0305634  12.8972149  89.0274506 165.5529480  13.6697454
  88.5977173 166.6711578  11.7784748  87.7478714 167.1301117  10.7067013
  87.2826920 168.0728760  10.9945974  86.9263687 166.4555511  10.4654074
  88.6310196 167.3730316   9.4943228  88.3027191 168.1528320   8.8071461
  88.7579041 166.4658051   8.9035940  89.9826660 167.6844788  10.1265478
  89.9829865 168.7634735  10.2810555  90.8478241 167.5405579   9.4793310
  90.0432587 166.8412018  11.4126425  90.4720001 165.8645020  11.1882191
  90.9335251 167.3674774  12.4672327  90.6451721 168.4029083  13.1317911
  92.1592331 166.8928833  12.5925846  92.3303223 166.2228394  11.8564672
  93.1544952 167.2306366  13.5888948  94.1060181 166.7796783  13.3072529
  93.2259674 168.3144379  13.6804514  92.9373322 166.6713257  14.9599791
  93.4859314 167.2289429  15.9217234  92.0555878 165.6921234  15.1352177
  91.4465866 165.4399414  14.3699560  91.8564987 164.8900452  16.3501892
  92.5566711 165.1287994  17.1507263  90.4524918 165.1709137  16.9479427
  89.7601013 164.8650513  16.1636257  90.3295670 164.5765381  17.8533115
  90.2209320 166.6655426  17.3015289  90.6293640 167.1722717  18.5524902
  90.9965439 166.5664368  19.3676815  90.3743286 168.4927063  18.8011208
  90.7255630 168.8956909  19.7395477  89.6963654 169.3746033  17.9644432
  89.5330048 170.7172394  18.3123550  89.9502792 170.9059601  19.1560764
  89.2679367 168.8836365  16.7460461  88.7686615 169.5160980  16.0269260
  89.5269318 167.4921875  16.4108715  89.1567764 167.0122833  15.5169563
  91.9745941 163.3997192  16.0230370  91.6582413 162.8828735  14.9649658
  92.3788071 162.6317139  17.0951080  92.6680145 163.0413361  17.9718437
  92.2701035 161.1698608  17.1754894  92.1445236 160.7019348  16.1990814
  93.4783173 160.6168060  17.8619823  93.4947586 160.9613647  18.8959618
  93.2478104 159.5521545  17.8235703  94.3920517 160.9421997  17.3646755
  90.9957581 160.8511200  17.9108620  90.7040024 161.4914703  18.9236717
  90.1371384 159.9315338  17.4684353  90.3943634 159.3396759  16.6914845
  89.0354996 159.3054657  18.2005386  88.6360321 160.0801697  18.8550377
  87.9255753 158.8770142  17.1843395  87.1015778 158.4820251  17.7785702
  87.5629501 159.7664032  16.6689835  88.2574463 157.9224701  16.0685997
  88.3310089 158.2765656  14.7839422  88.3192291 159.2760620  14.3749752
  88.5512695 157.1109467  14.0912037  88.7408600 157.0549774  13.1007385
  88.6955261 155.9777832  14.8446951  89.0531006 154.6442261  14.5267954
  89.3578491 154.3029022  13.5485220  88.9584579 153.6890717  15.5767059
  89.2971039 152.6780396  15.4048958  88.4681168 154.0983734  16.8871384
  88.4937286 153.3460388  17.6615620  88.2007217 155.4577026  17.1592903
  87.9082031 155.6764374  18.1756535  88.3400192 156.4229889  16.1616154
  89.5773087 158.0581360  19.0382786  90.5374374 157.4131775  18.6384621
  88.9459915 157.7624359  20.1867504  88.4185791 158.5422363  20.5526066
  89.3243942 156.5465088  21.0191288  89.6118317 155.7729645  20.3070183
  90.5154266 156.9044952  21.8573685  91.3242950 157.2294006  21.2029552
  90.4176865 158.1687469  22.7446938  89.6919250 157.9360504  23.5239334
  91.4114532 158.2508087  23.1849289  90.1261597 159.0949860  22.2495213
  90.8462372 155.7784729  22.6179390  91.0392914 155.0129395  22.0717812
  88.0494308 156.0937042  21.8460865  87.2747421 156.9090729  22.4000015
  87.6765518 154.7781830  21.6990929  88.3767166 154.1910706  21.2687798
  86.3888474 154.2453918  22.0634022  85.6238098 154.7775421  21.4980526
  86.3068771 152.7870026  21.7477264  86.9098053 152.1869202  22.4292488
  84.7897339 152.3569031  21.8409500  84.0940781 152.9963989  21.2976131
  84.6881256 151.2943726  21.6200504  84.5526428 152.4844055  22.8971863
  86.7279510 152.3079834  20.3474846  85.9529724 152.4969177  19.6046410
  87.6088867 152.8778381  20.0519848  87.2081070 150.8751373  20.3303967
  86.3757019 150.2317505  20.6154423  87.5583801 150.6183624  19.3306599
  88.0907593 150.7228546  20.9515514  86.0704803 154.5571136  23.4991112
  86.8075790 154.2524109  24.3878937  84.8345795 155.0525208  23.7726936
  84.2879715 155.3559875  22.9794540  84.2274094 155.2461090  25.1222763
  85.0493851 155.2220764  25.8377438  83.6346283 156.6553802  25.1847153
  82.9099426 156.8019562  24.3838081  83.2920303 156.7744904  26.2125969
  84.3585739 157.4429016  24.9754181  83.1612015 154.1747589  25.4570751
  82.2617111 153.8973541  24.6724968  83.1891327 153.5596924  26.6579800
  83.9533386 153.7711182  27.2835922  82.1957703 152.6240997  27.2212753
  81.2987595 152.7695770  26.6193619  82.7357864 151.1843567  27.2106075
  83.7022095 151.1655884  27.7143593  82.0763702 150.4991150  27.7432575
  83.0580063 150.6178436  25.7993717  82.1421814 150.6753845  25.2111073
  83.8331375 151.2333984  25.3428936  83.7420044 149.3037262  25.8956261
  84.9364243 149.2357025  25.9341240  82.9660645 148.2333679  25.9026413
  83.4384842 147.3411102  25.9310837  81.9562225 148.2219849  25.8889866
  81.7211304 153.0863190  28.5833225  82.4660339 153.7531891  29.2854290
  80.5036545 152.6613922  28.9918728  79.8383789 152.1878052  28.3975449
  79.9832077 152.9067688  30.3505497  79.9307175 153.9748535  30.5616169
  78.4592667 152.5562286  30.3908272  77.9826889 153.0212708  29.5278606
  78.3515472 151.4943085  30.1699123  77.7661819 153.0319519  31.9919910
  76.6617966 152.2866974  32.0910301  80.7276611 152.1247559  31.4486485
  81.1448746 150.9721985  31.2744217  80.9611664 152.7599487  32.6221924
  80.6120834 153.7047272  32.6973000  81.7660446 152.2429199  33.7834206
  82.6192017 151.6762390  33.4104652  82.3288269 153.3767242  34.6162682
  82.9036102 154.1036377  34.0424042  81.4875793 153.8216400  35.1477203
  83.2578049 152.8966370  35.7547340  82.6633835 152.2396240  36.3896370
  84.0725632 152.2537994  35.4215355  83.9115143 154.0537415  36.4533501
  83.1344757 154.6491852  36.9326859  84.5260162 153.7436676  37.2985382
  84.7596359 154.8125000  35.4962845  85.0872574 154.2678375  34.7113495
  85.4407501 155.9893036  35.6683426  85.4487305 156.7014771  36.7972031
  84.9810715 156.4026947  37.6410789  85.8916931 157.6091003  36.7857552
  86.1569595 156.4461975  34.6931419  86.2457352 155.8839417  33.8588219
  86.9031219 157.0998688  34.8830376  81.0463638 151.1249542  34.5393181
  81.6898422 150.2352295  35.0910149  79.6764374 151.1667328  34.5283394
  79.2463455 151.9940643  34.1402016  78.8078766 150.2164001  35.2667847
  79.3493118 149.8717346  36.1477852  77.5511627 150.9880371  35.7965355
  77.0458679 151.4165649  34.9310036  76.5300827 150.1793060  36.5646935
  76.9552307 149.5851593  37.3736076  75.7631912 150.7924805  37.0379677
  75.9450455 149.4828644  35.9640274  78.0454636 152.1725922  36.7294464
  78.4767685 153.0144348  36.1878052  77.1575699 152.5175781  37.2593002
  78.9347458 151.7893066  37.8821220  79.9197693 151.5466919  37.4834251
  78.9597855 152.5904083  38.6208458  78.5861740 150.9356232  38.4633522
  78.3676224 148.9731445  34.4753189  77.9046707 147.9523926  35.0901566
  78.3865128 149.0820312  33.0889473  78.6217194 149.9654541  32.6595726
  77.7637253 148.0924988  32.2401581  77.6866608 147.1373749  32.7597046
  76.3285599 148.5091858  31.9444981  75.8178101 147.6156311  31.5856152
  75.8176498 148.7877655  32.8661652  76.1580887 149.8034210  30.7116280
  74.8905334 150.0836639  31.0273438  78.5241318 147.6546936  30.9742050
  78.0977859 146.6639557  30.4200153  79.6118546 148.3660736  30.5144863
  79.8562546 149.1546021  31.0963764  80.3521042 148.2017822  29.2570381
  81.2991791 148.7381897  29.3154812  80.6448822 147.1520538  29.2355518
  79.6250763 148.5006256  27.9374046  80.0774460 148.0737152  26.8760719
  78.4963150 149.2545319  27.9574623  78.0650558 149.4781342  28.8429718
  77.7578125 149.6416931  26.7143955  77.6488724 148.8074341  26.0214043
  76.3442383 150.2162781  27.0185757  75.7767181 149.5363464  27.6539574
  76.4973831 151.2078400  27.4445438  75.6226959 150.4133301  25.7127819
  75.5779495 149.5553894  24.8894577  74.9057312 151.5274048  25.6048260
  74.6024170 151.7133636  24.6595612  74.8325500 152.2623901  26.2936974
  78.6282501 150.6375122  25.9373665  79.2179489 151.5381012  26.5387650
  78.6760330 150.5070801  24.6076202  78.1577606 149.7294769  24.2244644
  79.2676697 151.5372620  23.7161121  80.3189163 151.5976105  23.9977760
  79.1803818 151.0192871  22.2742519  79.7234116 150.0835266  22.1416206
  78.1600876 150.8876343  21.9140053  79.7645416 152.0054169  21.3123932
  78.9727936 152.8217926  20.4935894  79.8445587 153.7010345  19.8972130
  79.4146271 154.4867859  19.2937679  81.1125565 153.4236145  20.2783203
  81.9654236 153.8906555  20.0052128  81.0606918 152.3569031  21.1898212
  81.8864059 151.9065247  21.7206211  78.5495834 152.9459534  23.8135452
  77.3752213 153.1148529  23.5562592  79.3092194 153.9923096  24.0864983
  80.3101654 153.8728638  24.1492214  78.9114914 155.3835297  24.3331661
  77.8302612 155.3811035  24.1951828  79.0992966 155.7933655  25.7355919
  80.1627045 155.9137421  25.9424057  78.6473541 156.7666626  25.9268112
  78.5389633 154.9172516  26.8503475  79.1056290 153.9951935  26.9799347
  78.5686035 155.4265442  27.8135967  76.7554092 154.4542542  26.6716881
  75.9115143 156.0391083  26.8864803  76.3883667 156.7569580  26.2190914
  74.8806686 155.9841461  26.5365582  76.0359573 156.3183136  27.9327412
  79.4604111 156.3828735  23.3350163  79.0782700 157.5319366  23.4003105
  80.2578735 155.8908844  22.3366127  80.3905792 154.8900757  22.3071785
  80.8552399 156.7625122  21.3570499  80.6140137 156.3760223  20.3668327
  80.4645691 157.7764435  21.4432869  82.3027802 156.8429718  21.5578575
  82.9761124 155.8120880  21.8112984  82.8757782 158.0344849  21.3850670
  82.2443848 158.7637482  21.0856895  84.3753433 158.2177582  21.3579159
  84.8512497 157.4141846  21.9199524  85.0339890 157.9958954  19.9718990
  84.7687302 158.8576660  19.3594704  86.1098557 158.0179443  20.1454391
  84.5708618 156.8295135  19.1753387  85.2536850 155.6378937  18.9709816
  86.2868729 155.5260315  19.2649460  84.5335770 154.6654358  18.3826485
  84.8743744 153.7630768  18.0831223  83.2458267 155.1865845  18.0431614
  82.0622787 154.6803284  17.4682255  81.9442062 153.6261139  17.2654724
  81.0165558 155.5966949  17.2374077  80.1178665 155.2167664  16.7743740
  81.0967560 157.0055695  17.5338593  80.2478256 157.6607819  17.4056892
  82.2664642 157.5340424  18.1307468  82.4294739 158.5723419  18.3792572
  83.3401718 156.5974579  18.3939800  84.8549500 159.4910736  22.0599308
  84.1715775 160.5148468  21.9445782  85.9964142 159.3973846  22.7969666
  86.4395676 158.4981537  22.9198132  86.7877502 160.5924225  23.2100163
  86.1147537 161.3258209  23.6541939  87.7841873 160.2275391  24.3468666
  87.1890564 159.6972351  25.0902977  88.5508652 159.5082245  24.0589485
  88.4554520 161.4653015  24.9916000  89.0381241 162.0415192  24.2728844
  87.6826935 162.0900574  25.4395084  89.2462845 161.0447693  26.2541256
  88.6087189 160.4596863  26.9169273  90.1197968 160.4623871  25.9610252
  89.6210022 162.2632904  27.1869755  90.0249329 163.0708466  26.5764065
  88.7675323 162.7038574  27.7023296  90.5738144 161.8196106  28.2668839
  91.5131760 161.7972107  27.8964729  90.6086884 162.3878632  29.1011391
  90.3945694 160.8557587  28.5096722  87.5427856 161.1289520  21.9594631
  88.0716553 160.2658844  21.2114067  87.7484741 162.4424438  21.8670006
  87.2019882 163.1295166  22.3664036  88.5755539 163.0523529  20.8374310
  89.0468216 162.2424774  20.2805767  87.7644501 163.8618164  19.8209267
  87.0787125 164.5364532  20.3335114  88.4473877 164.4458618  19.2040081
  86.9319687 163.0361023  18.8452682  87.3244858 162.9871674  17.4505024
  88.1745377 163.5203705  17.0511189  86.4353714 162.3066101  16.6018753
  86.6100998 162.1536407  15.5471382  85.2711563 161.6906128  17.0673771
  84.7139740 161.0397644  16.4098377  84.8657608 161.8039093  18.4006882
  83.9754410 161.2665100  18.6921272  85.7129822 162.5122375  19.2970467
  85.3840256 162.5389557  20.3253822  89.6737366 163.8848724  21.5238934
  89.4484482 165.0409698  21.8799324  90.9003677 163.3621368  21.5962296
  91.0243454 162.4518738  21.1765060  92.1132736 164.0805664  22.0056973
  91.8020401 164.8414764  22.7214069  93.1063690 163.1526947  22.7542114
  94.0298309 163.6725159  23.0093842  92.4426880 162.6903076  24.0894928
  91.5072632 162.1971741  23.8251095  93.0502777 161.9518280  24.6125584
  92.1136780 163.5314178  24.6997242  93.4351501 161.8881531  22.1665974
  93.9190445 162.2029724  21.3995647  92.8504639 164.6265259  20.7745323
  92.7083282 164.0959167  19.7172794  93.4179001 165.8240967  20.8855801
  93.4387665 166.3993835  21.7154617  94.0912476 166.4799652  19.7710953
  93.4193726 166.4726410  18.9128189  94.2229843 167.9985962  20.0404339
  94.7510376 168.1973267  20.9730511  94.6507874 168.4757996  19.1587524
  93.2472382 168.4843140  20.0506687  95.4158707 165.7679749  19.4419250
  96.1533127 165.3176880  20.3249569  95.7806625 165.7796936  18.1362133
  95.1318741 166.1290588  17.4454784  97.1131973 165.3229065  17.6312294
  97.5320663 164.5951996  18.3262672  97.0081482 164.7225647  16.2001476
  98.0333405 164.6668854  15.8341246  96.2903366 163.4364777  16.1991234
  95.2399445 163.6217346  16.4237728  96.2990417 162.9814301  15.2086954
  96.6493835 162.8240051  17.0262089  96.2736588 165.6083527  15.3381052
  96.5633774 165.4846954  14.4312572  98.1547928 166.4212799  17.5765362
  99.2311859 166.2244263  18.1542015  97.9107590 167.5611877  16.8813686
  97.0341339 167.5391846  16.3802242  98.7317505 168.7713776  16.9172878
  99.7856903 168.5034332  16.8429089  98.3066864 169.6954041  15.7206669
  97.2191315 169.7095337  15.6490431  98.8172455 170.6554565  15.7963972
  98.8285141 169.0613098  14.4038906  99.8883133 168.8524323  14.5498419
  98.4765854 168.0416107  14.2474375  98.6787109 169.8850098  13.0861235
  99.0259476 170.8871765  13.3375216  99.3120422 169.4374847  12.3201571
  97.2315521 169.8721313  12.6781073  96.8598709 168.8862305  12.9573212
  96.6900406 170.6076508  13.2729826  97.1378098 170.1233978  11.2484646
  97.5750504 169.4007416  10.6946535  96.1749420 170.0245972  10.9599676
  97.5471268 171.0142365  11.0056820  98.6882782 169.5074310  18.2786236
  97.7023468 169.4079437  19.0339565  99.7101593 170.3299255  18.4906731
 100.4249573 170.2786865  17.7789593 100.1101074 170.9020844  19.8086739
  99.8778839 170.0632019  20.4647522 101.6357498 171.1149750  19.9942722
 101.8348465 171.2546234  21.0567970 102.2012787 170.2807465  19.5791187
 102.1386642 172.3650208  19.2804146 102.0974426 172.2749634  18.1949234
 101.6571808 173.2572174  19.6807270 103.5996475 172.5889740  19.5970478
 103.6354599 172.6706390  20.6833935 104.1964035 171.7649078  19.2060089
 104.0995331 173.9084015  18.9945259 103.5450897 174.6927643  19.5097599
 105.1258926 174.1067047  19.3033314 104.0275269 174.0134430  17.5204029
 103.0970383 174.0702057  17.1317196 104.5746841 174.7776337  17.1506367
 104.3540649 173.1567535  17.0966358  99.2947159 172.1121368  20.2481766
  99.1890411 172.3175049  21.4550800  98.7022171 172.9120483  19.3270798
  98.7740936 172.6464844  18.3552742  98.0772552 174.2174072  19.6049194
  97.9782715 174.3827057  20.6777573  98.9714584 175.3656464  19.0879250
  98.4726028 176.3142242  19.2865829  99.9066238 175.4291229  19.6442852
  99.2954025 175.3732910  17.5768833  99.2296600 174.3151245  16.9331551
  99.5339355 176.5103149  16.9845810  96.6396942 174.2611694  19.2475624
  96.1170731 175.3826294  19.1308689  95.8695602 173.1717529  18.9743176
  96.1990814 172.2304382  19.1338730  94.4220581 173.2187042  18.7696152
  94.2483749 174.1384430  18.2110405  93.9449387 172.0551147  17.8703384
  94.0519943 171.0715790  18.3278275  92.8994141 172.2409058  17.6244507
  94.7456818 172.0883484  16.5841637  94.3845215 172.9243317  15.9851646
  95.8192978 172.0695648  16.7714863  94.4615173 170.6038971  15.5324860
  92.9002686 171.0280304  14.7509241  92.9143295 172.1028290  14.5700302
  92.8314056 170.4879150  13.8066607  92.0625687 170.6832428  15.3571110
  93.5638885 173.3083801  19.9638844  93.8670502 172.5608978  20.9084377
  92.4997177 174.1135406  19.9279671  92.3385620 174.6594391  19.0936260
  91.5795898 174.2830200  21.0868282  91.9228516 173.6246643  21.8848591
  91.6782455 175.6501770  21.7469082  92.5451202 175.6310425  22.4074078
  91.8294907 176.4169006  20.9870605  90.5306549 176.0469513  22.5127983
  90.7660980 176.4685516  23.3425083  90.1581573 173.8578033  20.6495266
  89.8127594 174.4363861  19.6362934  89.4344254 172.9610596  21.3311195
  88.0170441 172.7099457  21.1076679  87.7919693 172.4304810  20.0784245
  87.4101486 173.5643921  21.4071636  87.6360016 171.5131531  22.0102539
  87.8200302 170.5279083  21.5818577  86.6006241 171.5877075  22.3427334
  88.5612183 171.6946259  23.1734276  88.8388596 170.7101288  23.5499458
  88.1969910 172.2966461  24.0059109  89.8131943 172.3855743  22.6102428
  90.1551361 173.1805420  23.2729721  90.8853378 171.3102722  22.5120811
  90.9869537 170.6096344  21.5279751  91.7319183 171.1912384  23.5361137
  91.5724869 171.8126526  24.3161926  92.8394547 170.1329651  23.4517612
  93.3321075 170.2810516  22.4907913  93.8354034 170.3349304  24.6508560
  93.9696426 171.4014740  24.8312931  93.2693634 169.9309692  25.4902134
  95.1202698 169.5299377  24.5885277  95.5533981 169.8062897  25.5498466
  94.8469925 168.4751587  24.6174088  96.1910553 169.9488220  23.5246735
  96.0349045 170.9369202  22.8234196  97.2408066 169.1973114  23.4479084
  97.8419952 169.4156799  22.6662521  97.3656158 168.3210602  23.9344406
  92.2460556 168.7130737  23.5382996  92.9036331 167.7417908  23.0528412
  91.0748062 168.5200500  24.1826591  90.6263504 169.3252716  24.5956802
  90.2764130 167.2757111  24.2462769  90.4825134 166.6437683  23.3823967
  90.6815109 166.4501801  25.5164337  90.2577820 165.4486084  25.5899067
  91.7616348 166.3037720  25.5184784  90.2431183 167.0535889  26.8086491
  90.2303848 168.1412201  26.7379990  89.2258606 166.7645721  27.0727501
  91.1841965 166.7107849  28.0094547  90.6732330 167.0250702  28.9195309
  91.3696899 165.6384735  27.9476299  92.5195007 167.4506989  27.9674530
  93.2582550 166.7703552  27.5437984  92.3769836 168.2987213  27.2976494
  93.0161362 167.8554382  29.2980385  93.0135651 167.1217499  29.9921513
  93.9223022 168.2909698  29.2017727  92.5333099 168.6788483  29.6281681
  88.7338181 167.6599884  24.2553730  88.2649689 168.6011047  24.9034576
  87.9110336 166.7978821  23.6535492  88.3411331 166.0131073  23.1852970
  86.4217682 166.7220306  23.7673988  86.1048584 167.0377655  24.7613678
  85.7489395 167.6499786  22.7214184  84.7542496 167.8735352  23.1070557
  86.2503891 168.6168671  22.7633324  85.5975952 167.1619720  21.3149090
  86.7031555 167.3079834  20.4349766  87.5222092 167.9147339  20.7919216
  86.7408600 166.8070526  19.1502552  87.5999985 166.9582520  18.5135307
  85.6719818 166.0676575  18.6842709  85.7015839 165.5719452  17.7252064
  84.5422821 165.9453278  19.4538746  83.7349548 165.3227234  19.0975189
  84.4389114 166.5441284  20.7354927  83.5335388 166.4271240  21.3125629
  85.9142914 165.2785645  23.7217407  86.6974640 164.3266754  23.5844421
  84.6012650 165.1550598  23.7641983  83.9976120 165.9340057  23.9853992
  83.8750229 163.9518433  23.5252094  84.6145172 163.2925720  23.0706596
  83.3962631 163.2887115  24.8066063  82.6563416 163.9492493  25.2586060
  82.8679123 162.3644409  24.5728073  84.3747025 163.1432343  25.9323387
  84.7847519 164.1221924  26.7570648  84.4705811 165.1547852  26.7186604
  85.6299515 163.6060333  27.7253895  86.1417160 164.1671448  28.3912392
  85.6949692 162.2171173  27.7244549  86.1968231 161.3092194  28.6123428
  86.6162262 161.6415558  29.5504551  85.9763336 159.9121399  28.3816872
  86.3508148 159.1183472  29.0110207  85.3913345 159.5502625  27.1890640
  85.1450348 158.5127716  27.0176830  84.9354248 160.5399170  26.2777576
  84.4193420 160.1133575  25.4303417  85.0282135 161.9145966  26.4788322
  82.7663345 163.9921112  22.4717865  81.9902878 164.9278107  22.4252605
  82.7836914 163.0409851  21.5132694  83.4412613 162.2757263  21.5589752
  81.6652679 162.7526550  20.6642818  80.9088516 163.5374603  20.6705399
  81.9749756 162.6084137  19.6292095  80.8563614 161.4700470  21.0986176
  81.3035126 160.3715210  20.8333893  79.7543793 161.6775360  21.8484554
  79.5013580 162.6235504  22.0957642  78.8721161 160.7065582  22.5117474
  79.4433746 159.7789154  22.4766712  78.6538620 161.0923157  24.0309582
  77.9610748 161.9333344  24.0599651  78.2321701 160.2642822  24.6007156
  79.9773178 161.3975983  24.7650452  80.4922562 162.2150574  24.2603703
  79.6689377 161.7759705  26.1616173  79.5081635 160.8963623  26.7849445
  80.4948578 162.3440857  26.5896397  78.7898407 162.4194031  26.1976433
  80.9096451 160.1821136  24.8353271  81.1969299 159.8712311  23.8308792
  81.7786484 160.3701630  25.4658546  80.3852081 159.3099823  25.2257957
  77.5660172 160.3540802  21.7223263  76.8800964 161.3094025  21.3744698
  77.2310638 159.1098328  21.6263580  77.6411362 158.4174652  22.2367363
  76.1974640 158.6192627  20.7138634  76.2912140 159.1046906  19.7424412
  76.4606476 157.1399384  20.2579288  75.4950333 156.8993378  19.8131828
  77.5862427 156.9791870  19.2351837  78.5380707 157.1675568  19.7318115
  77.5583878 155.9623566  18.8435535  77.3719711 157.6513367  18.4042778
  76.7728958 156.3593292  21.3744926  76.4764709 155.4546814  21.2506027
  74.8150940 158.8534698  21.3123112  74.3687820 158.1862183  22.2034588
  74.0228348 159.7676849  20.6861076  74.4209824 160.3296051  19.9473114
  72.6857071 160.0899200  21.1750641  72.7608185 160.3525391  22.2302876
  72.1210175 161.3653412  20.5347576  71.2579575 161.6130219  21.1527214
  72.8543472 162.1653137  20.6365318  71.7472382 161.2825012  19.0573940
  72.4957428 161.7879181  18.4471626  71.8204269 160.2290497  18.7871876
  70.3720627 161.8464813  18.6791840  70.3054733 162.8952942  18.9683914
  70.3033295 161.6782074  17.6044464  69.2644577 161.1628876  19.3308697
  69.0872574 161.3154602  20.3134270  68.4524536 160.3255615  18.6780281
  68.4291840 159.9384460  17.4643497  69.0013885 160.3511658  16.7416153
  67.6434708 159.3785858  17.1655197  67.4051056 159.8885193  19.3185234
  67.1649857 160.2566071  20.2278938  66.6697769 159.4658813  18.7701035
  71.6543274 158.9244995  21.0633678  70.5498276 159.0076599  21.5152664
  72.0049820 157.7831268  20.3896084  72.8939972 157.8040619  19.9107475
  71.2660828 156.5068054  20.4418087  70.2048721 156.6349487  20.2284584
  71.8500595 155.5239716  19.4265366  71.6198273 154.4638824  19.5328541
  71.5251923 155.8156891  18.4277992  73.3049774 155.6049652  19.3765640
  73.6657715 154.7603455  19.0972080  71.3321457 155.8793640  21.8800049
  70.3959656 155.2998810  22.3926868  72.4217682 156.1275787  22.6040802
  73.1392059 156.6377258  22.1089516  72.7140274 155.6508789  23.9718819
  72.1192322 154.7545929  24.1479378  74.1434250 155.1644592  23.9354782
  74.7448730 156.0661011  24.0512924  74.3854752 154.6235657  24.8503265
  74.3011932 154.6350098  22.9958534  72.5255280 156.7122192  25.0592556
  72.3580093 156.3561859  26.2154980  72.4583893 157.9585571  24.7353992
  72.4852448 158.1729279  23.7487774  72.2674637 159.0343781  25.6685925
  72.8726120 158.7803497  26.5388641  72.7649384 160.4238586  25.2109737
  72.2072754 160.7330017  24.3269310  72.6083679 161.1230927  26.0323486
  74.3192444 160.5301971  24.9159222  74.6190033 159.8374329  24.1295929
  74.5855331 161.9099274  24.2787724  74.3726654 162.6563416  25.0440483
  75.5939636 161.7772217  23.8869057  73.9120789 162.0634766  23.4355717
  75.2240143 160.5044861  26.1364307  75.0365143 159.6214752  26.7473507
  76.2931061 160.6045837  25.9490013  74.9834595 161.3522491  26.7779522
  70.7893982 159.1632385  26.1271439  69.9009705 158.9923096  25.3224297
  70.5403519 159.4845734  27.4663982  71.3636475 159.6500854  28.0275402
  69.2196274 159.5619965  28.1170197  68.4832077 159.6776581  27.3217773
  68.8848953 158.2660675  28.7380047  69.1420212 157.4426270  28.0717106
  69.5756989 158.1645813  29.5750256  67.4661865 158.1503143  29.2634945
  67.2652283 158.9593048  29.9658203  66.4420013 158.0959930  28.0886536
  66.6022339 157.2986755  27.3629036  65.4821167 157.9907990  28.5942802
  66.4124756 159.0733948  27.6070576  67.3574982 156.8063354  29.9996567
  68.0566635 156.7041626  30.8296223  66.3764648 156.7137451  30.4656010
  67.5709152 155.9767456  29.3256054  69.0934067 160.7627563  29.0469437
  69.6920166 160.7811432  30.1465549  68.3243866 161.8870239  28.6614895
  67.9214783 162.0942535  27.3057327  67.0448380 161.4736328  27.1201687
  68.7024918 161.9115906  26.5676632  67.5964737 163.5458984  27.1275043
  66.8345642 163.6232300  26.3518639  68.4467850 164.2203064  27.0262203
  67.0761490 163.7995453  28.4924107  66.0172195 163.5462036  28.4415169
  67.1469116 164.8491516  28.7777882  67.8747864 162.9847260  29.4682274
  68.7047043 163.5725250  29.8604355  67.0397873 162.6012878  30.7362976
  65.9865570 163.2085114  30.9232597  67.4618988 161.7114410  31.6262550
  68.2696457 161.1810455  31.3324394  66.9160004 161.4708710  32.9376030
  65.8298492 161.5568085  32.9063110  67.3744812 160.1391602  33.5014343
  67.2485504 159.3339691  32.7776108  68.4432449 160.2784424  33.6640358
  66.6458054 159.8056183  34.8242302  66.7468796 160.6535339  35.5016785
  65.5792084 159.7084808  34.6216507  67.1914749 158.5731506  35.4887543
  68.1943283 158.2864990  35.1721802  67.1409149 158.7876892  36.5562363
  66.3125534 157.4011536  35.2461548  65.8684616 157.4256897  34.3393593
  65.9390411 156.4635925  36.1235085  66.2001038 156.5319366  37.3978462
  66.5486221 157.3883972  37.8041763  65.8668365 155.8305664  38.0436859
  65.3327866 155.3419037  35.6477966  65.1212845 155.1514130  34.6787376
  65.0038605 154.6145477  36.2665634  67.1371155 162.6492462  33.9069786
  66.1555176 162.9942932  34.6355515  68.2134933 163.3052521  33.9558716
