; Combined topology: CDK2-CCNE + EDS00444974
; Force field: AMBER14SB (protein) + GAFF2/Gasteiger (ligand)
; Water: TIP3P   Ions: NaCl at 0.15 M

; AMBER14SB force field
#include "amber14sb.ff/forcefield.itp"

; GAFF2 atom types for ligand EDS00444974
[ atomtypes ]
;name   bond_type     mass     charge   ptype   sigma         epsilon       Amb
 c        c           0.00000  0.00000   A     3.31521e-01   4.13379e-01 ; 1.86  0.0988
 n        n           0.00000  0.00000   A     3.18086e-01   6.84502e-01 ; 1.79  0.1636
 c6       c6          0.00000  0.00000   A     3.39771e-01   4.51035e-01 ; 1.91  0.1078
 ca       ca          0.00000  0.00000   A     3.31521e-01   4.13379e-01 ; 1.86  0.0988
 nb       nb          0.00000  0.00000   A     3.38417e-01   3.93714e-01 ; 1.90  0.0941
 o        o           0.00000  0.00000   A     3.04812e-01   6.12119e-01 ; 1.71  0.1463
 ns       ns          0.00000  0.00000   A     3.26995e-01   4.91202e-01 ; 1.84  0.1174
 c3       c3          0.00000  0.00000   A     3.39771e-01   4.51035e-01 ; 1.91  0.1078
 h1       h1          0.00000  0.00000   A     2.42200e-01   8.70272e-02 ; 1.36  0.0208
 hc       hc          0.00000  0.00000   A     2.60018e-01   8.70272e-02 ; 1.46  0.0208
 ha       ha          0.00000  0.00000   A     2.62548e-01   6.73624e-02 ; 1.47  0.0161
 hn       hn          0.00000  0.00000   A     1.10650e-01   4.18400e-02 ; 0.62  0.0100
 h4       h4          0.00000  0.00000   A     2.53639e-01   6.73624e-02 ; 1.42  0.0161

; Chain A — CDK2 (AMBER14SB)
#include "protein_Protein_chain_A.itp"
#ifdef POSRES
#include "protein_posre_Protein_chain_A.itp"
#endif

; Chain B — Cyclin E (AMBER14SB)
#include "protein_Protein_chain_B.itp"
#ifdef POSRES
#include "protein_posre_Protein_chain_B.itp"
#endif

; Ligand EDS00444974 (GAFF2 + Gasteiger charges)
[ moleculetype ]
;name            nrexcl
 EDS00444974      3

[ atoms ]
;   nr  type  resi  res  atom  cgnr     charge      mass       ; qtot   bond_type
     1    c     1   MOL    C1    1     0.217118     12.01000 ; qtot 0.217
     2    n     1   MOL    N1    2    -0.295337     14.01000 ; qtot -0.078
     3   c6     1   MOL    C2    3     0.018623     12.01000 ; qtot -0.060
     4   c6     1   MOL    C3    4    -0.010073     12.01000 ; qtot -0.070
     5   c6     1   MOL    C4    5     0.056757     12.01000 ; qtot -0.013
     6   ca     1   MOL    C5    6     0.061886     12.01000 ; qtot 0.049
     7   ca     1   MOL    C6    7    -0.023156     12.01000 ; qtot 0.026
     8   ca     1   MOL    C7    8    -0.054765     12.01000 ; qtot -0.029
     9   ca     1   MOL    C8    9    -0.030629     12.01000 ; qtot -0.060
    10   ca     1   MOL    C9   10     0.125769     12.01000 ; qtot 0.066
    11   nb     1   MOL    N2   11    -0.245930     14.01000 ; qtot -0.180
    12    o     1   MOL    O1   12    -0.277211     16.00000 ; qtot -0.457
    13    c     1   MOL   C10   13     0.261820     12.01000 ; qtot -0.195
    14   ns     1   MOL    N3   14    -0.304182     14.01000 ; qtot -0.499
    15    o     1   MOL    O2   15    -0.270143     16.00000 ; qtot -0.769
    16   c3     1   MOL   C11   16     0.055482     12.01000 ; qtot -0.714
    17   ca     1   MOL   C12   17     0.075765     12.01000 ; qtot -0.638
    18   nb     1   MOL    N4   18    -0.256131     14.01000 ; qtot -0.894
    19   ca     1   MOL   C13   19     0.048443     12.01000 ; qtot -0.846
    20   ca     1   MOL   C14   20     0.055547     12.01000 ; qtot -0.790
    21   c3     1   MOL   C15   21    -0.020659     12.01000 ; qtot -0.811
    22   nb     1   MOL    N5   22    -0.258041     14.01000 ; qtot -1.069
    23   ca     1   MOL   C16   23     0.050289     12.01000 ; qtot -1.019
    24   c3     1   MOL   C17   24    -0.054126     12.01000 ; qtot -1.073
    25   c3     1   MOL   C18   25     0.030372     12.01000 ; qtot -1.043
    26   c3     1   MOL   C19   26    -0.054126     12.01000 ; qtot -1.097
    27   h1     1   MOL    H1   27     0.047310      1.00800 ; qtot -1.049
    28   h1     1   MOL    H2   28     0.047310      1.00800 ; qtot -1.002
    29   hc     1   MOL    H3   29     0.033291      1.00800 ; qtot -0.969
    30   hc     1   MOL    H4   30     0.033291      1.00800 ; qtot -0.935
    31   h1     1   MOL    H5   31     0.053697      1.00800 ; qtot -0.882
    32   h1     1   MOL    H6   32     0.053697      1.00800 ; qtot -0.828
    33   ha     1   MOL    H7   33     0.062715      1.00800 ; qtot -0.765
    34   ha     1   MOL    H8   34     0.064768      1.00800 ; qtot -0.701
    35   hn     1   MOL    H9   35     0.150177      1.00800 ; qtot -0.550
    36   h1     1   MOL   H10   36     0.053516      1.00800 ; qtot -0.497
    37   h1     1   MOL   H11   37     0.053516      1.00800 ; qtot -0.443
    38   h4     1   MOL   H12   38     0.085972      1.00800 ; qtot -0.357
    39   hc     1   MOL   H13   39     0.029635      1.00800 ; qtot -0.328
    40   hc     1   MOL   H14   40     0.029635      1.00800 ; qtot -0.298
    41   hc     1   MOL   H15   41     0.029635      1.00800 ; qtot -0.268
    42   h4     1   MOL   H16   42     0.086047      1.00800 ; qtot -0.182
    43   hc     1   MOL   H17   43     0.023817      1.00800 ; qtot -0.159
    44   hc     1   MOL   H18   44     0.023817      1.00800 ; qtot -0.135
    45   hc     1   MOL   H19   45     0.023817      1.00800 ; qtot -0.111
    46   hc     1   MOL   H20   46     0.039524      1.00800 ; qtot -0.071
    47   hc     1   MOL   H21   47     0.023817      1.00800 ; qtot -0.048
    48   hc     1   MOL   H22   48     0.023817      1.00800 ; qtot -0.024
    49   hc     1   MOL   H23   49     0.023817      1.00800 ; qtot -0.000

[ bonds ]
;   ai     aj funct   r             k
     1      2   1    1.3967e-01    2.6565e+05 ;     C1 - N1    
     1     12   1    1.2190e-01    4.9421e+05 ;     C1 - O1    
     1     25   1    1.5270e-01    1.9652e+05 ;     C1 - C18   
     2      3   1    1.4669e-01    2.1117e+05 ;     N1 - C2    
     2      5   1    1.4669e-01    2.1117e+05 ;     N1 - C4    
     3      4   1    1.5384e-01    1.8979e+05 ;     C2 - C3    
     3     27   1    1.0984e-01    2.8620e+05 ;     C2 - H1    
     3     28   1    1.0984e-01    2.8620e+05 ;     C2 - H2    
     4      7   1    1.5203e-01    2.0061e+05 ;     C3 - C6    
     4     29   1    1.0979e-01    2.8681e+05 ;     C3 - H3    
     4     30   1    1.0979e-01    2.8681e+05 ;     C3 - H4    
     5      6   1    1.5203e-01    2.0061e+05 ;     C4 - C5    
     5     31   1    1.0984e-01    2.8620e+05 ;     C4 - H5    
     5     32   1    1.0984e-01    2.8620e+05 ;     C4 - H6    
     6      7   1    1.3986e-01    2.9644e+05 ;     C5 - C6    
     6     11   1    1.3392e-01    3.2341e+05 ;     C5 - N2    
     7      8   1    1.3986e-01    2.9644e+05 ;     C6 - C7    
     8      9   1    1.3986e-01    2.9644e+05 ;     C7 - C8    
     8     33   1    1.0860e-01    3.0183e+05 ;     C7 - H7    
     9     10   1    1.3986e-01    2.9644e+05 ;     C8 - C9    
     9     34   1    1.0860e-01    3.0183e+05 ;     C8 - H8    
    10     11   1    1.3392e-01    3.2341e+05 ;     C9 - N2    
    10     13   1    1.4907e-01    2.1994e+05 ;     C9 - C10   
    13     14   1    1.3798e-01    2.8122e+05 ;    C10 - N3    
    13     15   1    1.2190e-01    4.9421e+05 ;    C10 - O2    
    14     16   1    1.4556e-01    2.1896e+05 ;     N3 - C11   
    14     35   1    1.0132e-01    3.9630e+05 ;     N3 - H9    
    16     17   1    1.5147e-01    2.0410e+05 ;    C11 - C12   
    16     36   1    1.0969e-01    2.8804e+05 ;    C11 - H10   
    16     37   1    1.0969e-01    2.8804e+05 ;    C11 - H11   
    17     18   1    1.3392e-01    3.2341e+05 ;    C12 - N4    
    17     23   1    1.3986e-01    2.9644e+05 ;    C12 - C16   
    18     19   1    1.3392e-01    3.2341e+05 ;     N4 - C13   
    19     20   1    1.3986e-01    2.9644e+05 ;    C13 - C14   
    19     38   1    1.0885e-01    2.9859e+05 ;    C13 - H12   
    20     21   1    1.5147e-01    2.0410e+05 ;    C14 - C15   
    20     22   1    1.3392e-01    3.2341e+05 ;    C14 - N5    
    21     39   1    1.0962e-01    2.8891e+05 ;    C15 - H13   
    21     40   1    1.0962e-01    2.8891e+05 ;    C15 - H14   
    21     41   1    1.0962e-01    2.8891e+05 ;    C15 - H15   
    22     23   1    1.3392e-01    3.2341e+05 ;     N5 - C16   
    23     42   1    1.0885e-01    2.9859e+05 ;    C16 - H16   
    24     25   1    1.5354e-01    1.9154e+05 ;    C17 - C18   
    24     43   1    1.0962e-01    2.8891e+05 ;    C17 - H17   
    24     44   1    1.0962e-01    2.8891e+05 ;    C17 - H18   
    24     45   1    1.0962e-01    2.8891e+05 ;    C17 - H19   
    25     26   1    1.5354e-01    1.9154e+05 ;    C18 - C19   
    25     46   1    1.0962e-01    2.8891e+05 ;    C18 - H20   
    26     47   1    1.0962e-01    2.8891e+05 ;    C19 - H21   
    26     48   1    1.0962e-01    2.8891e+05 ;    C19 - H22   
    26     49   1    1.0962e-01    2.8891e+05 ;    C19 - H23   

[ pairs ]
;   ai     aj    funct
     1      4      1 ;     C1 - C3    
     1      6      1 ;     C1 - C5    
     1     27      1 ;     C1 - H1    
     1     28      1 ;     C1 - H2    
     1     31      1 ;     C1 - H5    
     1     32      1 ;     C1 - H6    
     1     43      1 ;     C1 - H17   
     1     44      1 ;     C1 - H18   
     1     45      1 ;     C1 - H19   
     1     47      1 ;     C1 - H21   
     1     48      1 ;     C1 - H22   
     1     49      1 ;     C1 - H23   
     2      7      1 ;     N1 - C6    
     2     11      1 ;     N1 - N2    
     2     24      1 ;     N1 - C17   
     2     26      1 ;     N1 - C19   
     2     29      1 ;     N1 - H3    
     2     30      1 ;     N1 - H4    
     2     46      1 ;     N1 - H20   
     3      6      1 ;     C2 - C5    
     3      8      1 ;     C2 - C7    
     3     31      1 ;     C2 - H5    
     3     32      1 ;     C2 - H6    
     4      5      1 ;     C3 - C4    
     4      9      1 ;     C3 - C8    
     4     11      1 ;     C3 - N2    
     4     33      1 ;     C3 - H7    
     5      8      1 ;     C4 - C7    
     5     10      1 ;     C4 - C9    
     5     27      1 ;     C4 - H1    
     5     28      1 ;     C4 - H2    
     6      9      1 ;     C5 - C8    
     6     13      1 ;     C5 - C10   
     6     29      1 ;     C5 - H3    
     6     30      1 ;     C5 - H4    
     6     33      1 ;     C5 - H7    
     7     10      1 ;     C6 - C9    
     7     27      1 ;     C6 - H1    
     7     28      1 ;     C6 - H2    
     7     31      1 ;     C6 - H5    
     7     32      1 ;     C6 - H6    
     7     34      1 ;     C6 - H8    
     8     11      1 ;     C7 - N2    
     8     13      1 ;     C7 - C10   
     8     29      1 ;     C7 - H3    
     8     30      1 ;     C7 - H4    
     9     14      1 ;     C8 - N3    
     9     15      1 ;     C8 - O2    
    10     16      1 ;     C9 - C11   
    10     33      1 ;     C9 - H7    
    10     35      1 ;     C9 - H9    
    11     14      1 ;     N2 - N3    
    11     15      1 ;     N2 - O2    
    11     31      1 ;     N2 - H5    
    11     32      1 ;     N2 - H6    
    11     34      1 ;     N2 - H8    
    12      3      1 ;     O1 - C2    
    12      5      1 ;     O1 - C4    
    12     24      1 ;     O1 - C17   
    12     26      1 ;     O1 - C19   
    12     46      1 ;     O1 - H20   
    13     17      1 ;    C10 - C12   
    13     34      1 ;    C10 - H8    
    13     36      1 ;    C10 - H10   
    13     37      1 ;    C10 - H11   
    14     18      1 ;     N3 - N4    
    14     23      1 ;     N3 - C16   
    15     16      1 ;     O2 - C11   
    15     35      1 ;     O2 - H9    
    16     19      1 ;    C11 - C13   
    16     22      1 ;    C11 - N5    
    16     42      1 ;    C11 - H16   
    17     20      1 ;    C12 - C14   
    17     35      1 ;    C12 - H9    
    17     38      1 ;    C12 - H12   
    18     21      1 ;     N4 - C15   
    18     22      1 ;     N4 - N5    
    18     36      1 ;     N4 - H10   
    18     37      1 ;     N4 - H11   
    18     42      1 ;     N4 - H16   
    19     23      1 ;    C13 - C16   
    19     39      1 ;    C13 - H13   
    19     40      1 ;    C13 - H14   
    19     41      1 ;    C13 - H15   
    20     42      1 ;    C14 - H16   
    21     23      1 ;    C15 - C16   
    21     38      1 ;    C15 - H12   
    22     38      1 ;     N5 - H12   
    22     39      1 ;     N5 - H13   
    22     40      1 ;     N5 - H14   
    22     41      1 ;     N5 - H15   
    23     36      1 ;    C16 - H10   
    23     37      1 ;    C16 - H11   
    24     47      1 ;    C17 - H21   
    24     48      1 ;    C17 - H22   
    24     49      1 ;    C17 - H23   
    25      3      1 ;    C18 - C2    
    25      5      1 ;    C18 - C4    
    26     43      1 ;    C19 - H17   
    26     44      1 ;    C19 - H18   
    26     45      1 ;    C19 - H19   
    27     29      1 ;     H1 - H3    
    27     30      1 ;     H1 - H4    
    28     29      1 ;     H2 - H3    
    28     30      1 ;     H2 - H4    
    33     34      1 ;     H7 - H8    
    35     36      1 ;     H9 - H10   
    35     37      1 ;     H9 - H11   
    43     46      1 ;    H17 - H20   
    44     46      1 ;    H18 - H20   
    45     46      1 ;    H19 - H20   
    46     47      1 ;    H20 - H21   
    46     48      1 ;    H20 - H22   
    46     49      1 ;    H20 - H23   

[ angles ]
;   ai     aj     ak    funct   theta         cth
     1      2      3      1    1.2047e+02    6.4124e+02 ;     C1 - N1     - C2    
     1      2      5      1    1.2047e+02    6.4124e+02 ;     C1 - N1     - C4    
     1     25     24      1    1.1143e+02    5.0509e+02 ;     C1 - C18    - C17   
     1     25     26      1    1.1143e+02    5.0509e+02 ;     C1 - C18    - C19   
     1     25     46      1    1.0895e+02    3.6510e+02 ;     C1 - C18    - H20   
     2      1     12      1    1.2257e+02    7.2534e+02 ;     N1 - C1     - O1    
     2      1     25      1    1.1716e+02    5.4551e+02 ;     N1 - C1     - C18   
     2      3      4      1    1.1117e+02    5.4635e+02 ;     N1 - C2     - C3    
     2      3     27      1    1.0852e+02    4.0217e+02 ;     N1 - C2     - H1    
     2      3     28      1    1.0852e+02    4.0217e+02 ;     N1 - C2     - H2    
     2      5      6      1    1.1189e+02    5.4819e+02 ;     N1 - C4     - C5    
     2      5     31      1    1.0852e+02    4.0217e+02 ;     N1 - C4     - H5    
     2      5     32      1    1.0852e+02    4.0217e+02 ;     N1 - C4     - H6    
     3      2      5      1    1.1407e+02    6.4400e+02 ;     C2 - N1     - C4    
     3      4      7      1    1.1197e+02    5.0442e+02 ;     C2 - C3     - C6    
     3      4     29      1    1.0945e+02    3.6175e+02 ;     C2 - C3     - H3    
     3      4     30      1    1.0945e+02    3.6175e+02 ;     C2 - C3     - H4    
     4      3     27      1    1.0918e+02    3.6217e+02 ;     C3 - C2     - H1    
     4      3     28      1    1.0918e+02    3.6217e+02 ;     C3 - C2     - H2    
     4      7      6      1    1.2060e+02    5.0760e+02 ;     C3 - C6     - C5    
     4      7      8      1    1.2060e+02    5.0760e+02 ;     C3 - C6     - C7    
     5      6      7      1    1.2060e+02    5.0760e+02 ;     C4 - C5     - C6    
     5      6     11      1    1.1569e+02    5.5907e+02 ;     C4 - C5     - N2    
     6      5     31      1    1.0893e+02    3.6652e+02 ;     C5 - C4     - H5    
     6      5     32      1    1.0893e+02    3.6652e+02 ;     C5 - C4     - H6    
     6      7      8      1    1.2002e+02    5.3279e+02 ;     C5 - C6     - C7    
     6     11     10      1    1.1724e+02    6.9580e+02 ;     C5 - N2     - C9    
     7      4     29      1    1.0947e+02    3.6560e+02 ;     C6 - C3     - H3    
     7      4     30      1    1.0947e+02    3.6560e+02 ;     C6 - C3     - H4    
     7      6     11      1    1.2294e+02    5.7045e+02 ;     C6 - C5     - N2    
     7      8      9      1    1.2002e+02    5.3279e+02 ;     C6 - C7     - C8    
     7      8     33      1    1.1988e+02    3.7572e+02 ;     C6 - C7     - H7    
     8      9     10      1    1.2002e+02    5.3279e+02 ;     C7 - C8     - C9    
     8      9     34      1    1.1988e+02    3.7572e+02 ;     C7 - C8     - H8    
     9      8     33      1    1.1988e+02    3.7572e+02 ;     C8 - C7     - H7    
     9     10     11      1    1.2294e+02    5.7045e+02 ;     C8 - C9     - N2    
     9     10     13      1    1.2033e+02    5.1413e+02 ;     C8 - C9     - C10   
    10      9     34      1    1.1988e+02    3.7572e+02 ;     C9 - C8     - H8    
    10     13     14      1    1.1509e+02    5.6116e+02 ;     C9 - C10    - N3    
    10     13     15      1    1.2260e+02    6.5237e+02 ;     C9 - C10    - O2    
    11     10     13      1    1.1768e+02    5.6141e+02 ;     N2 - C9     - C10   
    12      1     25      1    1.2290e+02    6.3973e+02 ;     O1 - C1     - C18   
    13     14     16      1    1.2196e+02    6.4350e+02 ;    C10 - N3     - C11   
    13     14     35      1    1.1726e+02    4.8007e+02 ;    C10 - N3     - H9    
    14     13     15      1    1.2305e+02    7.2977e+02 ;     N3 - C10    - O2    
    14     16     17      1    1.1202e+02    5.5095e+02 ;     N3 - C11    - C12   
    14     16     36      1    1.0849e+02    4.0493e+02 ;     N3 - C11    - H10   
    14     16     37      1    1.0849e+02    4.0493e+02 ;     N3 - C11    - H11   
    16     14     35      1    1.1742e+02    4.5706e+02 ;    C11 - N3     - H9    
    16     17     18      1    1.1664e+02    5.5815e+02 ;    C11 - C12    - N4    
    16     17     23      1    1.2083e+02    5.0827e+02 ;    C11 - C12    - C16   
    17     16     36      1    1.0960e+02    3.6660e+02 ;    C12 - C11    - H10   
    17     16     37      1    1.0960e+02    3.6660e+02 ;    C12 - C11    - H11   
    17     18     19      1    1.1724e+02    6.9580e+02 ;    C12 - N4     - C13   
    17     23     22      1    1.2294e+02    5.7045e+02 ;    C12 - C16    - N5    
    17     23     42      1    1.2032e+02    3.7489e+02 ;    C12 - C16    - H16   
    18     17     23      1    1.2294e+02    5.7045e+02 ;     N4 - C12    - C16   
    18     19     20      1    1.2294e+02    5.7045e+02 ;     N4 - C13    - C14   
    18     19     38      1    1.1602e+02    4.1924e+02 ;     N4 - C13    - H12   
    19     20     21      1    1.2083e+02    5.0827e+02 ;    C13 - C14    - C15   
    19     20     22      1    1.2294e+02    5.7045e+02 ;    C13 - C14    - N5    
    20     19     38      1    1.2032e+02    3.7489e+02 ;    C14 - C13    - H12   
    20     21     39      1    1.1063e+02    3.6493e+02 ;    C14 - C15    - H13   
    20     21     40      1    1.1063e+02    3.6493e+02 ;    C14 - C15    - H14   
    20     21     41      1    1.1063e+02    3.6493e+02 ;    C14 - C15    - H15   
    20     22     23      1    1.1724e+02    6.9580e+02 ;    C14 - N5     - C16   
    21     20     22      1    1.1664e+02    5.5815e+02 ;    C15 - C14    - N5    
    22     23     42      1    1.1602e+02    4.1924e+02 ;     N5 - C16    - H16   
    24     25     26      1    1.1263e+02    5.0099e+02 ;    C17 - C18    - C19   
    24     25     46      1    1.0968e+02    3.6208e+02 ;    C17 - C18    - H20   
    25     24     43      1    1.0968e+02    3.6208e+02 ;    C18 - C17    - H17   
    25     24     44      1    1.0968e+02    3.6208e+02 ;    C18 - C17    - H18   
    25     24     45      1    1.0968e+02    3.6208e+02 ;    C18 - C17    - H19   
    25     26     47      1    1.0968e+02    3.6208e+02 ;    C18 - C19    - H21   
    25     26     48      1    1.0968e+02    3.6208e+02 ;    C18 - C19    - H22   
    25     26     49      1    1.0968e+02    3.6208e+02 ;    C18 - C19    - H23   
    26     25     46      1    1.0968e+02    3.6208e+02 ;    C19 - C18    - H20   
    27      3     28      1    1.0750e+02    2.9932e+02 ;     H1 - C2     - H2    
    29      4     30      1    1.0662e+02    3.0066e+02 ;     H3 - C3     - H4    
    31      5     32      1    1.0750e+02    2.9932e+02 ;     H5 - C4     - H6    
    36     16     37      1    1.0855e+02    2.9824e+02 ;    H10 - C11    - H11   
    39     21     40      1    1.0773e+02    2.9957e+02 ;    H13 - C15    - H14   
    39     21     41      1    1.0773e+02    2.9957e+02 ;    H13 - C15    - H15   
    40     21     41      1    1.0773e+02    2.9957e+02 ;    H14 - C15    - H15   
    43     24     44      1    1.0773e+02    2.9957e+02 ;    H17 - C17    - H18   
    43     24     45      1    1.0773e+02    2.9957e+02 ;    H17 - C17    - H19   
    44     24     45      1    1.0773e+02    2.9957e+02 ;    H18 - C17    - H19   
    47     26     48      1    1.0773e+02    2.9957e+02 ;    H21 - C19    - H22   
    47     26     49      1    1.0773e+02    2.9957e+02 ;    H21 - C19    - H23   
    48     26     49      1    1.0773e+02    2.9957e+02 ;    H22 - C19    - H23   

[ dihedrals ] ; propers
; for gromacs 4.5 or higher, using funct 9
;    i      j      k      l   func   phase     kd      pn
     1      2      3      4      9     0.00   0.71128   3 ;     C1-    N1-    C2-    C3
     1      2      3      4      9   180.00   0.41840   4 ;     C1-    N1-    C2-    C3
     1      2      3      4      9   180.00   4.26768   1 ;     C1-    N1-    C2-    C3
     1      2      3     27      9   180.00   0.00000   2 ;     C1-    N1-    C2-    H1
     1      2      3     28      9   180.00   0.00000   2 ;     C1-    N1-    C2-    H2
     1      2      5      6      9     0.00   0.00000   0 ;     C1-    N1-    C4-    C5
     1      2      5     31      9   180.00   0.00000   2 ;     C1-    N1-    C4-    H5
     1      2      5     32      9   180.00   0.00000   2 ;     C1-    N1-    C4-    H6
     1     25     24     43      9     0.00   0.65084   3 ;     C1-   C18-   C17-   H17
     1     25     24     44      9     0.00   0.65084   3 ;     C1-   C18-   C17-   H18
     1     25     24     45      9     0.00   0.65084   3 ;     C1-   C18-   C17-   H19
     1     25     26     47      9     0.00   0.65084   3 ;     C1-   C18-   C19-   H21
     1     25     26     48      9     0.00   0.65084   3 ;     C1-   C18-   C19-   H22
     1     25     26     49      9     0.00   0.65084   3 ;     C1-   C18-   C19-   H23
     2      1     25     24      9   180.00   0.00000   4 ;     N1-    C1-   C18-   C17
     2      1     25     24      9   180.00   2.97064   2 ;     N1-    C1-   C18-   C17
     2      1     25     26      9   180.00   0.00000   4 ;     N1-    C1-   C18-   C19
     2      1     25     26      9   180.00   2.97064   2 ;     N1-    C1-   C18-   C19
     2      1     25     46      9   180.00   0.00000   2 ;     N1-    C1-   C18-   H20
     2      3      4      7      9     0.00   0.87864   3 ;     N1-    C2-    C3-    C6
     2      3      4     29      9     0.00   0.65084   3 ;     N1-    C2-    C3-    H3
     2      3      4     30      9     0.00   0.65084   3 ;     N1-    C2-    C3-    H4
     2      5      6      7      9     0.00   0.00000   0 ;     N1-    C4-    C5-    C6
     2      5      6     11      9     0.00   0.00000   0 ;     N1-    C4-    C5-    N2
     3      2      5      6      9     0.00   0.00000   0 ;     C2-    N1-    C4-    C5
     3      2      5     31      9     0.00   0.00000   0 ;     C2-    N1-    C4-    H5
     3      2      5     32      9     0.00   0.00000   0 ;     C2-    N1-    C4-    H6
     3      4      7      6      9   180.00   1.00416   2 ;     C2-    C3-    C6-    C5
     3      4      7      8      9   180.00   1.00416   2 ;     C2-    C3-    C6-    C7
     4      3      2      5      9     0.00   0.00000   0 ;     C3-    C2-    N1-    C4
     4      7      6      5      9   180.00  15.16700   2 ;     C3-    C6-    C5-    C4
     4      7      6     11      9   180.00  15.16700   2 ;     C3-    C6-    C5-    N2
     4      7      8      9      9   180.00  15.16700   2 ;     C3-    C6-    C7-    C8
     4      7      8     33      9   180.00  15.16700   2 ;     C3-    C6-    C7-    H7
     5      2      3     27      9     0.00   0.00000   0 ;     C4-    N1-    C2-    H1
     5      2      3     28      9     0.00   0.00000   0 ;     C4-    N1-    C2-    H2
     5      6      7      8      9   180.00  15.16700   2 ;     C4-    C5-    C6-    C7
     5      6     11     10      9   180.00  20.08320   2 ;     C4-    C5-    N2-    C9
     6      7      4     29      9     0.00   0.00000   0 ;     C5-    C6-    C3-    H3
     6      7      4     30      9     0.00   0.00000   0 ;     C5-    C6-    C3-    H4
     6      7      8      9      9   180.00  15.16700   2 ;     C5-    C6-    C7-    C8
     6      7      8     33      9   180.00  15.16700   2 ;     C5-    C6-    C7-    H7
     6     11     10      9      9   180.00  20.08320   2 ;     C5-    N2-    C9-    C8
     6     11     10     13      9   180.00  20.08320   2 ;     C5-    N2-    C9-   C10
     7      4      3     27      9     0.00   0.65084   3 ;     C6-    C3-    C2-    H1
     7      4      3     28      9     0.00   0.65084   3 ;     C6-    C3-    C2-    H2
     7      6      5     31      9     0.00   0.00000   0 ;     C6-    C5-    C4-    H5
     7      6      5     32      9     0.00   0.00000   0 ;     C6-    C5-    C4-    H6
     7      6     11     10      9   180.00  20.08320   2 ;     C6-    C5-    N2-    C9
     7      8      9     10      9   180.00  15.16700   2 ;     C6-    C7-    C8-    C9
     7      8      9     34      9   180.00  15.16700   2 ;     C6-    C7-    C8-    H8
     8      7      4     29      9     0.00   0.00000   0 ;     C7-    C6-    C3-    H3
     8      7      4     30      9     0.00   0.00000   0 ;     C7-    C6-    C3-    H4
     8      7      6     11      9   180.00  15.16700   2 ;     C7-    C6-    C5-    N2
     8      9     10     11      9   180.00  15.16700   2 ;     C7-    C8-    C9-    N2
     8      9     10     13      9   180.00  15.16700   2 ;     C7-    C8-    C9-   C10
     9     10     13     14      9   180.00   8.88054   2 ;     C8-    C9-   C10-    N3
     9     10     13     15      9   180.00   2.42672   2 ;     C8-    C9-   C10-    O2
    10      9      8     33      9   180.00  15.16700   2 ;     C9-    C8-    C7-    H7
    10     13     14     16      9     0.00   2.09200   3 ;     C9-   C10-    N3-   C11
    10     13     14     16      9   180.00   8.36800   2 ;     C9-   C10-    N3-   C11
    10     13     14     16      9   180.00  12.55200   1 ;     C9-   C10-    N3-   C11
    10     13     14     35      9   180.00  10.46000   2 ;     C9-   C10-    N3-    H9
    11      6      5     31      9     0.00   0.00000   0 ;     N2-    C5-    C4-    H5
    11      6      5     32      9     0.00   0.00000   0 ;     N2-    C5-    C4-    H6
    11     10      9     34      9   180.00  15.16700   2 ;     N2-    C9-    C8-    H8
    11     10     13     14      9   180.00   4.18400   2 ;     N2-    C9-   C10-    N3
    11     10     13     15      9   180.00   4.18400   2 ;     N2-    C9-   C10-    O2
    12      1      2      3      9   180.00  10.46000   2 ;     O1-    C1-    N1-    C2
    12      1      2      5      9   180.00  10.46000   2 ;     O1-    C1-    N1-    C4
    12      1     25     24      9     0.00   2.84512   1 ;     O1-    C1-   C18-   C17
    12      1     25     24      9   180.00   0.83680   2 ;     O1-    C1-   C18-   C17
    12      1     25     24      9   180.00   1.84096   3 ;     O1-    C1-   C18-   C17
    12      1     25     26      9     0.00   2.84512   1 ;     O1-    C1-   C18-   C19
    12      1     25     26      9   180.00   0.83680   2 ;     O1-    C1-   C18-   C19
    12      1     25     26      9   180.00   1.84096   3 ;     O1-    C1-   C18-   C19
    12      1     25     46      9     0.00  16.86152   1 ;     O1-    C1-   C18-   H20
    12      1     25     46      9   180.00  15.31344   2 ;     O1-    C1-   C18-   H20
    13     10      9     34      9   180.00  15.16700   2 ;    C10-    C9-    C8-    H8
    13     14     16     17      9     0.00   0.00000   0 ;    C10-    N3-   C11-   C12
    13     14     16     36      9     0.00   0.00000   0 ;    C10-    N3-   C11-   H10
    13     14     16     37      9     0.00   0.00000   0 ;    C10-    N3-   C11-   H11
    14     16     17     18      9     0.00   0.00000   0 ;     N3-   C11-   C12-    N4
    14     16     17     23      9     0.00   0.00000   0 ;     N3-   C11-   C12-   C16
    15     13     14     16      9   180.00  10.46000   2 ;     O2-   C10-    N3-   C11
    15     13     14     35      9     0.00   8.36800   1 ;     O2-   C10-    N3-    H9
    15     13     14     35      9   180.00  10.46000   2 ;     O2-   C10-    N3-    H9
    16     17     18     19      9   180.00  20.08320   2 ;    C11-   C12-    N4-   C13
    16     17     23     22      9   180.00  15.16700   2 ;    C11-   C12-   C16-    N5
    16     17     23     42      9   180.00  15.16700   2 ;    C11-   C12-   C16-   H16
    17     16     14     35      9     0.00   0.00000   0 ;    C12-   C11-    N3-    H9
    17     18     19     20      9   180.00  20.08320   2 ;    C12-    N4-   C13-   C14
    17     18     19     38      9   180.00  20.08320   2 ;    C12-    N4-   C13-   H12
    17     23     22     20      9   180.00  20.08320   2 ;    C12-   C16-    N5-   C14
    18     17     16     36      9     0.00   0.00000   0 ;     N4-   C12-   C11-   H10
    18     17     16     37      9     0.00   0.00000   0 ;     N4-   C12-   C11-   H11
    18     17     23     22      9   180.00  15.16700   2 ;     N4-   C12-   C16-    N5
    18     17     23     42      9   180.00  15.16700   2 ;     N4-   C12-   C16-   H16
    18     19     20     21      9   180.00  15.16700   2 ;     N4-   C13-   C14-   C15
    18     19     20     22      9   180.00  15.16700   2 ;     N4-   C13-   C14-    N5
    19     18     17     23      9   180.00  20.08320   2 ;    C13-    N4-   C12-   C16
    19     20     21     39      9     0.00   0.00000   0 ;    C13-   C14-   C15-   H13
    19     20     21     40      9     0.00   0.00000   0 ;    C13-   C14-   C15-   H14
    19     20     21     41      9     0.00   0.00000   0 ;    C13-   C14-   C15-   H15
    19     20     22     23      9   180.00  20.08320   2 ;    C13-   C14-    N5-   C16
    20     22     23     42      9   180.00  20.08320   2 ;    C14-    N5-   C16-   H16
    21     20     19     38      9   180.00  15.16700   2 ;    C15-   C14-   C13-   H12
    21     20     22     23      9   180.00  20.08320   2 ;    C15-   C14-    N5-   C16
    22     20     19     38      9   180.00  15.16700   2 ;     N5-   C14-   C13-   H12
    22     20     21     39      9     0.00   0.00000   0 ;     N5-   C14-   C15-   H13
    22     20     21     40      9     0.00   0.00000   0 ;     N5-   C14-   C15-   H14
    22     20     21     41      9     0.00   0.00000   0 ;     N5-   C14-   C15-   H15
    23     17     16     36      9     0.00   0.00000   0 ;    C16-   C12-   C11-   H10
    23     17     16     37      9     0.00   0.00000   0 ;    C16-   C12-   C11-   H11
    24     25     26     47      9     0.00   0.54392   3 ;    C17-   C18-   C19-   H21
    24     25     26     48      9     0.00   0.54392   3 ;    C17-   C18-   C19-   H22
    24     25     26     49      9     0.00   0.54392   3 ;    C17-   C18-   C19-   H23
    25      1      2      3      9     0.00   2.09200   3 ;    C18-    C1-    N1-    C2
    25      1      2      3      9     0.00  12.25912   1 ;    C18-    C1-    N1-    C2
    25      1      2      3      9   180.00   5.89944   2 ;    C18-    C1-    N1-    C2
    25      1      2      5      9     0.00   2.09200   3 ;    C18-    C1-    N1-    C4
    25      1      2      5      9     0.00  12.25912   1 ;    C18-    C1-    N1-    C4
    25      1      2      5      9   180.00   5.89944   2 ;    C18-    C1-    N1-    C4
    26     25     24     43      9     0.00   0.54392   3 ;    C19-   C18-   C17-   H17
    26     25     24     44      9     0.00   0.54392   3 ;    C19-   C18-   C17-   H18
    26     25     24     45      9     0.00   0.54392   3 ;    C19-   C18-   C17-   H19
    27      3      4     29      9     0.00   0.65084   3 ;     H1-    C2-    C3-    H3
    27      3      4     30      9     0.00   0.65084   3 ;     H1-    C2-    C3-    H4
    28      3      4     29      9     0.00   0.65084   3 ;     H2-    C2-    C3-    H3
    28      3      4     30      9     0.00   0.65084   3 ;     H2-    C2-    C3-    H4
    33      8      9     34      9   180.00  15.16700   2 ;     H7-    C7-    C8-    H8
    35     14     16     36      9     0.00   0.00000   0 ;     H9-    N3-   C11-   H10
    35     14     16     37      9     0.00   0.00000   0 ;     H9-    N3-   C11-   H11
    43     24     25     46      9     0.00   0.50208   3 ;    H17-   C17-   C18-   H20
    44     24     25     46      9     0.00   0.50208   3 ;    H18-   C17-   C18-   H20
    45     24     25     46      9     0.00   0.50208   3 ;    H19-   C17-   C18-   H20
    46     25     26     47      9     0.00   0.50208   3 ;    H20-   C18-   C19-   H21
    46     25     26     48      9     0.00   0.50208   3 ;    H20-   C18-   C19-   H22
    46     25     26     49      9     0.00   0.50208   3 ;    H20-   C18-   C19-   H23

[ dihedrals ] ; impropers
; treated as propers in GROMACS to use correct AMBER analytical function
;    i      j      k      l   func   phase     kd      pn
     1      3      2      5      4   180.00   4.60240   2 ;     C1-    C2-    N1-    C4
     4      6      7      8      4   180.00  43.93200   2 ;     C3-    C5-    C6-    C7
     5      7      6     11      4   180.00   4.60240   2 ;     C4-    C6-    C5-    N2
     7      9      8     33      4   180.00   4.60240   2 ;     C6-    C8-    C7-    H7
     8     10      9     34      4   180.00   4.60240   2 ;     C7-    C9-    C8-    H8
    10     14     13     15      4   180.00  43.93200   2 ;     C9-    N3-   C10-    O2
    12      1      2     25      4   180.00  43.93200   2 ;     O1-    C1-    N1-   C18
    13      9     10     11      4   180.00  43.93200   2 ;    C10-    C8-    C9-    N2
    13     16     14     35      4   180.00   4.60240   2 ;    C10-   C11-    N3-    H9
    16     23     17     18      4   180.00  43.93200   2 ;    C11-   C16-   C12-    N4
    17     42     23     22      4   180.00  43.93200   2 ;    C12-   H16-   C16-    N5
    20     38     19     18      4   180.00  43.93200   2 ;    C14-   H12-   C13-    N4
    21     19     20     22      4   180.00  43.93200   2 ;    C15-   C13-   C14-    N5

#ifdef POSRES
#include "posre_EDS00444974.itp"
#endif

; TIP3P water
#include "amber14sb.ff/tip3p.itp"

; Ions
#include "amber14sb.ff/ions_tip3p.itp"

[ system ]
CDK2-CCNE + EDS00444974 (active)

[ molecules ]
Protein_chain_A   1
Protein_chain_B   1
 EDS00444974            1
