; Combined topology: CDK2-CCNE + EDS00495858
; Force field: AMBER14SB (protein) + GAFF2/Gasteiger (ligand)
; Water: TIP3P   Ions: NaCl at 0.15 M

; AMBER14SB force field
#include "amber14sb.ff/forcefield.itp"

; GAFF2 atom types for ligand EDS00495858
[ atomtypes ]
;name   bond_type     mass     charge   ptype   sigma         epsilon       Amb
 ca       ca          0.00000  0.00000   A     3.31521e-01   4.13379e-01 ; 1.86  0.0988
 c6       c6          0.00000  0.00000   A     3.39771e-01   4.51035e-01 ; 1.91  0.1078
 n        n           0.00000  0.00000   A     3.18086e-01   6.84502e-01 ; 1.79  0.1636
 c        c           0.00000  0.00000   A     3.31521e-01   4.13379e-01 ; 1.86  0.0988
 o        o           0.00000  0.00000   A     3.04812e-01   6.12119e-01 ; 1.71  0.1463
 nb       nb          0.00000  0.00000   A     3.38417e-01   3.93714e-01 ; 1.90  0.0941
 os       os          0.00000  0.00000   A     3.15610e-01   3.03758e-01 ; 1.77  0.0726
 c3       c3          0.00000  0.00000   A     3.39771e-01   4.51035e-01 ; 1.91  0.1078
 f        f           0.00000  0.00000   A     3.03422e-01   3.48109e-01 ; 1.70  0.0832
 ns       ns          0.00000  0.00000   A     3.26995e-01   4.91202e-01 ; 1.84  0.1174
 na       na          0.00000  0.00000   A     3.20581e-01   8.54373e-01 ; 1.80  0.2042
 cc       cc          0.00000  0.00000   A     3.31521e-01   4.13379e-01 ; 1.86  0.0988
 cd       cd          0.00000  0.00000   A     3.31521e-01   4.13379e-01 ; 1.86  0.0988
 ha       ha          0.00000  0.00000   A     2.62548e-01   6.73624e-02 ; 1.47  0.0161
 hc       hc          0.00000  0.00000   A     2.60018e-01   8.70272e-02 ; 1.46  0.0208
 h1       h1          0.00000  0.00000   A     2.42200e-01   8.70272e-02 ; 1.36  0.0208
 h4       h4          0.00000  0.00000   A     2.53639e-01   6.73624e-02 ; 1.42  0.0161
 hn       hn          0.00000  0.00000   A     1.10650e-01   4.18400e-02 ; 0.62  0.0100

; Chain A — CDK2 (AMBER14SB)
#include "protein_Protein_chain_A.itp"
#ifdef POSRES
#include "protein_posre_Protein_chain_A.itp"
#endif

; Chain B — Cyclin E (AMBER14SB)
#include "protein_Protein_chain_B.itp"
#ifdef POSRES
#include "protein_posre_Protein_chain_B.itp"
#endif

; Ligand EDS00495858 (GAFF2 + Gasteiger charges)
[ moleculetype ]
;name            nrexcl
 EDS00495858      3

[ atoms ]
;   nr  type  resi  res  atom  cgnr     charge      mass       ; qtot   bond_type
     1   ca     1   MOL    C1    1     0.125768     12.01000 ; qtot 0.126
     2   ca     1   MOL    C2    2    -0.030629     12.01000 ; qtot 0.095
     3   ca     1   MOL    C3    3    -0.054765     12.01000 ; qtot 0.040
     4   ca     1   MOL    C4    4    -0.023155     12.01000 ; qtot 0.017
     5   c6     1   MOL    C5    5    -0.010061     12.01000 ; qtot 0.007
     6   c6     1   MOL    C6    6     0.018950     12.01000 ; qtot 0.026
     7    n     1   MOL    N1    7    -0.291456     14.01000 ; qtot -0.265
     8   c6     1   MOL    C7    8     0.057083     12.01000 ; qtot -0.208
     9    c     1   MOL    C8    9     0.247387     12.01000 ; qtot 0.039
    10    o     1   MOL    O1   10    -0.271643     16.00000 ; qtot -0.233
    11   ca     1   MOL    C9   11     0.061898     12.01000 ; qtot -0.171
    12   nb     1   MOL    N2   12    -0.245929     14.01000 ; qtot -0.417
    13   ca     1   MOL   C10   13     0.055797     12.01000 ; qtot -0.361
    14   ca     1   MOL   C11   14    -0.043863     12.01000 ; qtot -0.405
    15   ca     1   MOL   C12   15    -0.011408     12.01000 ; qtot -0.416
    16   ca     1   MOL   C13   16     0.042338     12.01000 ; qtot -0.374
    17   nb     1   MOL    N3   17    -0.231963     14.01000 ; qtot -0.606
    18   ca     1   MOL   C14   18     0.166640     12.01000 ; qtot -0.439
    19   os     1   MOL    O2   19    -0.319707     16.00000 ; qtot -0.759
    20   c3     1   MOL   C15   20     0.150691     12.01000 ; qtot -0.608
    21   c3     1   MOL   C16   21     0.411865     12.01000 ; qtot -0.196
    22    f     1   MOL    F1   22    -0.168430     19.00000 ; qtot -0.365
    23    f     1   MOL    F2   23    -0.168430     19.00000 ; qtot -0.533
    24    f     1   MOL    F3   24    -0.168430     19.00000 ; qtot -0.701
    25    o     1   MOL    O3   25    -0.270144     16.00000 ; qtot -0.972
    26    c     1   MOL   C17   26     0.261768     12.01000 ; qtot -0.710
    27   ns     1   MOL    N4   27    -0.305747     14.01000 ; qtot -1.016
    28   c3     1   MOL   C18   28     0.038493     12.01000 ; qtot -0.977
    29   ca     1   MOL   C19   29    -0.008975     12.01000 ; qtot -0.986
    30   ca     1   MOL   C20   30    -0.055560     12.01000 ; qtot -1.042
    31   ca     1   MOL   C21   31    -0.061801     12.01000 ; qtot -1.103
    32   ca     1   MOL   C22   32    -0.060364     12.01000 ; qtot -1.164
    33   ca     1   MOL   C23   33    -0.039937     12.01000 ; qtot -1.204
    34   ca     1   MOL   C24   34     0.041348     12.01000 ; qtot -1.162
    35   na     1   MOL    N5   35    -0.283028     14.01000 ; qtot -1.445
    36   cc     1   MOL   C25   36     0.000582     12.01000 ; qtot -1.445
    37   cd     1   MOL   C26   37    -0.046454     12.01000 ; qtot -1.491
    38   cd     1   MOL   C27   38    -0.046454     12.01000 ; qtot -1.538
    39   cc     1   MOL   C28   39     0.000582     12.01000 ; qtot -1.537
    40   ha     1   MOL    H1   40     0.064768      1.00800 ; qtot -1.472
    41   ha     1   MOL    H2   41     0.062715      1.00800 ; qtot -1.410
    42   hc     1   MOL    H3   42     0.033291      1.00800 ; qtot -1.376
    43   hc     1   MOL    H4   43     0.033291      1.00800 ; qtot -1.343
    44   h1     1   MOL    H5   44     0.047322      1.00800 ; qtot -1.296
    45   h1     1   MOL    H6   45     0.047322      1.00800 ; qtot -1.248
    46   h1     1   MOL    H7   46     0.053709      1.00800 ; qtot -1.195
    47   h1     1   MOL    H8   47     0.053709      1.00800 ; qtot -1.141
    48   ha     1   MOL    H9   48     0.063315      1.00800 ; qtot -1.078
    49   ha     1   MOL   H10   49     0.066810      1.00800 ; qtot -1.011
    50   h4     1   MOL   H11   50     0.084953      1.00800 ; qtot -0.926
    51   h1     1   MOL   H12   51     0.066959      1.00800 ; qtot -0.859
    52   h1     1   MOL   H13   52     0.066959      1.00800 ; qtot -0.792
    53   hn     1   MOL   H14   53     0.150110      1.00800 ; qtot -0.642
    54   h1     1   MOL   H15   54     0.051880      1.00800 ; qtot -0.590
    55   h1     1   MOL   H16   55     0.051880      1.00800 ; qtot -0.538
    56   ha     1   MOL   H17   56     0.062696      1.00800 ; qtot -0.475
    57   ha     1   MOL   H18   57     0.062286      1.00800 ; qtot -0.413
    58   ha     1   MOL   H19   58     0.062343      1.00800 ; qtot -0.351
    59   ha     1   MOL   H20   59     0.064291      1.00800 ; qtot -0.287
    60   h4     1   MOL   H21   60     0.079593      1.00800 ; qtot -0.207
    61   ha     1   MOL   H22   61     0.063674      1.00800 ; qtot -0.143
    62   ha     1   MOL   H23   62     0.063674      1.00800 ; qtot -0.080
    63   h4     1   MOL   H24   63     0.079593      1.00800 ; qtot 0.000

[ bonds ]
;   ai     aj funct   r             k
     1      2   1    1.3986e-01    2.9644e+05 ;     C1 - C2    
     1     12   1    1.3392e-01    3.2341e+05 ;     C1 - N2    
     1     26   1    1.4907e-01    2.1994e+05 ;     C1 - C17   
     2      3   1    1.3986e-01    2.9644e+05 ;     C2 - C3    
     2     40   1    1.0860e-01    3.0183e+05 ;     C2 - H1    
     3      4   1    1.3986e-01    2.9644e+05 ;     C3 - C4    
     3     41   1    1.0860e-01    3.0183e+05 ;     C3 - H2    
     4      5   1    1.5203e-01    2.0061e+05 ;     C4 - C5    
     4     11   1    1.3986e-01    2.9644e+05 ;     C4 - C9    
     5      6   1    1.5384e-01    1.8979e+05 ;     C5 - C6    
     5     42   1    1.0979e-01    2.8681e+05 ;     C5 - H3    
     5     43   1    1.0979e-01    2.8681e+05 ;     C5 - H4    
     6      7   1    1.4669e-01    2.1117e+05 ;     C6 - N1    
     6     44   1    1.0984e-01    2.8620e+05 ;     C6 - H5    
     6     45   1    1.0984e-01    2.8620e+05 ;     C6 - H6    
     7      8   1    1.4669e-01    2.1117e+05 ;     N1 - C7    
     7      9   1    1.3967e-01    2.6565e+05 ;     N1 - C8    
     8     11   1    1.5203e-01    2.0061e+05 ;     C7 - C9    
     8     46   1    1.0984e-01    2.8620e+05 ;     C7 - H7    
     8     47   1    1.0984e-01    2.8620e+05 ;     C7 - H8    
     9     10   1    1.2190e-01    4.9421e+05 ;     C8 - O1    
     9     13   1    1.4907e-01    2.1994e+05 ;     C8 - C10   
    11     12   1    1.3392e-01    3.2341e+05 ;     C9 - N2    
    13     14   1    1.3986e-01    2.9644e+05 ;    C10 - C11   
    13     16   1    1.3986e-01    2.9644e+05 ;    C10 - C13   
    14     15   1    1.3986e-01    2.9644e+05 ;    C11 - C12   
    14     48   1    1.0860e-01    3.0183e+05 ;    C11 - H9    
    15     18   1    1.3986e-01    2.9644e+05 ;    C12 - C14   
    15     49   1    1.0860e-01    3.0183e+05 ;    C12 - H10   
    16     17   1    1.3392e-01    3.2341e+05 ;    C13 - N3    
    16     50   1    1.0885e-01    2.9859e+05 ;    C13 - H11   
    17     18   1    1.3392e-01    3.2341e+05 ;     N3 - C14   
    18     19   1    1.3688e-01    2.8731e+05 ;    C14 - O2    
    19     20   1    1.4273e-01    2.3620e+05 ;     O2 - C15   
    20     21   1    1.5354e-01    1.9154e+05 ;    C15 - C16   
    20     51   1    1.0969e-01    2.8804e+05 ;    C15 - H12   
    20     52   1    1.0969e-01    2.8804e+05 ;    C15 - H13   
    21     22   1    1.3512e-01    2.7973e+05 ;    C16 - F1    
    21     23   1    1.3512e-01    2.7973e+05 ;    C16 - F2    
    21     24   1    1.3512e-01    2.7973e+05 ;    C16 - F3    
    25     26   1    1.2190e-01    4.9421e+05 ;     O3 - C17   
    26     27   1    1.3798e-01    2.8122e+05 ;    C17 - N4    
    27     28   1    1.4556e-01    2.1896e+05 ;     N4 - C18   
    27     53   1    1.0132e-01    3.9630e+05 ;     N4 - H14   
    28     29   1    1.5147e-01    2.0410e+05 ;    C18 - C19   
    28     54   1    1.0969e-01    2.8804e+05 ;    C18 - H15   
    28     55   1    1.0969e-01    2.8804e+05 ;    C18 - H16   
    29     30   1    1.3986e-01    2.9644e+05 ;    C19 - C20   
    29     34   1    1.3986e-01    2.9644e+05 ;    C19 - C24   
    30     31   1    1.3986e-01    2.9644e+05 ;    C20 - C21   
    30     56   1    1.0860e-01    3.0183e+05 ;    C20 - H17   
    31     32   1    1.3986e-01    2.9644e+05 ;    C21 - C22   
    31     57   1    1.0860e-01    3.0183e+05 ;    C21 - H18   
    32     33   1    1.3986e-01    2.9644e+05 ;    C22 - C23   
    32     58   1    1.0860e-01    3.0183e+05 ;    C22 - H19   
    33     34   1    1.3986e-01    2.9644e+05 ;    C23 - C24   
    33     59   1    1.0860e-01    3.0183e+05 ;    C23 - H20   
    34     35   1    1.3858e-01    2.7557e+05 ;    C24 - N5    
    35     36   1    1.3803e-01    2.8075e+05 ;     N5 - C25   
    35     39   1    1.3803e-01    2.8075e+05 ;     N5 - C28   
    36     37   1    1.3730e-01    3.2321e+05 ;    C25 - C26   
    36     60   1    1.0809e-01    3.0854e+05 ;    C25 - H21   
    37     38   1    1.4279e-01    2.6902e+05 ;    C26 - C27   
    37     61   1    1.0835e-01    3.0510e+05 ;    C26 - H22   
    38     39   1    1.3730e-01    3.2321e+05 ;    C27 - C28   
    38     62   1    1.0835e-01    3.0510e+05 ;    C27 - H23   
    39     63   1    1.0809e-01    3.0854e+05 ;    C28 - H24   

[ pairs ]
;   ai     aj    funct
     1      4      1 ;     C1 - C4    
     1      8      1 ;     C1 - C7    
     1     28      1 ;     C1 - C18   
     1     41      1 ;     C1 - H2    
     1     53      1 ;     C1 - H14   
     2      5      1 ;     C2 - C5    
     2     11      1 ;     C2 - C9    
     2     25      1 ;     C2 - O3    
     2     27      1 ;     C2 - N4    
     3      6      1 ;     C3 - C6    
     3      8      1 ;     C3 - C7    
     3     42      1 ;     C3 - H3    
     3     43      1 ;     C3 - H4    
     4      7      1 ;     C4 - N1    
     4     40      1 ;     C4 - H1    
     4     44      1 ;     C4 - H5    
     4     45      1 ;     C4 - H6    
     4     46      1 ;     C4 - H7    
     4     47      1 ;     C4 - H8    
     5      8      1 ;     C5 - C7    
     5      9      1 ;     C5 - C8    
     5     12      1 ;     C5 - N2    
     5     41      1 ;     C5 - H2    
     6     10      1 ;     C6 - O1    
     6     11      1 ;     C6 - C9    
     6     13      1 ;     C6 - C10   
     6     46      1 ;     C6 - H7    
     6     47      1 ;     C6 - H8    
     7     12      1 ;     N1 - N2    
     7     14      1 ;     N1 - C11   
     7     16      1 ;     N1 - C13   
     7     42      1 ;     N1 - H3    
     7     43      1 ;     N1 - H4    
     8     10      1 ;     C7 - O1    
     8     13      1 ;     C7 - C10   
     8     44      1 ;     C7 - H5    
     8     45      1 ;     C7 - H6    
     9     11      1 ;     C8 - C9    
     9     15      1 ;     C8 - C12   
     9     17      1 ;     C8 - N3    
     9     44      1 ;     C8 - H5    
     9     45      1 ;     C8 - H6    
     9     46      1 ;     C8 - H7    
     9     47      1 ;     C8 - H8    
     9     48      1 ;     C8 - H9    
     9     50      1 ;     C8 - H11   
    10     14      1 ;     O1 - C11   
    10     16      1 ;     O1 - C13   
    11     41      1 ;     C9 - H2    
    11     42      1 ;     C9 - H3    
    11     43      1 ;     C9 - H4    
    12      3      1 ;     N2 - C3    
    12     25      1 ;     N2 - O3    
    12     27      1 ;     N2 - N4    
    12     40      1 ;     N2 - H1    
    12     46      1 ;     N2 - H7    
    12     47      1 ;     N2 - H8    
    13     18      1 ;    C10 - C14   
    13     49      1 ;    C10 - H10   
    14     17      1 ;    C11 - N3    
    14     19      1 ;    C11 - O2    
    14     50      1 ;    C11 - H11   
    15     16      1 ;    C12 - C13   
    15     20      1 ;    C12 - C15   
    16     19      1 ;    C13 - O2    
    16     48      1 ;    C13 - H9    
    17     20      1 ;     N3 - C15   
    17     49      1 ;     N3 - H10   
    18     21      1 ;    C14 - C16   
    18     48      1 ;    C14 - H9    
    18     50      1 ;    C14 - H11   
    18     51      1 ;    C14 - H12   
    18     52      1 ;    C14 - H13   
    19     22      1 ;     O2 - F1    
    19     23      1 ;     O2 - F2    
    19     24      1 ;     O2 - F3    
    19     49      1 ;     O2 - H10   
    22     51      1 ;     F1 - H12   
    22     52      1 ;     F1 - H13   
    23     51      1 ;     F2 - H12   
    23     52      1 ;     F2 - H13   
    24     51      1 ;     F3 - H12   
    24     52      1 ;     F3 - H13   
    25     28      1 ;     O3 - C18   
    25     53      1 ;     O3 - H14   
    26      3      1 ;    C17 - C3    
    26     11      1 ;    C17 - C9    
    26     29      1 ;    C17 - C19   
    26     40      1 ;    C17 - H1    
    26     54      1 ;    C17 - H15   
    26     55      1 ;    C17 - H16   
    27     30      1 ;     N4 - C20   
    27     34      1 ;     N4 - C24   
    28     31      1 ;    C18 - C21   
    28     33      1 ;    C18 - C23   
    28     35      1 ;    C18 - N5    
    28     56      1 ;    C18 - H17   
    29     32      1 ;    C19 - C22   
    29     36      1 ;    C19 - C25   
    29     39      1 ;    C19 - C28   
    29     53      1 ;    C19 - H14   
    29     57      1 ;    C19 - H18   
    29     59      1 ;    C19 - H20   
    30     33      1 ;    C20 - C23   
    30     35      1 ;    C20 - N5    
    30     54      1 ;    C20 - H15   
    30     55      1 ;    C20 - H16   
    30     58      1 ;    C20 - H19   
    31     34      1 ;    C21 - C24   
    31     59      1 ;    C21 - H20   
    32     35      1 ;    C22 - N5    
    32     56      1 ;    C22 - H17   
    33     36      1 ;    C23 - C25   
    33     39      1 ;    C23 - C28   
    33     57      1 ;    C23 - H18   
    34     37      1 ;    C24 - C26   
    34     38      1 ;    C24 - C27   
    34     54      1 ;    C24 - H15   
    34     55      1 ;    C24 - H16   
    34     56      1 ;    C24 - H17   
    34     58      1 ;    C24 - H19   
    34     60      1 ;    C24 - H21   
    34     63      1 ;    C24 - H24   
    35     59      1 ;     N5 - H20   
    35     61      1 ;     N5 - H22   
    35     62      1 ;     N5 - H23   
    36     62      1 ;    C25 - H23   
    36     63      1 ;    C25 - H24   
    37     63      1 ;    C26 - H24   
    38     60      1 ;    C27 - H21   
    39     60      1 ;    C28 - H21   
    39     61      1 ;    C28 - H22   
    40     41      1 ;     H1 - H2    
    42     44      1 ;     H3 - H5    
    42     45      1 ;     H3 - H6    
    43     44      1 ;     H4 - H5    
    43     45      1 ;     H4 - H6    
    48     49      1 ;     H9 - H10   
    53     54      1 ;    H14 - H15   
    53     55      1 ;    H14 - H16   
    56     57      1 ;    H17 - H18   
    57     58      1 ;    H18 - H19   
    58     59      1 ;    H19 - H20   
    60     61      1 ;    H21 - H22   
    61     62      1 ;    H22 - H23   
    62     63      1 ;    H23 - H24   

[ angles ]
;   ai     aj     ak    funct   theta         cth
     1      2      3      1    1.2002e+02    5.3279e+02 ;     C1 - C2     - C3    
     1      2     40      1    1.1988e+02    3.7572e+02 ;     C1 - C2     - H1    
     1     12     11      1    1.1724e+02    6.9580e+02 ;     C1 - N2     - C9    
     1     26     25      1    1.2260e+02    6.5237e+02 ;     C1 - C17    - O3    
     1     26     27      1    1.1509e+02    5.6116e+02 ;     C1 - C17    - N4    
     2      1     12      1    1.2294e+02    5.7045e+02 ;     C2 - C1     - N2    
     2      1     26      1    1.2033e+02    5.1413e+02 ;     C2 - C1     - C17   
     2      3      4      1    1.2002e+02    5.3279e+02 ;     C2 - C3     - C4    
     2      3     41      1    1.1988e+02    3.7572e+02 ;     C2 - C3     - H2    
     3      2     40      1    1.1988e+02    3.7572e+02 ;     C3 - C2     - H1    
     3      4      5      1    1.2060e+02    5.0760e+02 ;     C3 - C4     - C5    
     3      4     11      1    1.2002e+02    5.3279e+02 ;     C3 - C4     - C9    
     4      3     41      1    1.1988e+02    3.7572e+02 ;     C4 - C3     - H2    
     4      5      6      1    1.1197e+02    5.0442e+02 ;     C4 - C5     - C6    
     4      5     42      1    1.0947e+02    3.6560e+02 ;     C4 - C5     - H3    
     4      5     43      1    1.0947e+02    3.6560e+02 ;     C4 - C5     - H4    
     4     11      8      1    1.2060e+02    5.0760e+02 ;     C4 - C9     - C7    
     4     11     12      1    1.2294e+02    5.7045e+02 ;     C4 - C9     - N2    
     5      4     11      1    1.2060e+02    5.0760e+02 ;     C5 - C4     - C9    
     5      6      7      1    1.1117e+02    5.4635e+02 ;     C5 - C6     - N1    
     5      6     44      1    1.0918e+02    3.6217e+02 ;     C5 - C6     - H5    
     5      6     45      1    1.0918e+02    3.6217e+02 ;     C5 - C6     - H6    
     6      5     42      1    1.0945e+02    3.6175e+02 ;     C6 - C5     - H3    
     6      5     43      1    1.0945e+02    3.6175e+02 ;     C6 - C5     - H4    
     6      7      8      1    1.1407e+02    6.4400e+02 ;     C6 - N1     - C7    
     6      7      9      1    1.2047e+02    6.4124e+02 ;     C6 - N1     - C8    
     7      6     44      1    1.0852e+02    4.0217e+02 ;     N1 - C6     - H5    
     7      6     45      1    1.0852e+02    4.0217e+02 ;     N1 - C6     - H6    
     7      8     11      1    1.1189e+02    5.4819e+02 ;     N1 - C7     - C9    
     7      8     46      1    1.0852e+02    4.0217e+02 ;     N1 - C7     - H7    
     7      8     47      1    1.0852e+02    4.0217e+02 ;     N1 - C7     - H8    
     7      9     10      1    1.2257e+02    7.2534e+02 ;     N1 - C8     - O1    
     7      9     13      1    1.1588e+02    5.5647e+02 ;     N1 - C8     - C10   
     8      7      9      1    1.2047e+02    6.4124e+02 ;     C7 - N1     - C8    
     8     11     12      1    1.1569e+02    5.5907e+02 ;     C7 - C9     - N2    
     9     13     14      1    1.2033e+02    5.1413e+02 ;     C8 - C10    - C11   
     9     13     16      1    1.2033e+02    5.1413e+02 ;     C8 - C10    - C13   
    10      9     13      1    1.2260e+02    6.5237e+02 ;     O1 - C8     - C10   
    11      8     46      1    1.0893e+02    3.6652e+02 ;     C9 - C7     - H7    
    11      8     47      1    1.0893e+02    3.6652e+02 ;     C9 - C7     - H8    
    12      1     26      1    1.1768e+02    5.6141e+02 ;     N2 - C1     - C17   
    13     14     15      1    1.2002e+02    5.3279e+02 ;    C10 - C11    - C12   
    13     14     48      1    1.1988e+02    3.7572e+02 ;    C10 - C11    - H9    
    13     16     17      1    1.2294e+02    5.7045e+02 ;    C10 - C13    - N3    
    13     16     50      1    1.2032e+02    3.7489e+02 ;    C10 - C13    - H11   
    14     13     16      1    1.2002e+02    5.3279e+02 ;    C11 - C10    - C13   
    14     15     18      1    1.2002e+02    5.3279e+02 ;    C11 - C12    - C14   
    14     15     49      1    1.1988e+02    3.7572e+02 ;    C11 - C12    - H10   
    15     14     48      1    1.1988e+02    3.7572e+02 ;    C12 - C11    - H9    
    15     18     17      1    1.2294e+02    5.7045e+02 ;    C12 - C14    - N3    
    15     18     19      1    1.1911e+02    6.6107e+02 ;    C12 - C14    - O2    
    16     17     18      1    1.1724e+02    6.9580e+02 ;    C13 - N3     - C14   
    17     16     50      1    1.1602e+02    4.1924e+02 ;     N3 - C13    - H11   
    17     18     19      1    1.1976e+02    7.1521e+02 ;     N3 - C14    - O2    
    18     15     49      1    1.1988e+02    3.7572e+02 ;    C14 - C12    - H10   
    18     19     20      1    1.1839e+02    7.3856e+02 ;    C14 - O2     - C15   
    19     20     21      1    1.0762e+02    6.4802e+02 ;     O2 - C15    - C16   
    19     20     51      1    1.1034e+02    4.7028e+02 ;     O2 - C15    - H12   
    19     20     52      1    1.1034e+02    4.7028e+02 ;     O2 - C15    - H13   
    20     21     22      1    1.0948e+02    6.6408e+02 ;    C15 - C16    - F1    
    20     21     23      1    1.0948e+02    6.6408e+02 ;    C15 - C16    - F2    
    20     21     24      1    1.0948e+02    6.6408e+02 ;    C15 - C16    - F3    
    21     20     51      1    1.0959e+02    3.6217e+02 ;    C16 - C15    - H12   
    21     20     52      1    1.0959e+02    3.6217e+02 ;    C16 - C15    - H13   
    22     21     23      1    1.0737e+02    8.9437e+02 ;     F1 - C16    - F2    
    22     21     24      1    1.0737e+02    8.9437e+02 ;     F1 - C16    - F3    
    23     21     24      1    1.0737e+02    8.9437e+02 ;     F2 - C16    - F3    
    25     26     27      1    1.2305e+02    7.2977e+02 ;     O3 - C17    - N4    
    26     27     28      1    1.2196e+02    6.4350e+02 ;    C17 - N4     - C18   
    26     27     53      1    1.1726e+02    4.8007e+02 ;    C17 - N4     - H14   
    27     28     29      1    1.1202e+02    5.5095e+02 ;     N4 - C18    - C19   
    27     28     54      1    1.0849e+02    4.0493e+02 ;     N4 - C18    - H15   
    27     28     55      1    1.0849e+02    4.0493e+02 ;     N4 - C18    - H16   
    28     27     53      1    1.1742e+02    4.5706e+02 ;    C18 - N4     - H14   
    28     29     30      1    1.2083e+02    5.0827e+02 ;    C18 - C19    - C20   
    28     29     34      1    1.2083e+02    5.0827e+02 ;    C18 - C19    - C24   
    29     28     54      1    1.0960e+02    3.6660e+02 ;    C19 - C18    - H15   
    29     28     55      1    1.0960e+02    3.6660e+02 ;    C19 - C18    - H16   
    29     30     31      1    1.2002e+02    5.3279e+02 ;    C19 - C20    - C21   
    29     30     56      1    1.1988e+02    3.7572e+02 ;    C19 - C20    - H17   
    29     34     33      1    1.2002e+02    5.3279e+02 ;    C19 - C24    - C23   
    29     34     35      1    1.2031e+02    5.6752e+02 ;    C19 - C24    - N5    
    30     29     34      1    1.2002e+02    5.3279e+02 ;    C20 - C19    - C24   
    30     31     32      1    1.2002e+02    5.3279e+02 ;    C20 - C21    - C22   
    30     31     57      1    1.1988e+02    3.7572e+02 ;    C20 - C21    - H18   
    31     30     56      1    1.1988e+02    3.7572e+02 ;    C21 - C20    - H17   
    31     32     33      1    1.2002e+02    5.3279e+02 ;    C21 - C22    - C23   
    31     32     58      1    1.1988e+02    3.7572e+02 ;    C21 - C22    - H19   
    32     31     57      1    1.1988e+02    3.7572e+02 ;    C22 - C21    - H18   
    32     33     34      1    1.2002e+02    5.3279e+02 ;    C22 - C23    - C24   
    32     33     59      1    1.1988e+02    3.7572e+02 ;    C22 - C23    - H20   
    33     32     58      1    1.1988e+02    3.7572e+02 ;    C23 - C22    - H19   
    33     34     35      1    1.2031e+02    5.6752e+02 ;    C23 - C24    - N5    
    34     33     59      1    1.1988e+02    3.7572e+02 ;    C24 - C23    - H20   
    34     35     36      1    1.1732e+02    6.7354e+02 ;    C24 - N5     - C25   
    34     35     39      1    1.1732e+02    6.7354e+02 ;    C24 - N5     - C28   
    35     36     37      1    1.0675e+02    6.0927e+02 ;     N5 - C25    - C26   
    35     36     60      1    1.2101e+02    4.0158e+02 ;     N5 - C25    - H21   
    35     39     38      1    1.0675e+02    6.0927e+02 ;     N5 - C28    - C27   
    35     39     63      1    1.2101e+02    4.0158e+02 ;     N5 - C28    - H24   
    36     35     39      1    1.1048e+02    6.9546e+02 ;    C25 - N5     - C28   
    36     37     38      1    1.1621e+02    5.4032e+02 ;    C25 - C26    - C27   
    36     37     61      1    1.2170e+02    3.7865e+02 ;    C25 - C26    - H22   
    37     36     60      1    1.2911e+02    3.6777e+02 ;    C26 - C25    - H21   
    37     38     39      1    1.1621e+02    5.4032e+02 ;    C26 - C27    - C28   
    37     38     62      1    1.2185e+02    3.6652e+02 ;    C26 - C27    - H23   
    38     37     61      1    1.2185e+02    3.6652e+02 ;    C27 - C26    - H22   
    38     39     63      1    1.2911e+02    3.6777e+02 ;    C27 - C28    - H24   
    39     38     62      1    1.2170e+02    3.7865e+02 ;    C28 - C27    - H23   
    42      5     43      1    1.0662e+02    3.0066e+02 ;     H3 - C5     - H4    
    44      6     45      1    1.0750e+02    2.9932e+02 ;     H5 - C6     - H6    
    46      8     47      1    1.0750e+02    2.9932e+02 ;     H7 - C7     - H8    
    51     20     52      1    1.0855e+02    2.9824e+02 ;    H12 - C15    - H13   
    54     28     55      1    1.0855e+02    2.9824e+02 ;    H15 - C18    - H16   

[ dihedrals ] ; propers
; for gromacs 4.5 or higher, using funct 9
;    i      j      k      l   func   phase     kd      pn
     1      2      3      4      9   180.00  15.16700   2 ;     C1-    C2-    C3-    C4
     1      2      3     41      9   180.00  15.16700   2 ;     C1-    C2-    C3-    H2
     1     12     11      4      9   180.00  20.08320   2 ;     C1-    N2-    C9-    C4
     1     12     11      8      9   180.00  20.08320   2 ;     C1-    N2-    C9-    C7
     1     26     27     28      9     0.00   2.09200   3 ;     C1-   C17-    N4-   C18
     1     26     27     28      9   180.00   8.36800   2 ;     C1-   C17-    N4-   C18
     1     26     27     28      9   180.00  12.55200   1 ;     C1-   C17-    N4-   C18
     1     26     27     53      9   180.00  10.46000   2 ;     C1-   C17-    N4-   H14
     2      1     12     11      9   180.00  20.08320   2 ;     C2-    C1-    N2-    C9
     2      1     26     25      9   180.00   2.42672   2 ;     C2-    C1-   C17-    O3
     2      1     26     27      9   180.00   8.88054   2 ;     C2-    C1-   C17-    N4
     2      3      4      5      9   180.00  15.16700   2 ;     C2-    C3-    C4-    C5
     2      3      4     11      9   180.00  15.16700   2 ;     C2-    C3-    C4-    C9
     3      4      5      6      9   180.00   1.00416   2 ;     C3-    C4-    C5-    C6
     3      4      5     42      9     0.00   0.00000   0 ;     C3-    C4-    C5-    H3
     3      4      5     43      9     0.00   0.00000   0 ;     C3-    C4-    C5-    H4
     3      4     11      8      9   180.00  15.16700   2 ;     C3-    C4-    C9-    C7
     3      4     11     12      9   180.00  15.16700   2 ;     C3-    C4-    C9-    N2
     4      3      2     40      9   180.00  15.16700   2 ;     C4-    C3-    C2-    H1
     4      5      6      7      9     0.00   0.87864   3 ;     C4-    C5-    C6-    N1
     4      5      6     44      9     0.00   0.65084   3 ;     C4-    C5-    C6-    H5
     4      5      6     45      9     0.00   0.65084   3 ;     C4-    C5-    C6-    H6
     4     11      8      7      9     0.00   0.00000   0 ;     C4-    C9-    C7-    N1
     4     11      8     46      9     0.00   0.00000   0 ;     C4-    C9-    C7-    H7
     4     11      8     47      9     0.00   0.00000   0 ;     C4-    C9-    C7-    H8
     5      4      3     41      9   180.00  15.16700   2 ;     C5-    C4-    C3-    H2
     5      4     11      8      9   180.00  15.16700   2 ;     C5-    C4-    C9-    C7
     5      4     11     12      9   180.00  15.16700   2 ;     C5-    C4-    C9-    N2
     5      6      7      8      9     0.00   0.00000   0 ;     C5-    C6-    N1-    C7
     5      6      7      9      9     0.00   0.71128   3 ;     C5-    C6-    N1-    C8
     5      6      7      9      9   180.00   0.41840   4 ;     C5-    C6-    N1-    C8
     5      6      7      9      9   180.00   4.26768   1 ;     C5-    C6-    N1-    C8
     6      5      4     11      9   180.00   1.00416   2 ;     C6-    C5-    C4-    C9
     6      7      8     11      9     0.00   0.00000   0 ;     C6-    N1-    C7-    C9
     6      7      8     46      9     0.00   0.00000   0 ;     C6-    N1-    C7-    H7
     6      7      8     47      9     0.00   0.00000   0 ;     C6-    N1-    C7-    H8
     6      7      9     10      9   180.00  10.46000   2 ;     C6-    N1-    C8-    O1
     6      7      9     13      9     0.00   1.71544   3 ;     C6-    N1-    C8-   C10
     6      7      9     13      9     0.00  20.16688   1 ;     C6-    N1-    C8-   C10
     6      7      9     13      9   180.00   9.12112   2 ;     C6-    N1-    C8-   C10
     7      6      5     42      9     0.00   0.65084   3 ;     N1-    C6-    C5-    H3
     7      6      5     43      9     0.00   0.65084   3 ;     N1-    C6-    C5-    H4
     7      8     11     12      9     0.00   0.00000   0 ;     N1-    C7-    C9-    N2
     7      9     13     14      9   180.00   8.88054   2 ;     N1-    C8-   C10-   C11
     7      9     13     16      9   180.00   8.88054   2 ;     N1-    C8-   C10-   C13
     8      7      6     44      9     0.00   0.00000   0 ;     C7-    N1-    C6-    H5
     8      7      6     45      9     0.00   0.00000   0 ;     C7-    N1-    C6-    H6
     8      7      9     10      9   180.00  10.46000   2 ;     C7-    N1-    C8-    O1
     8      7      9     13      9     0.00   1.71544   3 ;     C7-    N1-    C8-   C10
     8      7      9     13      9     0.00  20.16688   1 ;     C7-    N1-    C8-   C10
     8      7      9     13      9   180.00   9.12112   2 ;     C7-    N1-    C8-   C10
     9      7      6     44      9   180.00   0.00000   2 ;     C8-    N1-    C6-    H5
     9      7      6     45      9   180.00   0.00000   2 ;     C8-    N1-    C6-    H6
     9      7      8     11      9     0.00   0.00000   0 ;     C8-    N1-    C7-    C9
     9      7      8     46      9   180.00   0.00000   2 ;     C8-    N1-    C7-    H7
     9      7      8     47      9   180.00   0.00000   2 ;     C8-    N1-    C7-    H8
     9     13     14     15      9   180.00  15.16700   2 ;     C8-   C10-   C11-   C12
     9     13     14     48      9   180.00  15.16700   2 ;     C8-   C10-   C11-    H9
     9     13     16     17      9   180.00  15.16700   2 ;     C8-   C10-   C13-    N3
     9     13     16     50      9   180.00  15.16700   2 ;     C8-   C10-   C13-   H11
    10      9     13     14      9   180.00   2.42672   2 ;     O1-    C8-   C10-   C11
    10      9     13     16      9   180.00   2.42672   2 ;     O1-    C8-   C10-   C13
    11      4      3     41      9   180.00  15.16700   2 ;     C9-    C4-    C3-    H2
    11      4      5     42      9     0.00   0.00000   0 ;     C9-    C4-    C5-    H3
    11      4      5     43      9     0.00   0.00000   0 ;     C9-    C4-    C5-    H4
    12      1      2      3      9   180.00  15.16700   2 ;     N2-    C1-    C2-    C3
    12      1      2     40      9   180.00  15.16700   2 ;     N2-    C1-    C2-    H1
    12      1     26     25      9   180.00   4.18400   2 ;     N2-    C1-   C17-    O3
    12      1     26     27      9   180.00   4.18400   2 ;     N2-    C1-   C17-    N4
    12     11      8     46      9     0.00   0.00000   0 ;     N2-    C9-    C7-    H7
    12     11      8     47      9     0.00   0.00000   0 ;     N2-    C9-    C7-    H8
    13     14     15     18      9   180.00  15.16700   2 ;    C10-   C11-   C12-   C14
    13     14     15     49      9   180.00  15.16700   2 ;    C10-   C11-   C12-   H10
    13     16     17     18      9   180.00  20.08320   2 ;    C10-   C13-    N3-   C14
    14     13     16     17      9   180.00  15.16700   2 ;    C11-   C10-   C13-    N3
    14     13     16     50      9   180.00  15.16700   2 ;    C11-   C10-   C13-   H11
    14     15     18     17      9   180.00  15.16700   2 ;    C11-   C12-   C14-    N3
    14     15     18     19      9   180.00  15.16700   2 ;    C11-   C12-   C14-    O2
    15     14     13     16      9   180.00  15.16700   2 ;    C12-   C11-   C10-   C13
    15     18     17     16      9   180.00  20.08320   2 ;    C12-   C14-    N3-   C13
    15     18     19     20      9   180.00   6.94544   2 ;    C12-   C14-    O2-   C15
    16     13     14     48      9   180.00  15.16700   2 ;    C13-   C10-   C11-    H9
    16     17     18     19      9   180.00  20.08320   2 ;    C13-    N3-   C14-    O2
    17     18     15     49      9   180.00  15.16700   2 ;     N3-   C14-   C12-   H10
    17     18     19     20      9   180.00   3.76560   2 ;     N3-   C14-    O2-   C15
    18     15     14     48      9   180.00  15.16700   2 ;    C14-   C12-   C11-    H9
    18     17     16     50      9   180.00  20.08320   2 ;    C14-    N3-   C13-   H11
    18     19     20     21      9     0.00   1.60387   3 ;    C14-    O2-   C15-   C16
    18     19     20     51      9     0.00   1.60387   3 ;    C14-    O2-   C15-   H12
    18     19     20     52      9     0.00   1.60387   3 ;    C14-    O2-   C15-   H13
    19     18     15     49      9   180.00  15.16700   2 ;     O2-   C14-   C12-   H10
    19     20     21     22      9     0.00   0.65084   3 ;     O2-   C15-   C16-    F1
    19     20     21     23      9     0.00   0.65084   3 ;     O2-   C15-   C16-    F2
    19     20     21     24      9     0.00   0.65084   3 ;     O2-   C15-   C16-    F3
    22     21     20     51      9     0.00   0.00000   0 ;     F1-   C16-   C15-   H12
    22     21     20     51      9     0.00   0.79496   1 ;     F1-   C16-   C15-   H12
    22     21     20     52      9     0.00   0.00000   0 ;     F1-   C16-   C15-   H13
    22     21     20     52      9     0.00   0.79496   1 ;     F1-   C16-   C15-   H13
    23     21     20     51      9     0.00   0.00000   0 ;     F2-   C16-   C15-   H12
    23     21     20     51      9     0.00   0.79496   1 ;     F2-   C16-   C15-   H12
    23     21     20     52      9     0.00   0.00000   0 ;     F2-   C16-   C15-   H13
    23     21     20     52      9     0.00   0.79496   1 ;     F2-   C16-   C15-   H13
    24     21     20     51      9     0.00   0.00000   0 ;     F3-   C16-   C15-   H12
    24     21     20     51      9     0.00   0.79496   1 ;     F3-   C16-   C15-   H12
    24     21     20     52      9     0.00   0.00000   0 ;     F3-   C16-   C15-   H13
    24     21     20     52      9     0.00   0.79496   1 ;     F3-   C16-   C15-   H13
    25     26     27     28      9   180.00  10.46000   2 ;     O3-   C17-    N4-   C18
    25     26     27     53      9     0.00   8.36800   1 ;     O3-   C17-    N4-   H14
    25     26     27     53      9   180.00  10.46000   2 ;     O3-   C17-    N4-   H14
    26      1      2      3      9   180.00  15.16700   2 ;    C17-    C1-    C2-    C3
    26      1      2     40      9   180.00  15.16700   2 ;    C17-    C1-    C2-    H1
    26      1     12     11      9   180.00  20.08320   2 ;    C17-    C1-    N2-    C9
    26     27     28     29      9     0.00   0.00000   0 ;    C17-    N4-   C18-   C19
    26     27     28     54      9     0.00   0.00000   0 ;    C17-    N4-   C18-   H15
    26     27     28     55      9     0.00   0.00000   0 ;    C17-    N4-   C18-   H16
    27     28     29     30      9     0.00   0.00000   0 ;     N4-   C18-   C19-   C20
    27     28     29     34      9     0.00   0.00000   0 ;     N4-   C18-   C19-   C24
    28     29     30     31      9   180.00  15.16700   2 ;    C18-   C19-   C20-   C21
    28     29     30     56      9   180.00  15.16700   2 ;    C18-   C19-   C20-   H17
    28     29     34     33      9   180.00  15.16700   2 ;    C18-   C19-   C24-   C23
    28     29     34     35      9   180.00  15.16700   2 ;    C18-   C19-   C24-    N5
    29     28     27     53      9     0.00   0.00000   0 ;    C19-   C18-    N4-   H14
    29     30     31     32      9   180.00  15.16700   2 ;    C19-   C20-   C21-   C22
    29     30     31     57      9   180.00  15.16700   2 ;    C19-   C20-   C21-   H18
    29     34     33     32      9   180.00  15.16700   2 ;    C19-   C24-   C23-   C22
    29     34     33     59      9   180.00  15.16700   2 ;    C19-   C24-   C23-   H20
    29     34     35     36      9   180.00   2.56479   2 ;    C19-   C24-    N5-   C25
    29     34     35     39      9   180.00   2.56479   2 ;    C19-   C24-    N5-   C28
    30     29     28     54      9     0.00   0.00000   0 ;    C20-   C19-   C18-   H15
    30     29     28     55      9     0.00   0.00000   0 ;    C20-   C19-   C18-   H16
    30     29     34     33      9   180.00  15.16700   2 ;    C20-   C19-   C24-   C23
    30     29     34     35      9   180.00  15.16700   2 ;    C20-   C19-   C24-    N5
    30     31     32     33      9   180.00  15.16700   2 ;    C20-   C21-   C22-   C23
    30     31     32     58      9   180.00  15.16700   2 ;    C20-   C21-   C22-   H19
    31     30     29     34      9   180.00  15.16700   2 ;    C21-   C20-   C19-   C24
    31     32     33     34      9   180.00  15.16700   2 ;    C21-   C22-   C23-   C24
    31     32     33     59      9   180.00  15.16700   2 ;    C21-   C22-   C23-   H20
    32     31     30     56      9   180.00  15.16700   2 ;    C22-   C21-   C20-   H17
    32     33     34     35      9   180.00  15.16700   2 ;    C22-   C23-   C24-    N5
    33     32     31     57      9   180.00  15.16700   2 ;    C23-   C22-   C21-   H18
    33     34     35     36      9   180.00   2.56479   2 ;    C23-   C24-    N5-   C25
    33     34     35     39      9   180.00   2.56479   2 ;    C23-   C24-    N5-   C28
    34     29     28     54      9     0.00   0.00000   0 ;    C24-   C19-   C18-   H15
    34     29     28     55      9     0.00   0.00000   0 ;    C24-   C19-   C18-   H16
    34     29     30     56      9   180.00  15.16700   2 ;    C24-   C19-   C20-   H17
    34     33     32     58      9   180.00  15.16700   2 ;    C24-   C23-   C22-   H19
    34     35     36     37      9   180.00   7.11280   2 ;    C24-    N5-   C25-   C26
    34     35     36     60      9   180.00   7.11280   2 ;    C24-    N5-   C25-   H21
    34     35     39     38      9   180.00   7.11280   2 ;    C24-    N5-   C28-   C27
    34     35     39     63      9   180.00   7.11280   2 ;    C24-    N5-   C28-   H24
    35     34     33     59      9   180.00  15.16700   2 ;     N5-   C24-   C23-   H20
    35     36     37     38      9   180.00  16.73600   2 ;     N5-   C25-   C26-   C27
    35     36     37     61      9   180.00  16.73600   2 ;     N5-   C25-   C26-   H22
    35     39     38     37      9   180.00  16.73600   2 ;     N5-   C28-   C27-   C26
    35     39     38     62      9   180.00  16.73600   2 ;     N5-   C28-   C27-   H23
    36     35     39     38      9   180.00   7.11280   2 ;    C25-    N5-   C28-   C27
    36     35     39     63      9   180.00   7.11280   2 ;    C25-    N5-   C28-   H24
    36     37     38     39      9   180.00  16.73600   2 ;    C25-   C26-   C27-   C28
    36     37     38     62      9   180.00  16.73600   2 ;    C25-   C26-   C27-   H23
    37     36     35     39      9   180.00   7.11280   2 ;    C26-   C25-    N5-   C28
    37     38     39     63      9   180.00  16.73600   2 ;    C26-   C27-   C28-   H24
    38     37     36     60      9   180.00  16.73600   2 ;    C27-   C26-   C25-   H21
    39     35     36     60      9   180.00   7.11280   2 ;    C28-    N5-   C25-   H21
    39     38     37     61      9   180.00  16.73600   2 ;    C28-   C27-   C26-   H22
    40      2      3     41      9   180.00  15.16700   2 ;     H1-    C2-    C3-    H2
    42      5      6     44      9     0.00   0.65084   3 ;     H3-    C5-    C6-    H5
    42      5      6     45      9     0.00   0.65084   3 ;     H3-    C5-    C6-    H6
    43      5      6     44      9     0.00   0.65084   3 ;     H4-    C5-    C6-    H5
    43      5      6     45      9     0.00   0.65084   3 ;     H4-    C5-    C6-    H6
    48     14     15     49      9   180.00  15.16700   2 ;     H9-   C11-   C12-   H10
    53     27     28     54      9     0.00   0.00000   0 ;    H14-    N4-   C18-   H15
    53     27     28     55      9     0.00   0.00000   0 ;    H14-    N4-   C18-   H16
    56     30     31     57      9   180.00  15.16700   2 ;    H17-   C20-   C21-   H18
    57     31     32     58      9   180.00  15.16700   2 ;    H18-   C21-   C22-   H19
    58     32     33     59      9   180.00  15.16700   2 ;    H19-   C22-   C23-   H20
    60     36     37     61      9   180.00  16.73600   2 ;    H21-   C25-   C26-   H22
    61     37     38     62      9   180.00  16.73600   2 ;    H22-   C26-   C27-   H23
    62     38     39     63      9   180.00  16.73600   2 ;    H23-   C27-   C28-   H24

[ dihedrals ] ; impropers
; treated as propers in GROMACS to use correct AMBER analytical function
;    i      j      k      l   func   phase     kd      pn
     1      3      2     40      4   180.00   4.60240   2 ;     C1-    C3-    C2-    H1
     1     27     26     25      4   180.00  43.93200   2 ;     C1-    N4-   C17-    O3
     2      4      3     41      4   180.00   4.60240   2 ;     C2-    C4-    C3-    H2
     5      3      4     11      4   180.00  43.93200   2 ;     C5-    C3-    C4-    C9
     8      4     11     12      4   180.00  43.93200   2 ;     C7-    C4-    C9-    N2
     9      6      7      8      4   180.00   4.60240   2 ;     C8-    C6-    N1-    C7
     9     14     13     16      4   180.00   4.60240   2 ;     C8-   C11-   C10-   C13
    12      1      2     26      4   180.00  43.93200   2 ;     N2-    C1-    C2-   C17
    13      7      9     10      4   180.00  43.93200   2 ;    C10-    N1-    C8-    O1
    13     15     14     48      4   180.00   4.60240   2 ;    C10-   C12-   C11-    H9
    13     50     16     17      4   180.00  43.93200   2 ;    C10-   H11-   C13-    N3
    14     18     15     49      4   180.00   4.60240   2 ;    C11-   C14-   C12-   H10
    15     17     18     19      4   180.00  43.93200   2 ;    C12-    N3-   C14-    O2
    26     28     27     53      4   180.00   4.60240   2 ;    C17-   C18-    N4-   H14
    29     31     30     56      4   180.00   4.60240   2 ;    C19-   C21-   C20-   H17
    29     33     34     35      4   180.00  43.93200   2 ;    C19-   C23-   C24-    N5
    30     32     31     57      4   180.00   4.60240   2 ;    C20-   C22-   C21-   H18
    30     34     29     28      4   180.00   4.60240   2 ;    C20-   C24-   C19-   C18
    31     33     32     58      4   180.00   4.60240   2 ;    C21-   C23-   C22-   H19
    32     34     33     59      4   180.00   4.60240   2 ;    C22-   C24-   C23-   H20
    34     36     35     39      4   180.00   4.60240   2 ;    C24-   C25-    N5-   C28
    36     38     37     61      4   180.00  43.93200   2 ;    C25-   C27-   C26-   H22
    37     60     36     35      4   180.00  43.93200   2 ;    C26-   H21-   C25-    N5
    38     63     39     35      4   180.00  43.93200   2 ;    C27-   H24-   C28-    N5
    39     37     38     62      4   180.00  43.93200   2 ;    C28-   C26-   C27-   H23

#ifdef POSRES
#include "posre_EDS00495858.itp"
#endif

; TIP3P water
#include "amber14sb.ff/tip3p.itp"

; Ions
#include "amber14sb.ff/ions_tip3p.itp"

[ system ]
CDK2-CCNE + EDS00495858 (active)

[ molecules ]
Protein_chain_A   1
Protein_chain_B   1
 EDS00495858            1
