default_name
  6218
  89.6570000 180.6350000  24.0910000  90.3564188 179.9128901  23.9936773
  89.0627210 180.4077019  24.8753905  90.1119083 181.5356485  24.0463881
  88.7850000 180.5840000  22.9180000  87.7598757 180.3903863  23.2338055
  88.8190000 181.9190000  22.1450000  89.8480902 182.0390549  21.8063859
  88.1673310 181.7785833  21.2826134  88.3830000 183.1780000  22.9180000
  87.3158773 183.2582894  22.7108681  88.5303391 182.9094263  23.9640695
  89.1820000 184.7920000  22.5930000  89.1180000 185.1450000  20.8150000
  88.0787373 185.1801427  20.4882019  89.5931304 186.1059068  20.6174906
  89.6436191 184.3613809  20.2693197  89.1270000 179.3860000  22.0030000
  90.2790000 178.9350000  22.0010000  88.1130000 178.8790000  21.2350000
  87.1966692 179.2586183  21.4255967  88.2180000 177.7370000  20.3050000
  89.0426113 177.0759990  20.5718204  86.8780000 176.9030000  20.2300000
  86.0533444 177.6025630  20.3665838  86.6900000 176.1370000  18.8940000
  87.5140894 175.4368643  18.7569334  85.7482936 175.5886435  18.9183906
  86.6753475 176.8465577  18.0667078  86.7590000 175.9100000  21.4180000
  85.9103063 175.2709688  21.1741581  87.6757668 175.3209318  21.3927633
  86.5640000 176.5130000  22.8550000  85.6471259 177.1018619  22.8811437
  86.4967608 175.7044080  23.5828441  87.4125860 177.1518271  23.0997480
  88.7400000 178.1980000  18.9410000  88.1720000 179.1060000  18.3390000
  89.8310000 177.5770000  18.4700000  90.3496064 176.9554575  19.0740129
  90.3990000 177.9120000  17.1750000  89.9498418 178.8423471  16.8274223
  91.9330000 178.0920000  17.2230000  92.2252515 178.5353078  16.2710722
  92.1006633 178.8111047  18.0247964  92.7950000 176.8790000  17.4750000
  92.3400000 175.7340000  17.5410000  94.0930000 177.1130000  17.5960000
  94.7276527 176.3458593  17.7657377  94.4421787 178.0575036  17.5179740
  89.9500000 176.9360000  16.0660000  90.0460000 177.3080000  14.8940000
  89.4310000 175.7210000  16.4210000  89.4308541 175.4750794  17.4006032
  88.9610000 174.7160000  15.4470000  89.8008694 174.4066051  14.8249121
  88.3660000 173.4570000  16.1410000  89.1523940 172.9462351  16.6967004
  87.5892304 173.7862173  16.8311775  87.7260000 172.4120000  15.2290000
  88.5080000 171.4820000  14.5440000  89.5908606 171.5085045  14.6656979
  87.9190000 170.5210000  13.7070000  88.5436916 169.7988502  13.1812998
  86.5480000 170.4910000  13.5500000  86.0905209 169.7522552  12.8919203
  85.7570000 171.3960000  14.2260000  84.6743301 171.3684317  14.1028499
  86.3430000 172.3510000  15.0710000  85.7146618 173.0571844  15.6137656
  87.9470000 175.3320000  14.4730000  87.0930000 176.1280000  14.8950000
  88.0640000 174.9630000  13.1720000  88.8671044 174.4022173  12.9257371
  87.1830000 175.4280000  12.0940000  86.8922722 176.4623774  12.2774122
  87.9050000 175.3520000  10.7260000  88.9019508 175.7687871  10.8690972
  87.9843945 174.2854121  10.5157933  87.2250000 176.0520000   9.5530000
  86.1370000 176.6440000   9.7550000  87.7940000 176.0330000   8.4420000
  85.8280000 174.6670000  12.0990000  85.7170000 173.5600000  11.5590000
  84.7990000 175.2990000  12.7060000  85.0350785 176.1736819  13.1524279
  83.4390000 174.7720000  12.8820000  83.4244435 173.7882274  13.3511255
  82.5900000 175.7290000  13.7250000  81.5692874 175.3468252  13.7387310
  83.1010000 175.8640000  15.1550000  84.1215677 176.2465895  15.1420957
  82.4618762 176.5538037  15.7061722  83.0854253 174.8882630  15.6405877
  82.5340000 177.0020000  13.0760000  82.0028390 177.6055335  13.6006100
  82.7300000 174.4070000  11.5700000  81.6600000 173.7880000  11.5970000
  83.3170000 174.7780000  10.4330000  84.1496756 175.3484460  10.4696353
  82.7670000 174.4440000   9.1290000  81.6784382 174.4253671   9.1817749
  83.1860000 175.4760000   8.0920000  82.7002058 175.2475175   7.1433699
  82.8781658 176.4661592   8.4280400  84.5920000 175.4520000   7.9200000
  84.8453883 176.1060070   7.2645085  83.2210000 173.0330000   8.7240000
  82.4520000 172.3300000   8.0900000  84.4380000 172.6090000   9.1300000
  85.0224355 173.2927433   9.5893796  85.0100000 171.2870000   8.8380000
  85.1899279 171.2084183   7.7658293  86.3400000 171.0510000   9.5790000
  86.1030357 171.2177640  10.6297792  86.5721535 169.9976196   9.4221739
  87.5390000 171.8960000   9.1910000  87.2361241 172.9407875   9.1218180
  88.6080000 171.7570000  10.2150000  88.9117406 170.7124809  10.2844285
  89.4659076 172.3661717   9.9303859  88.2311544 172.0903005  11.1819532
  88.1040000 171.4830000   7.8500000  87.3396247 171.5993473   7.0816946
  88.9610415 172.1111966   7.6072033  88.4190486 170.4404267   7.8934092
  84.0660000 170.0780000   9.0790000  84.0090000 169.2200000   8.1930000
  83.3340000 169.9310000  10.2170000  83.2400000 170.7830000  11.4210000
  82.4894551 171.5578836  11.2649933  84.2059179 171.2479447  11.6183020
  82.8510000 169.8180000  12.4770000  82.3343080 170.3399835  13.2823953
  83.7394149 169.3269913  12.8741534  81.9580000 168.8370000  11.8050000
  80.9206204 169.1713625  11.8170114  82.0299741 167.8603518  12.2836205
  82.4620000 168.7490000  10.3550000  83.0918449 167.8661163  10.2458669
  81.3230000 168.6960000   9.3230000  81.1580000 167.6680000   8.6830000
  80.6120000 169.8250000   9.1150000  80.8697519 170.5770758   9.7379328
  79.4730000 170.0360000   8.1940000  78.6333058 169.4003165   8.4749260
  79.0090000 171.5300000   8.2470000  77.9976872 171.5721180   7.8425588
  79.0190000 172.1150000   9.6360000  80.0301417 172.0736508  10.0409472
  78.6861686 173.1521850   9.5963815  78.3479327 171.5428338  10.2766209
  79.8570000 172.3420000   7.4390000  79.5611337 173.2543095   7.4808916
  79.7340000 169.5910000   6.7200000  78.7930000 169.2380000   6.0040000
  81.0080000 169.6320000   6.2840000  81.6804318 169.9899586   6.9471745
  81.4670000 169.3220000   4.9290000  80.6532356 169.4595705   4.2169880
  82.6150000 170.2530000   4.5440000  82.8662330 170.0763404   3.4981642
  82.2800122 171.2828447   4.6677056  83.7600000 170.0290000   5.3490000
  84.4609476 170.6282307   5.0821762  81.8570000 167.8400000   4.6910000
  82.2270000 167.4810000   3.5690000  81.7560000 166.9950000   5.7290000
  81.5803173 167.4457385   6.6156057  82.0050000 165.5480000   5.7210000
  82.3054804 165.2146498   6.7143219  80.7310000 164.8010000   5.3190000
  80.4141426 165.2146602   4.3616151  80.8338425 163.7194586   5.2307290
  79.6200000 165.0460000   6.2770000  79.4530000 164.2590000   7.3970000
  78.4300000 164.7800000   8.0560000  78.1287096 164.2925752   8.9832217
  77.9410000 165.8490000   7.4330000  77.1601770 166.4269125   7.7094644
  78.7070000 166.0430000   6.3050000  78.5026912 166.8868182   5.6459629
  83.2190000 165.1040000   4.8720000  83.1130000 164.1970000   4.0460000
  84.3800000 165.7380000   5.1200000  84.3451929 166.4958859   5.7867059
  85.6480000 165.4750000   4.4320000  85.5381537 165.6821921   3.3675262
  86.7520000 166.3560000   4.9860000  86.5658061 166.4804269   6.0527469
  87.6944575 165.8278336   4.8413830  86.8290000 167.7050000   4.3310000
  87.2257441 167.5843909   3.3229581  85.8258097 168.1279525   4.2778724
  87.9030000 168.8320000   5.2640000  89.5600000 167.9070000   5.2260000
  89.8768220 167.7703997   4.1920449  90.3120494 168.4855312   5.7624923
  89.4440364 166.9331171   5.7016110  86.1070000 164.0350000   4.4460000
  86.7630000 163.6200000   3.4910000  85.7880000 163.2750000   5.5340000
  85.3252193 163.7465952   6.2978922  86.1400000 161.8480000   5.7010000
  87.2203413 161.7271330   5.6212940  85.6840000 161.3220000   7.0840000
  86.0234251 160.2917780   7.1913895  86.1815668 161.9470898   7.8254783
  84.1890000 161.3840000   7.2950000  83.5830000 162.5280000   7.7960000
  84.2097347 163.3796563   8.0605461  82.2020000 162.6010000   7.9630000
  81.7420752 163.5118213   8.3463738  81.4130000 161.5190000   7.6230000
  80.0570000 161.5670000   7.8040000  79.7572526 162.4005043   8.1741644
  81.9940000 160.3730000   7.1140000  81.3737480 159.5226988   6.8304939
  83.3750000 160.3070000   6.9640000  83.8387260 159.3982093   6.5803885
  85.5400000 161.0140000   4.5650000  86.0880000 159.9840000   4.1920000
  84.4180000 161.5040000   4.0040000  84.0950429 162.3711040   4.4088810
  83.6500000 160.9250000   2.8980000  83.4855651 159.8588143   3.0539118
  82.2840000 161.6300000   2.8420000  82.2440169 162.1949521   3.7733054
  82.3655606 162.3201001   2.0022323  81.0290000 160.8110000   2.6980000
  80.9304831 160.5302741   1.6493875  81.0470000 159.5580000   3.5580000
  81.1450350 159.8379602   4.6068614  80.1183961 159.0053512   3.4152595
  81.8904978 158.9307865   3.2695297  79.8600000 161.6350000   3.0940000
  79.7991390 162.5129959   2.4509460  78.9484002 161.0462936   2.9914728
  79.9726267 161.9517876   4.1308509  84.4050000 161.1470000   1.5940000
  84.0980000 160.5120000   0.5810000  85.3930000 162.0390000   1.6530000
  85.5599177 162.4811358   2.5456107  86.2360000 162.4130000   0.5310000
  87.2365945 162.6511040   0.8918550  86.2923174 161.5832369  -0.1735714
  85.6710000 163.6150000  -0.1730000  84.4650000 163.8770000  -0.0880000
  86.5450000 164.3750000  -0.8430000  87.5301559 164.1615586  -0.7796756
  86.1330000 165.5250000  -1.6570000  85.1940760 165.9281713  -1.2775612
  87.1920000 166.6240000  -1.6060000  86.8727639 167.4506992  -2.2406306
  87.2890079 166.9724388  -0.5777588  88.4450000 166.1360000  -2.0600000
  89.0961011 166.8403431  -2.0204026  85.9490000 164.9800000  -3.0940000
  85.9050000 163.7550000  -3.2810000  85.8650000 165.8640000  -4.0980000
  85.8052035 166.8451554  -3.8659270  85.6920000 165.4690000  -5.5010000
  85.4943059 166.3553100  -6.1038854  86.9670000 164.7640000  -6.0550000
  87.8453551 165.3143847  -5.7178526  86.9393361 163.7901637  -5.5661466
  87.0370000 164.5720000  -7.5660000  86.4490000 165.4050000  -8.3050000
  87.7390000 163.6320000  -8.0140000  84.3860000 164.6400000  -5.6770000
  84.4030000 163.5080000  -6.1780000  83.2630000 165.2100000  -5.1990000
  83.3578836 166.0817874  -4.6979179  81.9340000 164.6140000  -5.3060000
  82.0309901 163.6065148  -5.7105560  81.2180000 164.5310000  -3.9450000
  81.3323337 165.4932841  -3.4459647  80.1608499 164.3428338  -4.1324224
  81.7700000 163.4480000  -3.0720000  81.7368987 162.5276280  -3.6550270
  82.8078220 163.7097033  -2.8657502  80.9010000 163.1930000  -1.5110000
  79.6860000 162.1320000  -2.0020000  80.1361633 161.2251931  -2.4059223
  79.0590709 161.8763833  -1.1477631  79.0762086 162.6075645  -2.7701758
  81.1050000 165.4070000  -6.2920000  81.2340000 166.6320000  -6.3640000
  80.2530000 164.6950000  -7.0530000  80.2880381 163.6914715  -6.9443623
  79.3350000 165.2520000  -8.0400000  79.8812048 165.8980522  -8.7272962
  78.6610000 164.1260000  -8.8520000  79.4345092 163.3976046  -9.0953578
  77.9173922 163.6626312  -8.2035890  77.9910000 164.6010000 -10.1330000
  77.1525942 165.1963750  -9.7714682  78.7063554 165.2504863 -10.6375130
  77.4830000 163.5510000 -11.1100000  77.8800000 162.3650000 -11.0020000
  76.7110000 163.9370000 -12.0190000  78.3060000 166.1050000  -7.2970000
  77.6360000 165.6170000  -6.3820000  78.2330000 167.3950000  -7.6470000
  78.8917562 167.7780874  -8.3098602  77.3130000 168.3080000  -6.9810000
  76.9136950 167.8259295  -6.0886645  78.0070000 169.6120000  -6.5650000
  78.5558065 169.9926344  -7.4264106  77.2369278 170.3287644  -6.2798024
  78.9640000 169.4100000  -5.4050000  78.3717871 169.1006573  -4.5437847
  79.6322219 168.5994502  -5.6958397  79.7800000 170.6300000  -5.0430000
  79.2970000 171.4400000  -4.2190000  80.9070000 170.7710000  -5.5720000
  76.0710000 168.5720000  -7.7850000  76.1410000 168.7840000  -8.9940000
  74.9270000 168.5210000  -7.1110000  74.9406142 168.1990246  -6.1537927
  73.6440000 168.7990000  -7.7240000  73.8134742 169.1574603  -8.7393245
  72.7360000 167.5680000  -7.7850000  72.3785183 167.3488679  -6.7788751
  71.8852349 167.7633132  -8.4378029  73.3900000 166.3090000  -8.2940000
  73.5600000 166.0950000  -9.6560000  73.2096878 166.8478343 -10.3621315
  74.1740000 164.9270000 -10.1250000  74.3238659 164.7814268 -11.1947894
  74.5890000 163.9610000  -9.2330000  75.0465844 163.0412710  -9.5974379
  74.4250000 164.1590000  -7.8820000  74.7685242 163.4016290  -7.1773863
  73.8200000 165.3270000  -7.4120000  73.6806947 165.4757409  -6.3412199
  72.9900000 169.9660000  -6.9900000  72.8660000 169.9850000  -5.7560000
  72.6180000 170.9550000  -7.8010000  72.8339159 170.7318857  -8.7620930
  72.0250000 172.2570000  -7.5090000  72.3216684 172.6133541  -6.5225423
  72.5420000 173.2550000  -8.5710000  71.8014600 174.0454370  -8.6931031
  73.5009947 173.6953194  -8.2979652  72.7280000 172.6230000  -9.9310000
  73.8250000 171.8080000 -10.2110000  73.6630000 171.4070000 -11.4610000
  74.4255236 170.7504082 -11.8799798  72.5440000 171.9060000 -11.9970000
  72.1910194 171.7656800 -12.9328498  71.9310000 172.6700000 -11.0270000
  70.9829147 173.1636466 -11.2404211  70.4800000 172.1960000  -7.4970000
  69.8750000 172.4940000  -6.4560000  69.8900000 171.7910000  -8.6460000
  70.5352713 171.5748325  -9.3923216  68.4550000 171.6410000  -8.9030000
  68.0576221 172.6244818  -9.1539056  68.3381758 170.9738155  -9.7570001
  67.6780000 171.0800000  -7.7290000  68.1040000 170.1020000  -7.1060000
  66.5600000 171.7280000  -7.3880000  66.2997760 172.5615452  -7.8955285
  65.7480000 171.3340000  -6.2440000  66.1823955 170.4510013  -5.7752644
  65.6810000 172.4700000  -5.1930000  65.0633732 173.2566780  -5.6263290
  65.1789147 172.0543275  -4.3193715  67.0300000 173.0540000  -4.7750000
  67.6908795 173.0270274  -5.6413785  66.8692177 174.0890334  -4.4734094
  67.6630000 172.2900000  -3.6350000  67.3301633 172.7263225  -2.6932243
  67.3395898 171.2504130  -3.6875763  69.1280000 172.3290000  -3.6790000
  69.5833211 171.6277802  -4.2456330  69.8840000 173.2100000  -3.0310000
  69.3250000 174.1540000  -2.2820000  68.3191959 174.2029649  -2.2041505
  69.9083569 174.8184342  -1.7938181  71.2070000 173.1560000  -3.1290000
  71.6394485 172.4425237  -3.6982451  71.7748692 173.8286451  -2.6338516
  64.3460000 170.8930000  -6.6500000  63.6890000 171.5560000  -7.4480000
  63.8970000 169.7710000  -6.0840000  64.5554535 169.2680947  -5.5063975
  62.5600000 169.2100000  -6.2590000  61.9976217 169.7190476  -7.0417518
  62.6420000 167.7010000  -6.6090000  63.2267752 167.2135240  -5.8289325
  61.2720000 167.0300000  -6.7130000  60.6867803 167.5166698  -7.4932372
  61.4007933 165.9762063  -6.9600428  60.7504088 167.1181121  -5.7599631
  63.3610000 167.5280000  -7.8310000  63.4095656 166.5932113  -8.0441006
  61.8000000 169.4390000  -4.9450000  62.3550000 169.2300000  -3.8530000
  60.5380000 169.8900000  -5.0630000  60.2368817 170.1370016  -5.9948891
  59.6060000 170.1020000  -3.9530000  59.9080802 169.4702612  -3.1176840
  59.5730000 171.5630000  -3.4770000  59.4755560 172.1028147  -4.4189151
  58.6823426 171.7276990  -2.8706143  60.8060000 172.0720000  -2.7220000
  61.7008672 171.7164859  -3.2328065  60.8230000 173.5900000  -2.6690000
  59.9286063 173.9462652  -2.1578896  61.7078781 173.9252973  -2.1280127
  60.8447308 173.9892554  -3.6830135  60.9130000 171.4670000  -1.3200000
  60.9860527 170.3821426  -1.3964661  61.8013124 171.8562918  -0.8225523
  60.0279363 171.7311397  -0.7412156  58.2270000 169.6490000  -4.3950000
  57.7480000 170.0680000  -5.4520000  57.6220000 168.7440000  -3.6240000
  58.1149812 168.3624527  -2.8293362  56.2940000 168.2310000  -3.9230000
  56.1293403 168.2594868  -5.0001141  56.1330000 166.7850000  -3.4410000
  56.1774795 166.7271228  -2.3534472  55.1702769 166.4072683  -3.7853587
  57.1760000 165.8420000  -3.9640000  57.9120000 165.0400000  -3.1100000
  58.7330000 164.3460000  -3.8810000  59.3928124 163.6259565  -3.3969711
  58.5900000 164.6750000  -5.1620000  59.1024730 164.3146154  -5.9542084
  57.5930000 165.6210000  -5.2310000  57.2959155 166.0302645  -6.1965799
  55.2440000 169.1270000  -3.2980000  55.4710000 169.7000000  -2.2290000
  54.0890000 169.2550000  -3.9680000  53.9850566 168.7945588  -4.8609104
  52.9800000 170.0690000  -3.4750000  53.3186737 171.0942019  -3.3254664
  51.8120000 170.0780000  -4.4790000  51.4797923 169.0493550  -4.6190954
  51.0263494 170.6487618  -3.9839402  52.1150000 170.7020000  -5.8340000
  53.3200000 170.8690000  -6.1610000  51.1480000 170.9870000  -6.5890000
  52.5020000 169.5390000  -2.1340000  52.7320000 168.3720000  -1.8120000
  51.8740000 170.4050000  -1.3410000  51.8053468 171.3689739  -1.6344969
  51.3500000 170.0430000  -0.0310000  52.1056406 169.4943784   0.5312463
  50.9690000 171.3020000   0.7590000  50.2798763 171.8092532   0.0837948
  50.4464483 171.0352638   1.6776357  52.1330000 172.2300000   1.0880000
  53.2280000 171.7180000   1.4360000  51.9240000 173.4650000   1.0930000
  50.1650000 169.0940000  -0.1680000  49.4550000 169.1230000  -1.1780000
  50.0080000 168.2040000   0.8260000  50.7613383 168.1926922   1.4986462
  48.9660000 167.1820000   0.9340000  49.1909991 166.5265674   1.7753576
  47.5780000 167.8100000   1.1570000  47.3295879 168.4259725   0.2927266
  46.8689883 166.9853927   1.2306564  47.5050000 168.6550000   2.4190000
  47.8870000 168.1450000   3.5020000  47.0900000 169.8330000   2.3240000
  48.9860000 166.2030000  -0.2320000  48.1970000 165.2570000  -0.2450000
  49.9270000 166.3890000  -1.1800000  50.5322112 167.1946793  -1.1114461
  50.0730000 165.5110000  -2.3350000  49.0938704 165.3454897  -2.7844561
  50.9980000 166.1110000  -3.3890000  50.8067736 165.5973235  -4.3311614
  50.7443710 167.1659715  -3.4929587  52.3690000 165.9860000  -3.0530000
  52.9053361 166.3777330  -3.7461729  50.5850000 164.1610000  -1.9190000
  51.3650000 164.0400000  -0.9750000  50.1240000 163.1490000  -2.6170000
  49.4245701 163.3210694  -3.3250178  50.5330000 161.7900000  -2.3780000
  50.8786470 161.6823226  -1.3498789  49.3640000 160.8380000  -2.6010000
  48.5652273 161.0430528  -1.8882485  48.9794520 160.9390977  -3.6158902
  49.7840000 159.0880000  -2.3950000  48.5669418 158.6209593  -2.6587055
  51.7070000 161.4860000  -3.3080000  51.6940000 161.8830000  -4.4790000
  52.7400000 160.8230000  -2.7660000  52.6967021 160.5889775  -1.7844410
  53.9400000 160.4580000  -3.5120000  53.7181892 160.4490199  -4.5791544
  55.0800000 161.4690000  -3.2530000  55.2826156 161.4237809  -2.1829526
  55.9434940 161.0933378  -3.8019590  54.8080000 162.9240000  -3.6610000
  53.8494699 163.1829766  -3.2112756  55.5938686 163.5353569  -3.2174288
  54.7430000 163.2200000  -5.1370000  54.9100000 162.3570000  -6.0070000
  54.5130000 164.4780000  -5.4480000  54.4557541 164.7528184  -6.4182057
  54.3948087 165.1627360  -4.7150138  54.4070000 159.0540000  -3.1350000
  54.1420000 158.5940000  -2.0290000  55.0960000 158.3800000  -4.0600000
  55.0982034 158.7491537  -5.0001170  55.6670000 157.0520000  -3.8350000
  55.6080331 156.7491384  -2.7895829  55.0510000 155.9280000  -4.7130000
  54.0084122 155.8018495  -4.4211164  55.1260000 156.2550000  -6.2000000
  56.1683832 156.3808460  -6.4927472  54.6835880 155.4410322  -6.7743070
  54.5797338 157.1772777  -6.3977339  55.6750000 154.5710000  -4.4090000
  55.5067857 154.3195542  -3.3618223  55.2185853 153.8104994  -5.0425803
  56.7465021 154.6111473  -4.6048885  57.1960000 157.1940000  -3.9150000
  57.7540000 157.5030000  -4.9740000  57.8520000 157.0890000  -2.7590000
  57.3438289 156.8961497  -1.9077243  59.2830000 157.3460000  -2.6660000
  59.7363056 157.4867908  -3.6472192  59.5330000 158.6230000  -1.7860000
  59.3348389 158.3707815  -0.7442619  60.9550000 159.1150000  -1.9230000
  61.1537769 159.3678718  -2.9644626  61.0954268 159.9995203  -1.3017071
  61.6431002 158.3330463  -1.6018057  58.5550000 159.7610000  -2.1340000
  58.8276706 160.0970600  -3.1344075  57.5637177 159.3085217  -2.1608750
  58.5440000 160.9120000  -1.2160000  59.5348961 161.3653135  -1.1889514
  57.8180050 161.6472564  -1.5630279  58.2709453 160.5767744  -0.2154178
  60.0380000 156.1220000  -2.1350000  59.5830000 155.4930000  -1.1760000
  61.2120000 155.7840000  -2.7030000  61.9100000 156.3940000  -3.8540000
  61.9531206 157.4750324  -3.7212976  61.3687708 156.1623738  -4.7713436
  63.2640000 155.7550000  -3.8130000  63.9368864 156.3501661  -3.1956669
  63.6692284 155.6789813  -4.8220156  63.0420000 154.4160000  -3.2320000
  63.9526208 154.0478363  -2.7594280  62.6988724 153.6923727  -3.9714096
  61.9620000 154.6340000  -2.1770000  61.2758383 153.7884297  -2.1291324
  62.5610000 154.8830000  -0.7910000  62.8040000 156.0270000  -0.4060000
  62.7760000 153.7990000  -0.0420000  62.4762306 152.9114927  -0.4195822
  63.3420000 153.8230000   1.3030000  63.6658947 154.8176884   1.6092458
  62.3200000 153.2910000   2.3450000  61.8692683 152.3827687   1.9449299
  62.9750000 152.9840000   3.6900000  63.4255824 153.8919213   4.0909430
  62.2215059 152.6150655   4.3858695  63.7460736 152.2255855   3.5545213
  61.1640000 154.2640000   2.5280000  60.6503846 154.4018914   1.5765342
  60.4651622 153.8646435   3.2630101  61.5474040 155.2232757   2.8756957
  64.6290000 153.0080000   1.2770000  64.6650000 151.9300000   0.6710000
  65.6880000 153.5360000   1.9090000  65.6524142 154.4921470   2.2324438
  66.9560000 152.8320000   1.9800000  67.0606860 152.2110272   1.0903187
  68.1570000 153.7810000   2.0590000  67.8882877 154.5710182   2.7602590
  68.9929753 153.2083037   2.4605772  68.5620000 154.4040000   0.7190000
  67.6670713 154.7831544   0.2255981  69.5210000 155.5090000   0.9150000
  70.4164432 155.1304998   1.4079685  69.7909357 155.9324057  -0.0524519
  69.0647442 156.2811763   1.5344150  69.2130000 153.3830000  -0.1950000
  68.5128563 152.5707394  -0.3902717  69.4872831 153.8596934  -1.1360810
  70.1072488 152.9839665   0.2837383  66.9280000 151.7840000   3.0910000
  66.5980000 152.0930000   4.2350000  67.1930000 150.5130000   2.7390000
  67.5240000 149.9880000   1.4000000  68.2704589 150.6308742   0.9335108
  66.6241667 149.9714622   0.7850809  68.0440000 148.6190000   1.6840000
  69.1280658 148.6684948   1.7862288  67.7876546 147.9650102   0.8505219
  67.4070000 148.1580000   2.9290000  68.0330923 147.5007650   3.5324481
  66.4933870 147.6331171   2.6498783  67.0610000 149.4250000   3.7250000
  66.0063111 149.4191232   4.0001272  67.9090000 149.4910000   4.9790000
  67.5360000 148.8600000   5.9600000  69.0330000 150.2020000   4.9660000
  69.3716643 150.6654889   4.1349862  69.8860000 150.1940000   6.1500000
  69.4763069 149.5173967   6.8999725  71.2860000 149.7230000   5.7830000
  71.6906931 150.2360211   4.9105711  71.9465038 149.8809671   6.6355732
  71.3260000 148.2700000   5.4780000  70.9170000 147.7840000   4.2540000
  71.0470000 146.4710000   4.3300000  70.7714913 145.8853890   3.4529289
  71.5130000 146.0950000   5.5230000  71.7106326 145.1583257   5.8449978
  71.6850000 147.2350000   6.2660000  72.0511375 147.1677724   7.2904633
  69.9350000 151.5000000   6.9250000  70.7040000 151.5930000   7.8740000
  69.0970000 152.4870000   6.5630000  68.4949984 152.3508570   5.7635261
  69.0130000 153.7510000   7.2840000  69.9836513 154.0082690   7.7079668
  68.5130000 154.9460000   6.4280000  67.4788053 154.7640055   6.1357354
  68.5950000 156.2410000   7.2200000  69.6290391 156.4239195   7.5122406
  68.2404832 157.0673567   6.6039213  67.9743562 156.1615731   8.1125213
  69.2840000 155.0890000   5.1250000  69.1700402 154.1807448   4.5332333
  68.8955487 155.9388308   4.5637578  70.3398134 155.2500623   5.3427563
  68.0310000 153.4440000   8.3760000  66.9490000 152.9150000   8.1000000
  68.4060000 153.7230000   9.6100000  69.3618491 153.9898846   9.7976819
  67.5160000 153.5060000  10.7400000  66.5131111 153.2926512  10.3701413
  67.9790000 152.3280000  11.6110000  68.9966273 152.5593747  11.9256421
  67.3242411 152.3136566  12.4823123  67.9550000 150.9780000  10.9430000
  67.0403633 150.8850991  10.3574148  68.8184712 150.8900000  10.2836249
  68.0100000 149.6480000  12.1800000  67.8420000 148.1920000  11.0920000
  68.6693527 148.1704191  10.3826900  67.8569340 147.2838376  11.6945933
  66.8992475 148.2510631  10.5480969  67.3250000 154.8060000  11.5270000
  66.3990000 154.8880000  12.3310000  68.1640000 155.8380000  11.2510000
  68.9679308 155.6476347  10.6700046  68.0410000 157.1740000  11.8560000
  67.6981979 157.1262391  12.8895883  69.3170000 158.0550000  11.7970000
  69.0932442 159.0140813  12.2641141  70.4860000 157.4030000  12.5150000
  70.7106583 156.4440126  12.0481244  71.3598411 158.0513648  12.4507703
  70.2275729 157.2450769  13.5620804  69.6810000 158.4500000  10.3680000
  68.8599612 159.0146626   9.9262381  70.5804063 159.0656754  10.3785769
  69.8628944 157.5520903   9.7774295  66.8510000 157.9420000  11.2780000
  66.3080000 157.6040000  10.2080000  66.4880000 159.0010000  12.0060000
  67.0511882 159.1418874  12.8324800  65.4320000 159.9570000  11.7210000
  64.7292669 159.5413606  10.9988440  64.6780000 160.2760000  13.0060000
  64.4003521 159.3254441  13.4614716  65.3689326 160.8048199  13.6625529
  63.4500000 161.1080000  12.8000000  63.7001579 161.9654627  12.1752763
  62.6899396 160.5058431  12.3021874  62.8030000 161.6930000  14.3780000
  62.8290000 160.0880000  15.3750000  63.8502573 159.7112462  15.4314717
  62.4564889 160.2787795  16.3814489  62.1952711 159.3468406  14.8879972
  66.0800000 161.2300000  11.2110000  67.0160000 161.7610000  11.8280000
  65.5660000 161.7260000  10.1030000  64.8200288 161.2325147   9.6338532
  66.0700000 162.9360000   9.5010000  67.0034517 163.2406718   9.9742253
  66.3380000 162.6730000   8.0100000  66.9297406 161.7585239   7.9690637
  65.3499650 162.4849207   7.5898655  67.0280000 163.7560000   7.2100000
  66.4709042 164.6838422   7.3398229  68.4430000 163.9590000   7.6490000
  69.0008805 163.0316511   7.5190304  68.9009887 164.7451080   7.0486822
  68.4600096 164.2484202   8.6997364  67.0630000 163.3790000   5.8050000
  66.0449656 163.2508021   5.4372084  67.5604703 164.1606341   5.2308287
  67.6098186 162.4427592   5.6930110  65.0560000 164.0550000   9.7100000
  63.8510000 163.8290000   9.5740000  65.5510000 165.2450000  10.0810000
  66.5450951 165.2893528  10.2539367  64.7590000 166.4620000  10.2680000
  63.6830650 166.3072487  10.3487157  65.2700000 167.2570000  11.5260000
  66.3475712 167.3782781  11.4154004  64.6230000 168.6190000  11.6980000
  63.5453969 168.4984942  11.8091327  65.0273280 169.1043209  12.5863036
  64.8309241 169.2337920  10.8222731  65.1880000 166.4430000  12.8500000
  66.0183649 165.7391910  12.7930101  65.3843800 167.1730031  13.6352579
  63.8460000 165.6540000  13.1830000  63.6491944 164.9234420  12.3983648
  63.9534402 165.1403197  14.1383472  63.0152087 166.3572543  13.2406104
  64.9190000 167.3000000   8.9680000  66.0290000 167.3120000   8.4240000
  63.8840000 168.0370000   8.4610000  62.4860000 168.1460000   8.9160000
  62.4367527 168.7822491   9.7996640  62.1018047 167.1556052   9.1601540
  61.7960000 168.7500000   7.7340000  60.9033156 169.2886042   8.0519923
  61.5167718 167.9732763   7.0220778  62.7990000 169.6650000   7.1500000
  62.8292171 170.5709210   7.7553867  62.6328385 169.9315102   6.1062269
  64.1150000 168.9030000   7.2900000  64.3380774 168.2737818   6.4283625
  65.2800000 169.8600000   7.5360000  65.4450000 170.3640000   8.6530000
  66.1350000 169.9950000   6.5230000  65.9501270 169.4712370   5.6794399
  67.3140000 170.8490000   6.5610000  67.4604738 171.2371044   5.5530220
  67.0902216 171.6732773   7.2381924  68.5850000 170.1700000   7.0160000
  69.6790000 170.6470000   6.6940000  68.4480000 169.0570000   7.7730000
  67.5021034 168.8008724   8.0174945  69.5540000 168.2480000   8.3170000
  70.3152147 168.8983415   8.7479376  69.0270000 167.3050000   9.4220000
  68.6267828 167.9538731  10.2010309  68.2135553 166.7394201   8.9675474
  70.0420000 166.3350000  10.0370000  70.5038193 165.7858456   9.2164799
  70.8031431 166.9143048  10.5596558  69.4390000 165.3380000  11.0090000
  68.2300000 165.3040000  11.2640000  70.2890000 164.5060000  11.5900000
  69.9487283 163.8187103  12.2472286  71.2738897 164.5623203  11.3733859
  70.2460000 167.4680000   7.2010000  69.5720000 166.8820000   6.3560000
  71.5930000 167.4870000   7.2040000  72.0049472 168.0922271   7.8997723
  72.4860000 166.7880000   6.2740000  72.0896294 166.7421522   5.2596591
  73.8250000 167.5300000   6.2430000  74.1371095 167.6858565   7.2756648
  74.9060000 166.7860000   5.4980000  74.5947854 166.6301690   4.4650616
  75.8270004 167.3687113   5.5154615  75.0781582 165.8209427   5.9745779
  73.6190000 168.8090000   5.6500000  74.4510356 169.2871322   5.6234149
  72.6270000 165.3180000   6.7020000  72.8730000 165.0380000   7.8740000
  72.4670000 164.3900000   5.7650000  72.2393371 164.6906337   4.8280431
  72.5650000 162.9600000   6.0270000  72.8160877 162.7921945   7.0743278
  71.2200000 162.2630000   5.7240000  70.5033314 162.6803950   6.4312955
  70.9501882 162.5663994   4.7124416  71.2010000 160.7410000   5.8200000
  72.1181077 160.3571549   5.3731473  71.1050000 160.2720000   7.2550000
  70.1878516 160.6550927   7.7024121  71.0940946 159.1823817   7.2817150
  71.9637836 160.6401110   7.8163248  70.0420000 160.1900000   5.0870000
  70.1052342 160.4772981   4.0374474  70.0446531 159.1028971   5.1663819
  69.1200927 160.5828450   5.5157875  73.6860000 162.3600000   5.1690000
  73.5320000 162.2310000   3.9440000  74.8210000 161.9710000   5.7790000
  75.1930000 162.0280000   7.2070000  74.6404690 161.2673265   7.7585302
  74.9526790 163.0128504   7.6075178  76.6950000 161.7600000   7.1840000
  76.8791907 160.8151456   7.6952954  77.1925793 162.5667749   7.7221733
  77.1510000 161.7080000   5.7560000  77.8779203 160.9006841   5.6669669
  77.5834207 162.6300595   5.3675179  75.8890000 161.3570000   4.9770000
  75.8930625 161.8020449   3.9820041  75.6530000 159.8520000   4.8600000
  75.2230000 159.2200000   5.8310000  75.8550000 159.2900000   3.6610000
  76.0919616 159.8539012   2.8572812  75.6670000 157.8590000   3.4690000
  75.5819435 157.3712820   4.4400797  74.4000000 157.5690000   2.6640000
  74.5260399 158.0646132   1.7014094  74.4285359 156.4886245   2.5223156
  73.0670000 157.9640000   3.2640000  73.0574187 159.0403193   3.4358891
  71.9660000 157.6020000   2.3450000  71.9746513 156.5256937   2.1729864
  71.0127470 157.8910404   2.7875666  72.0980959 158.1221201   1.3962502
  72.8190000 157.2410000   4.5330000  73.6070873 157.4790400   5.2473912
  71.8550537 157.5438293   4.9419049  72.8121261 156.1674033   4.3447401
  76.8560000 157.2110000   2.7960000  77.5270000 157.8290000   1.9690000
  77.1150000 155.9600000   3.1630000  76.5895799 155.5702764   3.9325119
  78.1590000 155.1470000   2.5590000  78.4726670 155.6025792   1.6197664
  79.3870000 155.0280000   3.4830000  79.5214827 155.9938103   3.9700566
  79.1562936 154.2721005   4.2336600  80.6770000 154.6420000   2.7490000
  80.6302384 153.5719581   2.5467020  80.7558912 155.1860733   1.8077973
  81.9070000 154.9230000   3.5720000  82.0620000 155.9910000   4.1820000
  82.8340000 153.9810000   3.5790000  83.6806860 154.1139366   4.1133708
  82.6914415 153.1325411   3.0499481  77.4870000 153.8070000   2.2630000
  77.3010000 152.9850000   3.1610000  77.0200000 153.6450000   1.0220000
  77.1225953 154.4064746   0.3664620  76.2970000 152.4460000   0.5870000
  75.9579997 151.8788938   1.4539305  75.0710000 152.8460000  -0.2480000
  75.4985086 153.1104422  -1.2151639  74.4611405 151.9488164  -0.3539859
  74.1980000 154.0000000   0.2570000  74.8413788 154.7778216   0.6682884
  73.3790000 154.5700000  -0.8660000  72.7349855 153.7928286  -1.2775200
  72.7651082 155.3883023  -0.4896771  74.0418175 154.9430334  -1.6467813
  73.2870000 153.5580000   1.3700000  73.8839519 153.1878303   2.2035000
  72.6831756 154.4021971   1.7029093  72.6329988 152.7633284   1.0110035
  77.2090000 151.4740000  -0.2050000  77.9870000 151.9040000  -1.0570000
  77.0910000 150.1660000   0.0830000  76.4738155 149.9221664   0.8443986
  77.8900000 149.1000000  -0.5340000  78.2078724 149.4142968  -1.5281196
  79.1360000 148.7850000   0.3020000  79.5825550 147.8404391  -0.0086326
  79.8625357 149.5880061   0.1777943  78.8690000 148.6700000   1.7810000
  78.8790000 149.7970000   2.5950000  79.1081036 150.7685841   2.1572377
  78.5990000 149.6940000   3.9630000  78.5951554 150.5883862   4.5860243
  78.3270000 148.4570000   4.5250000  78.1174089 148.3733138   5.5913809
  78.3220000 147.3300000   3.7310000  78.1130043 146.3541149   4.1692571
  78.5860000 147.4400000   2.3590000  78.5710632 146.5512315   1.7281534
  77.0920000 147.8170000  -0.8460000  77.6340000 146.9260000  -1.4940000
  75.8060000 147.7360000  -0.4360000  75.4138445 148.4677368   0.1392171
  74.9680000 146.5820000  -0.7560000  75.5785985 145.6792398  -0.7388954
  73.8290000 146.4190000   0.2450000  73.1786121 147.2936593   0.2531239
  73.2494773 145.5385108  -0.0324749  74.2810000 146.2070000   1.6600000
  74.9580000 145.0600000   2.0370000  75.1880000 145.1890000   3.3330000
  75.7221884 144.3799568   3.8311876  74.7020000 146.3330000   3.8040000
  74.7455830 146.6810678   4.7511268  74.1090000 146.9870000   2.7500000
  73.6255725 147.9508829   2.9091500  74.4370000 146.7720000  -2.1770000
  73.9020000 147.8500000  -2.4870000  74.6160000 145.7610000  -3.0700000
  75.2690000 144.4560000  -2.8690000  75.0780048 144.0992614  -1.8568939
  76.3437318 144.5530874  -3.0227030  74.6350000 143.6240000  -3.8850000
  73.7327977 143.1781119  -3.4662949  75.3265508 142.8347553  -4.1798756
  74.3180000 144.5120000  -5.0390000  73.3852682 144.2524263  -5.5397314
  75.1420677 144.4445095  -5.7492515  74.2290000 145.9260000  -4.4790000
  75.0038743 146.5505142  -4.9235786  72.8700000 146.5350000  -4.7560000
  72.7650000 147.3220000  -5.6920000  71.8490000 146.1770000  -3.9670000
  72.0116063 145.4509281  -3.2840080  70.4820000 146.6620000  -4.1510000
  70.2490251 146.6752173  -5.2157287  69.4470000 145.7640000  -3.4290000
  68.4765203 146.0767366  -3.8143107  69.6614828 144.7498362  -3.7659999
  69.4230000 145.7990000  -1.8790000  69.2718777 146.8485056  -1.6264115
  68.5587377 145.2195899  -1.5542898  70.6560000 145.2920000  -1.1380000
  71.5440000 144.6040000  -1.6830000  70.7040000 145.6080000   0.1550000
  71.4888495 145.3089990   0.7159911  69.9553302 146.1451770   0.5685648
  70.3340000 148.1350000  -3.7830000  69.6450000 148.8590000  -4.4970000
  71.0020000 148.5810000  -2.6940000  71.5468280 147.9100031  -2.1714820
  70.9940000 149.9820000  -2.2370000  69.9622971 150.3274487  -2.1710187
  71.6570000 150.1460000  -0.8570000  72.7276735 150.0465795  -1.0355301
  71.4341016 151.1670009  -0.5472042  71.2360000 149.1840000   0.2350000
  70.1543897 149.1145926   0.3507693  71.6300225 148.2174905  -0.0791733
  71.8610000 149.5780000   1.5580000  73.1130000 149.5980000   1.6460000
  71.0960000 149.9610000   2.4730000  71.7810000 150.8180000  -3.2490000
  71.3550000 151.9200000  -3.6010000  72.9290000 150.2810000  -3.7160000
  73.2905493 149.4539163  -3.2628842  73.7540000 150.9330000  -4.7220000
  73.9574612 151.9716690  -4.4614824  75.1040000 150.2030000  -4.9380000
  74.9048950 149.1438406  -5.1012106  75.8510000 150.7700000  -6.1390000
  76.0508830 151.8290938  -5.9763097  76.7939533 150.2380305  -6.2652857
  75.2432720 150.6490449  -7.0357375  75.9680000 150.2850000  -3.6760000
  75.4422801 149.8164161  -2.8440446  76.9116796 149.7669376  -3.8468211
  76.1657910 151.3300879  -3.4377335  72.9440000 151.1500000  -6.0230000
  72.8390000 152.2910000  -6.4680000  72.3060000 150.0930000  -6.5720000
  72.4232184 149.1675887  -6.1847365  71.5110000 150.2390000  -7.7930000
  72.1269441 150.6978991  -8.5663845  71.0060000 148.9010000  -8.3050000
  71.7913270 148.1481336  -8.2375242  70.1409403 148.5757191  -7.7271038
  70.6300000 149.0720000  -9.6640000  70.3059761 148.2387156 -10.0136361
  70.3550000 151.1910000  -7.6260000  70.0790000 151.9800000  -8.5260000
  69.7140000 151.1510000  -6.4620000  69.9865554 150.4332770  -5.8057328
  68.6050000 152.0120000  -6.1150000  67.7664556 151.8445538  -6.7909469
  68.1510000 151.6960000  -4.6820000  68.1368471 150.6105581  -4.5834367
  68.9019258 152.1115631  -4.0100493  66.8160000 152.2420000  -4.3300000
  66.1304094 152.0396764  -5.1528801  66.4615464 151.7388528  -3.4303848
  66.8750000 154.0190000  -4.0310000  66.4140000 154.0810000  -2.2650000
  67.1385367 153.5147842  -1.6797264  66.4053507 155.1173590  -1.9273822
  65.4225672 153.6479133  -2.1323417  69.0000000 153.4820000  -6.2940000
  68.3970000 154.1560000  -7.1240000  70.0310000 153.9620000  -5.5580000
  70.4292339 153.3628684  -4.8490920  70.4780000 155.3640000  -5.6190000
  69.6234711 156.0393719  -5.6608613  71.3910000 155.8030000  -4.4780000
  71.7077054 156.8301243  -4.6591423  70.6690000 155.7230000  -3.1370000
  70.3523762 154.6960131  -2.9549332  71.3426938 156.0414083  -2.3414792
  69.7951778 156.3743212  -3.1548086  72.6650000 154.9880000  -4.4660000
  73.1926770 155.1237457  -5.4100509  73.3005272 155.3183339  -3.6443648
  72.4212668 153.9337160  -4.3349267  71.0810000 155.7330000  -6.9510000
  70.9540000 156.8760000  -7.3890000  71.7430000 154.7710000  -7.5960000
  71.8934508 153.8853588  -7.1343686  72.3310000 154.9720000  -8.9050000
  73.0295097 155.8085333  -8.8851166  73.0960000 153.7030000  -9.3130000
  73.8743078 153.5551560  -8.5643490  72.3827337 152.8803407  -9.2621782
  73.7240000 153.7430000 -10.6940000  72.9571849 154.0168481 -11.4186397
  74.5121052 154.4959800 -10.6976735  74.3080000 152.4030000 -11.0630000
  73.6040037 151.6147588 -10.7962344  74.4968781 152.3728511 -12.1360869
  75.5650000 152.1650000 -10.3600000  76.1571035 152.9666008 -10.1958386
  75.9830000 150.9740000  -9.9490000  75.2310000 149.8950000 -10.1380000
  74.3356214 149.9813686 -10.5972795  75.5582136 148.9934078  -9.8215155
  77.1480000 150.8550000  -9.3230000  77.7162061 151.6739531  -9.1600345
  77.4605459 149.9460825  -9.0127053  71.1810000 155.3570000  -9.8870000
  71.3320000 156.3000000 -10.6630000  70.0150000 154.6980000  -9.7630000
  69.9662020 153.9389869  -9.0984571  68.8390000 154.9700000 -10.5950000
  69.1521021 155.1496241 -11.6234947  67.8660000 153.7750000 -10.5780000
  67.7648566 153.5278973  -9.5212079  66.8947234 154.0678495 -10.9766990
  68.3450000 152.5360000 -11.3240000  68.8670000 152.5960000 -12.4530000
  68.1000000 151.3690000 -10.7400000  68.3940300 150.5124230 -11.1871264
  67.6207333 151.3432412  -9.8513265  68.1250000 156.2500000 -10.1610000
  67.4810000 156.9130000 -10.9730000  68.2580000 156.5880000  -8.8800000
  68.8204932 155.9608330  -8.3228983  67.6580000 157.7490000  -8.2240000
  66.5824406 157.7971380  -8.3941585  67.9100000 157.5800000  -6.7160000
  67.8570838 156.5009709  -6.5711025  68.9382619 157.9145239  -6.5786269
  67.0240000 158.2630000  -5.7150000  67.1713505 159.3394869  -5.8019754
  65.5720000 157.9350000  -5.9460000  65.4237733 156.8586589  -5.8587220
  64.9606510 158.4468759  -5.2028067  65.2794457 158.2617935  -6.9438569
  67.4070000 157.8260000  -4.3340000  68.4462805 158.0933397  -4.1428850
  66.7651983 158.3204308  -3.6048018  67.2885525 156.7458576  -4.2482003
  68.2650000 159.0630000  -8.7300000  67.5630000 160.0620000  -8.8710000
  69.5720000 159.0410000  -9.0070000  70.0481009 158.1888483  -8.7476455
  70.3700000 160.1540000  -9.5060000  70.2382801 161.1247797  -9.0281551
  71.8770000 159.7280000  -9.4170000  71.9101357 158.8413595  -8.7838562
  72.5570000 159.4230000 -10.7610000  72.5246658 160.3093761 -11.3945555
  73.5948735 159.1387603 -10.5874282  72.0344471 158.6042312 -11.2556264
  72.6960000 160.7170000  -8.5860000  73.7318030 160.3776567  -8.5936873
  72.6297239 161.6910703  -9.0706587  72.2200000 160.8300000  -7.1750000
  72.2864215 159.8563499  -6.6895172  72.8413204 161.5464801  -6.6376766
  71.1843410 161.1697615  -7.1664888  69.8820000 160.5800000 -10.8970000
  69.8330000 161.7760000 -11.2000000  69.4320000 159.5840000 -11.6940000
  69.5334888 158.6541250 -11.3130383  68.8990000 159.7240000 -13.0500000
  69.5536136 160.3619509 -13.6438004  68.8090000 158.3470000 -13.7270000
  68.7603566 157.5983666 -12.9362528  67.8835679 158.3274252 -14.3025799
  69.9850000 158.0390000 -14.6460000  69.8474260 157.0243688 -15.0197618
  69.9686870 158.7387718 -15.4815569  71.3370000 158.1260000 -13.9680000
  72.0370000 159.1430000 -14.0590000  71.7410000 157.0590000 -13.2910000
  72.6356937 157.0709141 -12.8225102  71.1520141 156.2396841 -13.2471998
  67.5590000 160.4150000 -13.0820000  67.1040000 160.8050000 -14.1560000
  66.9250000 160.5760000 -11.9180000  67.2918605 160.1296027 -11.0896026
  65.6290000 161.2270000 -11.8330000  65.5165305 161.9058091 -12.6783804
  64.4630000 160.2080000 -11.8580000  63.6193576 160.7220763 -11.3974652
  64.2510946 160.0363951 -12.9133425  64.6870000 158.8580000 -11.1540000
  65.5998613 158.4175531 -11.5549883  64.8150902 159.0518024 -10.0890420
  63.5040000 157.8750000 -11.3620000  63.6564790 157.0509119 -10.6650581
  62.5972000 158.4159286 -11.0914277  63.3640000 157.3250000 -12.7750000
  63.3872728 158.1638541 -13.4706168  64.2117392 156.6682219 -12.9701408
  62.0970000 156.5660000 -12.9560000  61.3113318 157.1745203 -12.7756440
  62.0442934 156.2199229 -13.9033925  62.0754273 155.7884036 -12.3118125
  65.5360000 162.1960000 -10.6570000  66.3760000 163.0950000 -10.5460000
  64.5040000 162.0020000  -9.8030000  63.9393427 161.2191526 -10.1003406
  64.0780000 162.7570000  -8.6200000  63.6367153 163.7098681  -8.9122489
  63.0190000 161.9370000  -7.8580000  62.5368940 161.2359378  -8.5393111
  63.6135040 161.3848820  -7.1301052  61.9590000 162.7490000  -7.1340000
  61.6770000 163.8870000  -7.5720000  61.3520000 162.2140000  -6.1790000
  65.1630000 163.1730000  -7.6380000  65.0520000 164.2630000  -7.0630000
  66.1630000 162.2750000  -7.3860000  66.0496838 161.3809030  -7.8419050
  67.2630000 162.4320000  -6.4230000  67.8805963 161.5345318  -6.4579968
  68.1530000 163.6520000  -6.7080000  67.4990682 164.4836521  -6.9703493
  68.6915345 163.8893515  -5.7905335  69.1440000 163.4170000  -7.8280000
  69.5814168 162.4272989  -7.6966260  68.6057306 163.4529595  -8.7751404
  70.2470000 164.4610000  -7.8330000  70.5165729 164.6837456  -6.8006174
  71.1114812 164.0477845  -8.3526390  69.8530000 165.7080000  -8.4950000
  69.8826332 165.7087377  -9.5045646  69.4380000 166.8080000  -7.8710000
  69.3760000 166.8470000  -6.5440000  69.6455538 166.0365739  -6.0048800
  69.0596122 167.6868839  -6.0807576  69.1120000 167.8890000  -8.5690000
  69.1796279 167.8751293  -9.5766379  68.7978295 168.7204001  -8.0892402
  66.7770000 162.4160000  -4.9820000  67.5890000 162.5420000  -4.0600000
  65.4650000 162.2150000  -4.7760000  64.8340576 162.2256822  -5.5646044
  64.8930000 162.1570000  -3.4310000  65.6455607 162.3225206  -2.6600561
  63.7280000 163.1710000  -3.2160000  63.5592718 163.2467528  -2.1418061
  64.0050000 164.5610000  -3.7870000  64.1733805 164.4861088  -4.8613086
  63.1491754 165.2090879  -3.5981998  64.8903218 164.9807526  -3.3093876
  62.5080000 162.6640000  -3.7480000  61.8063003 163.3032896  -3.6047287
  64.4990000 160.7230000  -3.0280000  64.0540000 159.9360000  -3.8480000
  64.6570000 160.4130000  -1.7580000  65.1481418 161.0977658  -1.2012461
  64.2870000 159.1480000  -1.1310000  63.5192886 158.6633453  -1.7341817
  65.4890000 158.1930000  -1.0040000  65.0978115 157.2999719  -0.5165869
  65.8833420 157.9277108  -1.9849262  66.6670000 158.6580000  -0.1750000
  67.6890000 159.4080000  -0.7480000  67.6224995 159.6807325  -1.8012305
  68.7960000 159.8130000   0.0130000  69.5750195 160.4239766  -0.4430009
  68.9000000 159.4360000   1.3470000  69.7685268 159.7319610   1.9353606
  67.8980000 158.6840000   1.9260000  67.9643877 158.4032605   2.9771319
  66.7910000 158.2800000   1.1590000  66.0136445 157.6615053   1.6076454
  63.6110000 159.4640000   0.2320000  63.6050000 160.6180000   0.6760000
  62.9820000 158.4750000   0.8490000  62.9449365 157.5529203   0.4385190
  62.2780000 158.7010000   2.0960000  62.1832894 159.7742507   2.2611124
  60.8900000 158.0990000   2.0170000  60.9683875 157.0230837   1.8609249
  60.3559005 158.2927124   2.9472223  60.3456568 158.5474613   1.1859331
  63.0400000 158.1290000   3.2730000  63.6450000 157.0610000   3.1660000
  63.0580000 158.8720000   4.3750000  62.6273302 159.7846058   4.3328861
  63.7080000 158.4720000   5.6150000  64.1382562 157.4739835   5.5316822
  64.8210000 159.4560000   6.0650000  64.3743159 160.4384296   6.2179854
  65.4810000 158.9930000   7.3550000  65.9283411 158.0107690   7.2026543
  66.2556279 159.7037707   7.6428491  64.7326165 158.9322299   8.1451460
  65.8620000 159.6430000   4.9760000  65.3849717 160.0437386   4.0815981
  66.6283157 160.3373622   5.3205593  66.3212252 158.6823562   4.7428123
  62.5720000 158.3740000   6.6260000  61.8750000 159.3680000   6.8610000
  62.3670000 157.1660000   7.1920000  62.9301971 156.3882871   6.8788372
  61.2880000 156.9020000   8.1430000  60.4961975 157.6372727   7.9997448
  60.6930000 155.4950000   7.9530000  61.5366881 154.8745470   8.2552047
  59.8745124 155.3641896   8.6608607  60.2280000 155.0780000   6.5510000
  61.0018389 155.3396718   5.8293338  59.9730000 153.5980000   6.4970000
  59.1988917 153.3356164   7.2181173  59.6442392 153.3217480   5.4951507
  60.8906491 153.0616293   6.7385099  59.0190000 155.8720000   6.0910000
  59.2690341 156.9325902   6.0639680  58.7253694 155.5429398   5.0942043
  58.1931248 155.7114884   6.7840117  61.6730000 157.1180000   9.6050000
  62.7810000 156.7680000  10.0500000  60.7300000 157.7090000  10.3450000
  59.8836565 158.0018715   9.8780649  60.8550000 157.9660000  11.7670000
  61.8869245 158.0158030  12.1144918  60.1520000 159.2690000  12.1380000
  59.1149541 159.2306317  11.8045879  60.1807281 159.4028125  13.2193737
  60.6575658 160.1053971  11.6553589  60.2110000 156.7650000  12.4590000
  58.9870000 156.7210000  12.6500000  61.0430000 155.7580000  12.7570000
  62.0040710 155.8323622  12.4554836  60.6070000 154.5150000  13.3640000
  59.7117352 154.1554984  12.8566946  61.6980000 153.4380000  13.2570000
  62.5977052 153.9323262  13.6234306  61.4511211 152.6021151  13.9115588
  61.9410000 152.9240000  11.8510000  61.0890000 151.9870000  11.2730000
  60.2270614 151.6405593  11.8432106  61.3210000 151.4920000   9.9900000
  60.6318728 150.7721873   9.5483268  62.4400000 151.8990000   9.2870000
  62.6730000 151.3970000   8.0300000  61.9990090 150.7765396   7.7430074
  63.3060000 152.8260000   9.8440000  64.1761025 153.1700113   9.2848234
  63.0610000 153.3190000  11.1250000  63.7535681 154.0286964  11.5775268
  60.1130000 154.6580000  14.8060000  60.8360000 155.1530000  15.6810000
  58.8500000 154.2240000  15.0220000  58.3492473 153.9499206  14.1887974
  58.1430000 154.1760000  16.3050000  58.4069120 155.0526805  16.8965074
  56.6230000 154.1600000  16.1040000  56.1856424 154.0277267  17.0936067
  56.3558305 155.1436433  15.7177793  56.1260000 153.1570000  15.2290000
  55.1705774 153.2291857  15.1693623  58.6340000 152.9360000  17.0640000
  58.8100000 152.9810000  18.2870000  58.9100000 151.8520000  16.3070000
  58.6936107 151.9493086  15.3252638  59.4580000 150.5770000  16.7740000
  59.9456323 150.7212614  17.7381071  58.3430000 149.5210000  16.9380000
  57.6900825 149.9270346  17.7106150  57.7903929 149.4394400  16.0020121
  58.7890000 148.1340000  17.3600000  59.9620000 147.7480000  17.2600000
  57.8330000 147.3270000  17.7930000  58.0635762 146.3893513  18.0892250
  56.8774988 147.6527099  17.8251155  60.4760000 150.1590000  15.7210000
  60.1010000 149.6420000  14.6610000  61.7630000 150.4190000  15.9990000
  61.9873031 150.9612815  16.8210208  62.8330000 150.1270000  15.0490000
  62.5835780 150.3793549  14.0183668  64.1840000 150.7990000  15.4110000
  64.0279543 151.8774778  15.4361912  64.7250000 150.3300000  16.7650000
  64.8817467 149.2516088  16.7404264  65.6715096 150.8295956  16.9714566
  64.0072922 150.5745557  17.5480642  65.2190000 150.6360000  14.2890000
  64.8414171 151.0963659  13.3759850  66.1511012 151.1199461  14.5806904
  65.4004062 149.5757865  14.1125350  62.9520000 148.6140000  14.7800000
  63.1680000 148.2380000  13.6240000  62.7320000 147.7620000  15.8140000
  62.6045903 148.1514828  16.7371301  62.7870000 146.2980000  15.6760000
  63.7102174 146.0185836  15.1683631  62.7490000 145.6000000  17.0470000
  63.5148352 146.0675675  17.6658508  61.7665484 145.7932637  17.4777412
  62.9920000 144.0910000  16.9890000  62.1410804 143.6172177  16.4995441
  63.8952360 143.9031954  16.4084863  63.1580000 143.5160000  18.3810000
  64.0704483 143.9156927  18.8234734  62.3018953 143.8072346  18.9895776
  63.2460000 142.0550000  18.3640000  64.1033828 141.6553425  18.0100678
  62.2790000 141.2330000  18.7600000  61.1360000 141.7190000  19.2340000
  61.0017579 142.7182691  19.2935014  60.4071178 141.0867297  19.5324368
  62.4520000 139.9190000  18.7050000  63.3230753 139.5413968  18.3604080
  61.7118524 139.3021596  19.0079656  61.6910000 145.7750000  14.7530000
  61.9850000 145.0220000  13.8290000  60.4440000 146.2060000  14.9710000
  60.2298842 146.7420455  15.7997997  59.3380000 145.7600000  14.1310000
  59.5956952 144.8023239  13.6787291  58.0370000 145.5880000  14.9420000
  57.8923010 146.4974952  15.5250780  57.2192236 145.4798516  14.2295074
  58.0590000 144.3780000  15.8810000  58.9210619 144.5437678  16.5271200
  57.1455602 144.4351417  16.4729981  58.1630000 142.9980000  15.2390000
  57.1050000 142.4220000  14.8930000  59.2990000 142.4850000  15.0990000
  59.1700000 146.6450000  12.8820000  58.2270000 146.4480000  12.1070000
  60.1510000 147.5550000  12.6510000  60.8103680 147.6613695  13.4086402
  60.2510000 148.4710000  11.5070000  60.9225732 149.2916325  11.7592914
  60.7990000 147.7520000  10.2550000  60.0127875 147.0826553   9.9057912
  60.9812642 148.5205977   9.5039093  62.0820000 146.9530000  10.4880000
  62.3331958 147.0275293  11.5460392  61.8766835 145.9125308  10.2362638
  63.2450000 147.4530000   9.6570000  63.8753120 146.6078762   9.3802844
  62.8604935 147.9294423   8.7551924  64.0580000 148.4240000  10.3900000
  63.7562339 148.6620108  11.3240168  65.1590000 149.0000000   9.9120000
  65.5870000 148.7190000   8.6860000  65.0739766 148.0643480   8.1129923
  66.4234162 149.1613295   8.3326558  65.8370000 149.8680000  10.6550000
  65.5149428 150.0909727  11.5859471  66.6713547 150.3008924  10.2854664
  58.9250000 149.2190000  11.2240000  58.4680000 149.2950000  10.0760000
  58.3220000 149.7650000  12.3010000  58.7813707 149.6300661  13.1903091
  57.0600000 150.5080000  12.2770000  56.4820778 150.2227089  11.3979584
  56.2280000 150.2040000  13.5310000  56.8834799 150.3419946  14.3908854
  55.4232951 150.9383558  13.5666595  55.6380000 148.8050000  13.5640000
  54.9461403 148.7336798  12.7247477  56.4661161 148.1128864  13.4113512
  54.9130000 148.4500000  14.8480000  54.6390000 149.3670000  15.6610000
  54.6160000 147.2480000  15.0390000  57.3270000 151.9960000  12.2040000
  58.0470000 152.5230000  13.0430000  56.7390000 152.6750000  11.2180000
  56.1673057 152.1747520  10.5524048  56.9130000 154.1090000  11.0380000
  57.0625300 154.5934668  12.0028999  58.1260000 154.3770000  10.1680000
  57.9871578 153.9057661   9.1949833  58.2489256 155.4520053  10.0362688
  59.0149519 153.9661164  10.6465796  55.6800000 154.7160000  10.4080000
  55.2290000 154.2460000   9.3650000  55.1420000 155.7610000  11.0380000
  55.5625339 156.0557464  11.9076983  53.9530000 156.4750000  10.5640000
  53.4723508 155.9096199   9.7656136  52.9500000 156.6510000  11.7130000
  53.4120254 157.2482334  12.4990942  52.0381800 157.1419138  11.3728706
  52.5310000 155.3600000  12.3460000  51.2800000 154.8100000  12.1050000
  51.2490000 153.6800000  12.7970000  50.3366613 153.0857880  12.7455288
  52.3950000 153.4740000  13.4570000  52.6345262 152.6972997  14.0565530
  53.2230000 154.5360000  13.1720000  54.2243704 154.5766707  13.6006075
  54.3200000 157.8370000   9.9820000  53.4990000 158.4670000   9.3140000
  55.5570000 158.2940000  10.2550000  56.1370945 157.7141976  10.8444225
  56.0880000 159.5800000   9.8110000  55.4689887 159.9861382   9.0110151
  56.0900000 160.5780000  10.9880000  56.6257550 160.1905081  11.8545540
  56.5523622 161.5098512  10.6624626  54.6990000 160.9280000  11.4610000
  53.9700000 161.9390000  10.8400000  54.4236138 162.4986948  10.0220292
  52.6740000 162.2380000  11.2540000  52.1143612 163.0331711  10.7614475
  52.0990000 161.5280000  12.2870000  51.0871476 161.7699174  12.6121626
  52.7980000 160.5170000  12.9070000  52.3360766 159.9480347  13.7138491
  54.1000000 160.2210000  12.5010000  54.6594753 159.4291705  12.9990896
  57.4880000 159.4490000   9.2290000  58.1680000 158.4580000   9.4860000
  57.9010000 160.4580000   8.4680000  57.2573260 161.2134605   8.2807502
  59.2340000 160.5290000   7.8910000  59.9462466 160.3890913   8.7041602
  59.3245009 159.7047089   7.1835729  59.5490000 161.8270000   7.1780000
  58.7140000 162.7330000   7.1320000  60.7720000 161.9300000   6.6280000
  61.4278746 161.1717262   6.7502647  61.2050000 163.1060000   5.8770000
  60.3478311 163.7261482   5.6147465  62.2140000 163.9660000   6.6530000
  63.1855469 163.4746788   6.6000816  62.3280000 165.3750000   6.0940000
  61.3568781 165.8671495   6.1470164  63.0537822 165.9406328   6.6782935
  62.6551981 165.3289776   5.0552874  61.8520000 164.0370000   8.0220000
  62.4902575 164.5766995   8.4941782  61.8360000 162.6560000   4.5840000
  62.5080000 161.6240000   4.5470000  61.6150000 163.4440000   3.5190000
  60.9765378 164.2180240   3.6345522  62.2100000 163.2310000   2.2100000
  62.2783601 162.1771098   1.9402936  61.4250000 163.9690000   1.1130000
  61.9324307 163.7861954   0.1657953  59.9740000 163.5200000   1.0060000
  59.4657624 163.7029314   1.9527472  59.4773817 164.0798521   0.2135134
  59.9386669 162.4553369   0.7750353  61.5060000 165.3760000   1.3260000
  61.0146943 165.8324299   0.6390570  63.6480000 163.7360000   2.3060000
  63.9180000 164.6880000   3.0430000  64.5640000 163.0760000   1.5950000
  64.2434190 162.2926839   1.0438711  65.9800000 163.4150000   1.5550000
  66.2170576 164.3488430   2.0647451  66.7890000 162.3020000   2.1840000
  66.5692587 161.3618212   1.6781566  67.8515073 162.5257126   2.0884429
  66.5299204 162.2154453   3.2392181  66.3670000 163.5770000   0.0960000
  66.1760000 162.6520000  -0.6990000  66.8840000 164.7540000  -0.2670000
  66.9840383 165.4793211   0.4287018  67.2980000 165.0460000  -1.6350000
  66.8720103 164.3240552  -2.3317265  66.7900000 166.4410000  -2.0050000
  65.7693416 166.5061994  -1.6280323  67.4208331 167.1498716  -1.4686691
  66.8040000 166.7720000  -3.4870000  67.8156239 166.6230130  -3.8645192
  66.1288194 166.0655958  -3.9699322  66.3560000 168.1850000  -3.7900000
  65.2040000 168.5450000  -3.4530000  67.1790000 168.9410000  -4.3500000
  68.8300000 164.9790000  -1.7080000  69.4950000 165.6740000  -0.9350000
  69.3920000 164.1350000  -2.6010000  68.7896565 163.5098299  -3.1171821
  70.8540000 163.9870000  -2.7570000  71.3569596 163.9477841  -1.7907739
  71.2320000 162.7270000  -3.5900000  70.7852448 162.8216782  -4.5797203
  72.7640000 162.5750000  -3.7290000  73.2114443 162.4797964  -2.7396414
  72.9895213 161.6849208  -4.3163669  73.1728528 163.4529486  -4.2291447
  70.6010000 161.4550000  -2.9780000  71.2534150 161.1542552  -2.1582390
  69.6323076 161.7559665  -2.5790592  70.4130000 160.2750000  -3.9410000
  71.3813862 159.9731520  -4.3400184  69.9636142 159.4376799  -3.4071023
  69.7602803 160.5748644  -4.7608403  71.4750000 165.2700000  -3.3260000
  71.0020000 165.7800000  -4.3390000  72.5130000 165.8030000  -2.6620000
  72.7798675 165.4207493  -1.7660282  73.1640000 167.0350000  -3.1130000
  72.7152147 167.3529996  -4.0540458  73.0100000 168.1710000  -2.0860000
  73.1729145 169.1493196  -2.5381603  71.9494725 168.0437804  -1.8687519
  73.8040000 168.0710000  -0.8000000  75.1110000 168.5430000  -0.7300000
  75.5705557 168.9430972  -1.6337866  75.8300000 168.5120000   0.4610000
  76.8729292 168.8283852   0.4783441  75.2190000 168.0770000   1.6250000
  75.9400000 168.0780000   2.7960000  76.8387393 168.3959117   2.6828650
  73.9010000 167.6520000   1.5940000  73.4154561 167.2977149   2.5033017
  73.1940000 167.6790000   0.3900000  72.1433002 167.3897567   0.3683592
  74.6200000 166.8150000  -3.5340000  75.1080000 167.5370000  -4.4010000
  75.2960000 165.8170000  -2.9260000  74.7944572 165.3456357  -2.1868316
  76.6640000 165.3810000  -3.2260000  77.0445705 165.8115940  -4.1522041
  77.6030000 165.7540000  -2.0970000  77.2400688 165.3223130  -1.1642475
  78.6001720 165.3693554  -2.3110019  77.6452647 166.8390603  -2.0023576
  76.6190000 163.8630000  -3.4170000  75.9280000 163.1810000  -2.6650000
  77.3200000 163.3480000  -4.4440000  77.8999580 163.9975974  -4.9556358
  77.2900000 161.9490000  -4.8820000  77.0387867 161.2736081  -4.0641756
  76.1850000 161.8540000  -5.9580000  75.2224822 162.0776303  -5.4979477
  76.4587824 162.6613215  -6.6372461  76.0850000 160.5570000  -6.7310000
  75.3630000 159.4800000  -6.2300000  74.9198306 159.5662613  -5.2379016
  75.2000000 158.3110000  -6.9650000  74.6160564 157.4852830  -6.5584251
  75.8180000 158.1810000  -8.1960000  75.6670000 157.0030000  -8.9020000
  75.1206713 156.3592698  -8.4451236  76.5380000 159.2460000  -8.7180000
  77.0302969 159.1518144  -9.6859222  76.6310000 160.4380000  -8.0020000
  77.1392440 161.2977649  -8.4385689  78.6430000 161.4720000  -5.4580000
  79.3010000 162.2330000  -6.1540000  79.0290000 160.2080000  -5.2160000
  78.5022542 159.6330052  -4.5741128  80.2810000 159.6700000  -5.7670000
  80.3722433 160.0006837  -6.8016121  81.5350000 160.1280000  -4.9900000
  81.3638194 161.1497371  -4.6511051  81.6505448 159.4737002  -4.1259159
  82.8110000 160.0790000  -5.8430000  82.8687701 159.0909228  -6.2995818
  82.7192847 160.8344715  -6.6233545  84.0650000 160.3360000  -5.0380000
  83.9215712 161.2128437  -4.4065950  84.2825477 159.4702038  -4.4125647
  85.2090000 160.5760000  -5.9220000  85.0196626 160.6159917  -6.9132877
  86.4610000 160.7530000  -5.5070000  86.7550000 160.7010000  -4.2110000
  86.0234433 160.5260311  -3.5369743  87.7084770 160.8367194  -3.9067607
  87.4320000 160.9720000  -6.3850000  87.2186674 161.0042297  -7.3716866
  88.3797457 161.1054085  -6.0623873  80.2850000 158.1610000  -5.8940000
  80.0430000 157.4570000  -4.9120000  80.6120000 157.6660000  -7.0990000
  80.7693212 158.3011339  -7.8683856  80.6900000 156.2350000  -7.3580000
  80.1910567 155.6875814  -6.5583202  80.0110000 155.8930000  -8.6800000
  80.2600819 156.6891199  -9.3816056  80.4437632 154.9548043  -9.0272822
  78.5080000 155.7520000  -8.5910000  78.2762611 155.1063659  -7.7439141
  78.1004582 156.7468125  -8.4111198  77.8910000 155.1730000  -9.8520000
  77.8140000 153.9280000  -9.9640000  77.4730000 155.9670000 -10.7250000
  82.1380000 155.7520000  -7.3670000  83.0060000 156.4060000  -7.9400000
  82.4020000 154.6310000  -6.7170000  81.6539476 154.1603551  -6.2281131
  83.7310000 154.0210000  -6.7030000  84.3051546 154.4512396  -7.5235727
  84.5120000 154.2320000  -5.3920000  83.8566328 153.8547070  -4.6069885
  85.3867562 153.5870677  -5.4754505  84.9530000 155.6370000  -5.0480000
  85.9055025 155.7583366  -5.5638655  84.2589440 156.4084924  -5.3814440
  85.1690000 155.7640000  -3.5510000  86.2930000 155.4590000  -3.0840000
  84.1820000 156.0640000  -2.8360000  83.5410000 152.5420000  -6.8680000
  82.4900000 151.9880000  -6.5570000  84.5720000 151.9060000  -7.3430000
  85.3893242 152.4397388  -7.6022361  84.6060000 150.4880000  -7.5160000
  83.7251208 150.0292417  -7.0668987  84.6190000 150.1620000  -9.0080000
  84.1985915 151.0120601  -9.5453581  85.6545434 150.0149712  -9.3148101
  83.8200000 148.9220000  -9.3250000  84.2802947 148.0495942  -8.8611705
  82.8025091 149.0370875  -8.9514105  83.7650000 148.7060000 -10.7880000
  84.7470000 148.3050000 -11.4050000  82.6100000 148.9630000 -11.3630000
  82.5061250 148.8358957 -12.3595721  81.8325061 149.2862164 -10.8052046
  85.8880000 150.0900000  -6.8230000  86.9370000 150.7170000  -7.0110000
  85.7780000 149.1270000  -5.9450000  84.9097554 148.6142932  -5.8868414
  86.8850000 148.6920000  -5.1290000  87.8156659 148.6880626  -5.6964018
  87.0230000 149.6820000  -3.9700000  86.1705492 150.3581819  -4.0348455
  86.9541209 149.0983460  -3.0520110  88.3060000 150.4870000  -3.9610000
  89.1378845 149.7843365  -3.9126990  88.3605771 151.0503945  -4.8925080
  88.3840000 151.4450000  -2.7850000  87.3280000 151.9890000  -2.3680000
  89.5160000 151.6520000  -2.2860000  86.5270000 147.3750000  -4.5240000
  85.3520000 147.0890000  -4.3410000  87.5300000 146.5960000  -4.1580000
  88.4481412 146.8729550  -4.4748785  87.3960000 145.3240000  -3.4460000
  88.3102001 144.7407526  -3.5562715  87.1490000 145.5680000  -1.9580000
  86.1082506 145.8727389  -1.8481175  87.3066982 144.6220424  -1.4399310
  88.0470000 146.6230000  -1.3620000  89.4280000 146.4530000  -1.3270000
  89.8541544 145.5318543  -1.7244701  90.2630000 147.4350000  -0.7960000
  91.3444599 147.2993538  -0.8080988  89.7130000 148.5750000  -0.2270000
  90.5110000 149.5440000   0.3500000  91.4467414 149.3339658   0.3067170
  88.3410000 148.7620000  -0.2590000  87.9027574 149.6672261   0.1612495
  87.5200000 147.7900000  -0.8300000  86.4408837 147.9397463  -0.8644121
  86.3520000 144.3670000  -3.9990000  85.7770000 143.5860000  -3.2540000
  86.1470000 144.4170000  -5.2990000  86.6648442 145.0998312  -5.8334887
  85.2220000 143.5490000  -6.0040000  85.5706270 143.4713155  -7.0338172
  85.2708841 142.5689179  -5.5295016  83.7990000 144.0200000  -6.0050000
  82.9460000 143.3240000  -6.5470000  83.5390000 145.2130000  -5.4520000
  84.3015435 145.7045011  -5.0080930  82.1820000 145.7680000  -5.3230000
  81.4720354 145.2456458  -5.9642453  81.6560000 145.7590000  -3.8450000
  80.7504997 146.3623998  -3.7811391  81.3480000 144.3420000  -3.4180000
  82.2531904 143.7380612  -3.4811572  80.9832141 144.3426574  -2.3908527
  80.5851921 143.9220742  -4.0736567  82.6280000 146.4470000  -2.8610000
  83.5695686 145.9063830  -2.9573465  82.7523178 147.4621934  -3.2378647
  82.2330000 146.4950000  -1.4440000  82.1089359 145.4800931  -1.0662807
  83.0054303 147.0046028  -0.8680176  81.2916834 147.0359019  -1.3467992
  82.0120000 147.1380000  -5.9340000  82.9820000 147.8480000  -6.1900000
  80.7510000 147.4910000  -6.1710000  80.0382845 146.7981541  -5.9918339
  80.3350000 148.8000000  -6.6630000  81.2011741 149.3106948  -7.0837521
  79.2450000 148.6970000  -7.7530000  78.4387768 148.0950903  -7.3337054
  78.8854980 149.7101354  -7.9330416  79.7050000 148.0840000  -9.0620000
  80.6841087 148.4780950  -9.3342795  79.7849707 147.0138679  -8.8708951
  78.7330000 148.3220000 -10.1960000  77.5790000 147.8450000 -10.0970000
  79.1070000 149.0310000 -11.1600000  79.8020000 149.4840000  -5.4180000
  78.9490000 148.9310000  -4.7060000  80.3850000 150.6290000  -5.1040000
  81.1558656 150.9294105  -5.6833264  80.0870000 151.3910000  -3.9070000
  79.1609202 151.0432752  -3.4492197  81.2100000 151.2260000  -2.9100000
  81.5033680 150.1763183  -2.9242770  82.4220000 152.0940000  -3.2000000
  82.1294900 153.1439168  -3.1854318  83.1846448 151.9192770  -2.4410903
  82.8229738 151.8426711  -4.1819137  80.6550000 151.5760000  -1.6640000
  81.3239612 151.4915201  -0.9806594  79.7480000 152.8550000  -4.1970000
  80.2250000 153.4300000  -5.1760000  78.9030000 153.4470000  -3.3670000
  78.4456903 152.9113394  -2.6430975  78.4820000 154.8200000  -3.5770000
  79.2400610 155.4247264  -4.0747435  77.1850000 154.8730000  -4.4090000
  77.3128512 154.2454456  -5.2910027  75.9950000 154.3820000  -3.6080000
  75.8662246 155.0093941  -2.7260167  75.0966195 154.4321379  -4.2232228
  76.1654301 153.3509765  -3.2980876  76.9270000 156.2650000  -4.9470000
  77.7577068 156.5686144  -5.5840609  76.0049857 156.2652814  -5.5283684
  76.8323597 156.9643761  -4.1163273  78.4040000 155.5850000  -2.2560000
  78.0840000 155.0160000  -1.2060000  78.7920000 156.8580000  -2.3090000
  79.1196983 157.1997314  -3.2011507  78.8100000 157.7690000  -1.1710000
  78.4002346 157.2689979  -0.2933956  80.2410000 158.2140000  -0.8570000
  80.6899619 158.5874571  -1.7773599  80.1928814 159.0193048  -0.1240138
  81.0820000 157.0840000  -0.3090000  80.6758385 156.8029905   0.6626828
  80.9996932 156.2404274  -0.9943560  82.5370000 157.4680000  -0.1550000
  82.9396758 157.7202840  -1.1359709  82.6037605 158.3373496   0.4991206
  83.3330000 156.3300000   0.4380000  82.8110990 155.9710362   1.3250541
  83.3889699 155.5289324  -0.2990599  84.7080000 156.7570000   0.8110000
  84.6563650 157.4989893   1.4942902  85.2093941 155.9727021   1.2028938
  85.1919221 157.0892599  -0.0109014  77.9300000 158.9470000  -1.5230000
  77.9980000 159.4370000  -2.6440000  77.0180000 159.3220000  -0.6290000
  76.8609811 158.7375175   0.1795942  76.1050000 160.4440000  -0.8630000
  76.5343474 161.1603097  -1.5634716  74.6680000 160.0640000  -1.3540000
  74.1174750 160.9868305  -1.5367714  74.6960000 159.2350000  -2.6190000
  75.2459992 158.3117287  -2.4368686  73.6760125 158.9962973  -2.9202423
  75.1861954 159.7987736  -3.4127061  73.8480000 159.3680000  -0.2860000
  73.7418960 160.0251198   0.5771556  72.8615637 159.1284809  -0.6830815
  74.3500210 158.4491758   0.0170475  76.0500000 161.3820000   0.3380000
  76.4060000 160.9950000   1.4650000  75.6190000 162.6210000   0.0700000
  75.5113114 162.8460658  -0.9086970  75.3400000 163.6630000   1.0550000
  75.3108881 163.2052015   2.0437731  76.3980000 164.7880000   1.0630000
  76.7089479 164.9421141   0.0297239  75.9054797 165.6877623   1.4317162
  77.6350000 164.4870000   1.9320000  77.3534345 164.7058065   2.9620220
  77.8362505 163.4206445   1.8295982  78.9010000 165.2860000   1.5650000
  79.7258400 164.8620526   2.1377186  79.0810792 165.1319159   0.5010785
  78.8000000 166.7610000   1.8480000  77.8634974 167.1328198   1.4322917
  78.8022180 166.9101746   2.9277413  79.9320000 167.4970000   1.2470000
  79.9298726 167.3592529   0.2464397  79.8398132 168.4817781   1.4514841
  80.7998580 167.1529088   1.6323865  73.9670000 164.1490000   0.6510000
  73.7590000 164.5370000  -0.5040000  72.9990000 163.9430000   1.5290000
  73.1994212 163.4763527   2.4020240  71.6220000 164.3140000   1.2460000
  71.5740623 164.8234576   0.2835790  70.7340000 163.0730000   1.1860000
  70.7644554 162.5570579   2.1456751  69.7084955 163.3696904   0.9659647
  71.0943447 162.4052375   0.4034758  71.1240000 165.2920000   2.2930000
  71.7690000 165.4810000   3.3220000  69.9970000 165.9450000   2.0220000
  69.5723310 165.8395075   1.1117106  69.4300000 166.9320000   2.9420000
  69.6776227 166.7683476   3.9908089  69.8600000 168.3680000   2.5260000
  70.9389013 168.4565988   2.6533677  69.4880000 168.6660000   1.0510000
  68.4091268 168.5780446   0.9229489  69.8026588 169.6773516   0.7935929
  69.9902575 167.9524492   0.3977912  69.3160000 169.4230000   3.4980000
  68.2304606 169.4096546   3.4003937  69.5941172 169.0989227   4.5008580
  69.8060000 170.7730000   3.2720000  69.5278435 171.0979642   2.2694397
  69.3665499 171.4473841   4.0069755  70.8915011 170.7872317   3.3699019
  67.9230000 166.7630000   3.0780000  67.2270000 166.5400000   2.0870000
  67.4500000 166.8470000   4.3120000  68.1104739 166.9676812   5.0665261
  66.0320000 166.7750000   4.6400000  65.6273045 165.8277555   4.2835612
  65.9085108 166.8384352   5.7211225  65.2720000 167.9110000   3.9900000
  65.7320000 169.0640000   3.9660000  64.1320000 167.5760000   3.4120000
  63.8082763 166.6192918   3.4154162  63.3490000 168.5640000   2.6960000
  63.8129759 169.5454167   2.7942178  63.2680000 168.2050000   1.1990000
  62.7939351 167.2249883   1.1447907  62.6163743 168.9490848   0.7409370
  64.5850000 168.1680000   0.4620000  65.3841698 168.0111173   1.1864421
  64.5655650 167.3365073  -0.2425170  64.8300000 169.4530000  -0.2850000
  65.4167759 169.2396292  -1.1784573  63.8721577 169.8851436  -0.5746367
  65.5540000 170.4240000   0.5290000  65.1314290 170.7195476   1.3974381
  66.7350000 170.9280000   0.1960000  67.3320000 170.5520000  -0.9310000
  66.8835757 169.8791915  -1.5362639  68.2311679 170.9409215  -1.1766356
  67.3270000 171.8210000   0.9800000  66.8754473 172.1172920   1.8334701
  68.2261967 172.1999584   0.7193575  61.9550000 168.7040000   3.2820000
  61.6730000 169.6800000   3.9690000  61.0960000 167.7150000   3.0160000
  61.4677563 166.9244574   2.5091085  59.6900000 167.7080000   3.3640000
  59.4238301 168.6121585   3.9114944  58.8680000 167.6570000   2.0760000
  59.0408917 166.6819043   1.6205925  57.8188738 167.7446580   2.3584011
  59.2180000 168.7530000   1.0770000  59.0412992 169.7251660   1.5371858
  60.2779241 168.6486259   0.8451187  58.4350000 168.6790000  -0.2070000
  58.0710000 169.7050000  -0.7760000  58.1780000 167.4770000  -0.7100000
  57.6549548 167.3941248  -1.5700330  58.5067850 166.6513053  -0.2301770
  59.2880000 166.5460000   4.2570000  59.6040000 165.3940000   3.9490000
  58.5430000 166.8530000   5.3470000  58.3291018 167.8238884   5.5251082
  58.0140000 165.8470000   6.2660000  58.7968736 165.1241598   6.4955869
  57.5290000 166.4760000   7.5760000  56.7568741 167.1899939   7.2894106
  57.0776314 165.6612630   8.1421891  58.5850000 167.1840000   8.4480000
  59.2189520 166.4231056   8.9032421  59.1896548 167.8217099   7.8031583
  57.9370000 168.0380000   9.5510000  57.4796510 167.3802894  10.2901533
  58.7048671 168.6447256  10.0309621  56.9020000 168.9300000   9.0100000
  57.2113719 169.6902960   8.4214948  55.6000000 168.7890000   9.2310000
  55.1600000 167.8550000  10.0630000  55.8186230 167.2484723  10.5303756
  54.1682531 167.7543941  10.2255308  54.7300000 169.5930000   8.6350000
  55.0599481 170.3151331   8.0106938  53.7414405 169.4795171   8.8081199
  56.8310000 165.1860000   5.5760000  56.1970000 165.7940000   4.7030000
  56.5380000 163.9400000   5.9470000  57.1459294 163.4373402   6.5777570
  55.4160000 163.2260000   5.3540000  54.6371343 163.9438170   5.0966943
  55.8190000 162.4580000   4.0790000  54.9498251 161.9677771   3.6404618
  56.2398441 163.1613349   3.3604527  56.8580000 161.3850000   4.2920000
  56.5390000 160.2030000   4.9550000  55.5245885 160.0610457   5.3277174
  57.4980000 159.2070000   5.1450000  57.2386921 158.2944004   5.6816768
  58.7720000 159.3780000   4.6540000  59.5152708 158.5916967   4.7858165
  59.1090000 160.5420000   3.9960000  60.1219579 160.6794758   3.6176921
  58.1530000 161.5450000   3.8140000  58.4199814 162.4642382   3.2926345
  54.7310000 162.3140000   6.3510000  55.2600000 162.0390000   7.4320000
  53.5650000 161.8170000   5.9390000  53.2865821 162.1171811   5.0157047
  52.6940000 160.8960000   6.6580000  53.0487092 160.7401800   7.6768232
  51.2770000 161.5160000   6.7170000  51.4212604 162.5494677   7.0320122
  50.9052076 161.4975052   5.6925351  50.2650000 160.8410000   7.6370000
  50.2812270 159.7672513   7.4501811  50.5474215 161.0334906   8.6720302
  48.8430000 161.3860000   7.3820000  48.6807159 161.3632650   6.3043888
  48.1470047 160.7024220   7.8682213  48.6120000 162.7960000   7.8990000
  48.7279016 162.7789174   8.9826861  49.3738595 163.4420459   7.4627730
  47.2620000 163.3180000   7.5530000  46.5558986 162.7197423   7.9574851
  47.1593808 164.2541944   7.9178416  47.1545566 163.3343125   6.5488641
  52.6910000 159.5900000   5.8290000  52.4060000 159.6360000   4.6270000
  53.0440000 158.4490000   6.4540000  53.3811476 158.5087215   7.4041916
  53.0710000 157.1380000   5.7850000  53.4567311 157.1957286   4.7671699
  53.9120000 156.0960000   6.5770000  53.6321337 156.1664094   7.6281026
  53.6850000 154.6660000   6.0840000  53.9651015 154.5946906   5.0330199
  54.2949885 153.9781277   6.6695307  52.6329090 154.4046631   6.1976190
  55.3920000 156.4490000   6.5360000  55.5439328 157.4325042   6.9806774
  55.9589822 155.7058224   7.0966405  55.7344675 156.4618308   5.5012768
  51.6440000 156.6620000   5.5360000  50.7960000 156.7530000   6.4300000
  51.3770000 156.1790000   4.3180000  52.0763920 156.2468258   3.5925003
  50.0580000 155.6720000   3.9610000  49.3531694 155.8976482   4.7612475
  49.5470000 156.3190000   2.6570000  50.2733775 155.9903832   1.9137060
  48.5688467 155.9018809   2.4175677  49.4640000 157.8720000   2.6490000
  50.4225127 158.2694853   2.9827061  49.1500000 158.4060000   1.2720000
  48.1913429 158.0092915   0.9377877  49.1001557 159.4943153   1.3064395
  49.9315061 158.1004292   0.5763168  48.4420000 158.4020000   3.6510000
  48.7191674 158.0840607   4.6560832  48.4209855 159.4909411   3.6077910
  47.4549205 158.0100497   3.4057490  50.0790000 154.1440000   3.9020000
  49.1960000 153.4940000   4.4570000  51.1420000 153.5790000   3.3100000
  51.8298975 154.2164945   2.9351706  51.3770000 152.1410000   3.1660000
  51.1494396 151.6246458   4.0985737  50.4600000 151.5790000   2.0530000
  49.4576029 151.9525956   2.2621068  50.8175517 152.0046009   1.1153856
  50.4220000 150.0590000   1.9390000  51.4694817 149.7584583   1.9153868
  49.9544338 149.6740325   2.8452456  49.7070000 149.4970000   0.7230000
  48.6290000 150.0230000   0.3590000  50.2140000 148.5010000   0.1550000
  52.8540000 151.9110000   2.7930000  53.3990000 152.6790000   1.9940000
  53.4950000 150.8640000   3.3570000  53.0807862 150.3955145   4.1501252
  54.8740000 150.5230000   2.9900000  55.1908559 151.2144182   2.2092040
  55.9220000 150.5310000   4.1490000  55.6852621 149.7327730   4.8524836
  57.3240000 150.3140000   3.5870000  57.5616479 151.1121485   2.8837340
  58.0477994 150.3210876   4.4019631  57.3654367 149.3535398   3.0732897
  55.8810000 151.8450000   4.9560000  56.4604637 152.5670612   4.3807172
  54.8351574 152.1515321   4.9747292  56.4390000 151.7810000   6.4380000
  57.4850015 151.4749632   6.4200495  56.3566172 152.7645228   6.9005962
  55.8596961 151.0594319   7.0140610  54.8770000 149.2150000   2.1750000
  54.8450000 148.1160000   2.7420000  54.8820000 149.3460000   0.8410000
  54.8086988 150.2740105   0.4491802  54.9510000 148.2140000  -0.0730000
  54.3787101 147.3784253   0.3299868  54.3680000 148.5930000  -1.4430000
  53.2847673 148.6122669  -1.5627286  54.8078292 149.4305111  -1.9845030
  54.9210000 147.2750000  -2.0030000  55.8237970 147.0185290  -1.4486706
  54.1712537 146.4977847  -1.8549496  55.2470000 147.3850000  -3.4700000
  55.1594586 148.4514079  -3.6778695  56.2944073 147.0888691  -3.5278263
  54.4960000 146.6480000  -4.4820000  53.5299908 146.3741913  -4.5913365
  55.3770000 146.2990000  -5.4430000  56.6750000 146.6320000  -5.3060000
  56.9793721 147.1391958  -4.4873364  57.3379829 146.3729798  -6.0225625
  54.9500000 145.6230000  -6.5250000  53.9734231 145.3805435  -6.6122490
  55.6079580 145.3610381  -7.2451152  56.4260000 147.8020000  -0.1860000
  57.3070000 148.6390000   0.0010000  56.6960000 146.5210000  -0.4660000
  55.9357234 145.8572162  -0.5043401  58.0670000 146.0130000  -0.5600000
  58.8115099 146.8084984  -0.5285925  58.3370000 145.0390000   0.6050000
  57.7455312 144.1407773   0.4276275  59.8150000 144.6580000   0.7430000
  60.4070846 145.5557189   0.9208657  59.9370083 143.9710751   1.5804648
  60.1536100 144.1758409  -0.1740422  57.8650000 145.6260000   1.8250000
  58.0302394 145.0242492   2.5545151  58.3750000 145.4220000  -1.9560000
  57.4970000 144.8420000  -2.6070000  59.6350000 145.5920000  -2.4040000
  60.2625601 146.1332835  -1.8266960  60.1310000 145.0900000  -3.6870000
  59.2877395 144.7995781  -4.3136307  60.9430000 146.1600000  -4.4240000
  61.7509481 146.4578177  -3.7557009  61.3621330 145.6825199  -5.3096863
  60.1510000 147.3870000  -4.8380000  59.2958491 147.0728659  -5.4364459
  59.7991080 147.9117001  -3.9497636  60.9890000 148.3340000  -5.6560000
  62.1730000 148.5700000  -5.3740000  60.3820000 148.9050000  -6.6910000
  60.8911659 149.5500318  -7.2781844  59.4142555 148.6913490  -6.8857441
  60.9850000 143.8380000  -3.5030000  61.5580000 143.6170000  -2.4240000
  61.0740000 143.0360000  -4.5890000  60.5145789 143.3296881  -5.3769687
  61.8150000 141.7750000  -4.6940000  61.4124080 141.0494561  -3.9871726
  61.6940000 141.2020000  -6.1030000  62.1606263 141.9003956  -6.7976961
  62.2258438 140.2510166  -6.1325420  60.3390000 140.9980000  -6.4760000
  60.3026149 140.6379717  -7.3651882  63.2910000 141.8990000  -4.2980000
  63.7980000 141.0370000  -3.5740000  63.9670000 142.9880000  -4.7370000
  63.4878616 143.6005471  -5.3814469  65.3840000 143.2600000  -4.4370000
  65.9702628 142.3525565  -4.5817111  65.9380000 144.3570000  -5.3650000
  66.9917443 144.4591005  -5.1055820  65.8497221 144.0138013  -6.3957869
  65.2490000 145.7010000  -5.2190000  64.0690000 145.8130000  -5.6310000
  65.8980000 146.6470000  -4.7250000  65.6640000 143.5970000  -2.9520000
  66.8310000 143.6900000  -2.5540000  64.5980000 143.7750000  -2.1690000
  63.6849750 143.6907591  -2.5925424  64.6740000 144.0820000  -0.7470000
  63.9796272 143.4133337  -0.2382456  65.6919068 143.8604072  -0.4262794
  64.3410000 145.5130000  -0.3770000  63.8800000 145.7540000   0.7410000
  64.5780000 146.4800000  -1.2950000  65.0913963 146.2486625  -2.1334548
  64.3250000 147.8970000  -1.0020000  64.3938276 148.1093976   0.0648876
  65.2240000 148.9180000  -1.8000000  65.1739751 149.8782692  -1.2866961
  66.6790000 148.4710000  -1.9010000  66.7298745 147.5109531  -2.4146364
  67.2494253 149.2124555  -2.4604278  67.0988321 148.3697369  -0.9002073
  64.6740000 149.2810000  -3.1930000  65.5293998 149.4264529  -3.8527238
  64.0866894 148.4317892  -3.5422947  63.7960000 150.5520000  -3.2010000
  64.3828008 151.4017840  -2.8522424  63.4447135 150.7451832  -4.2145962
  62.9400912 150.4071208  -2.5418111  62.7980000 148.1950000  -1.0740000
  62.1060000 147.7520000  -1.9960000  62.2990000 148.9440000  -0.0840000
  62.9306408 149.2264424   0.6517687  60.8870000 149.2910000   0.0450000
  60.2733275 148.5370077  -0.4479512  60.4890000 149.3570000   1.5200000
  61.1215487 150.1002581   2.0053337  59.4481480 149.6762842   1.5727706
  60.6440000 148.0290000   2.2220000  59.9998664 147.2902338   1.7451173
  61.6810996 147.6990282   2.1616249  60.2610000 148.1380000   3.6610000
  60.9430000 148.7840000   4.4660000  59.1580000 147.5000000   4.0130000
  58.8431597 147.5334212   4.9720933  58.6352210 146.9820833   3.3212155
  60.4930000 150.5780000  -0.6610000  61.3410000 151.3640000  -1.0780000
  59.1880000 150.7730000  -0.8010000  58.5800761 150.0478558  -0.4478800
  58.5810000 151.9400000  -1.4220000  59.3415195 152.7027831  -1.5889465
  57.9460000 151.5730000  -2.7770000  57.2249766 150.7798995  -2.5789694
  57.4207492 152.4619353  -3.1262930  58.9360000 151.1070000  -3.8550000
  59.5763107 150.3933816  -3.3364907  58.4205070 150.6041218  -4.6732191
  59.8020000 152.2030000  -4.4310000  59.3510000 153.3190000  -4.6970000
  61.0480000 151.8790000  -4.7240000  61.6695450 152.5743343  -5.1116770
  61.3738116 150.9373237  -4.5590945  57.5140000 152.4520000  -0.4650000
  56.8200000 151.6570000   0.1780000  57.3830000 153.7660000  -0.3510000
  57.9974321 154.4232364  -0.8099258  56.3920000 154.2800000   0.5650000
  55.8097934 153.4195021   0.8946635  57.0670000 154.8990000   1.7720000
  57.6466002 155.7675137   1.4591940  56.3104828 155.2082694   2.4932035
  57.7302084 154.1671646   2.2331624  55.4230000 155.2500000  -0.0800000
  55.8480000 156.2580000  -0.6520000  54.1120000 154.9020000  -0.0320000
  53.8782314 154.0000440   0.3577782  53.0230000 155.7660000  -0.4800000
  53.3232463 156.2541764  -1.4071651  51.7170000 154.9930000  -0.7320000
  51.8383930 154.0718797  -0.1619996  50.9483629 155.6094714  -0.2658884
  51.2890000 154.6460000  -2.2010000  51.3438213 155.5692303  -2.7778373
  52.0171747 153.9329222  -2.5875019  49.8530000 154.0410000  -2.3220000
  49.8119261 153.1324655  -1.7211863  49.1407728 154.7673535  -1.9305380
  49.4960000 153.7080000  -3.7780000  48.5486842 153.1694690  -3.7519680
  49.3583542 154.6596630  -4.2913132  50.5010000 152.9010000  -4.4990000
  50.6283788 152.0189471  -4.0237559  50.1831217 152.7321660  -5.4426888
  51.3787635 153.4000238  -4.5236067  52.8910000 156.6900000   0.7150000
  52.6640000 156.2350000   1.8450000  53.2360000 157.9560000   0.4990000
  53.5671255 158.2207922  -0.4177008  53.2770000 158.9490000   1.5600000
  52.7109482 158.6470469   2.4411974  54.7270000 159.2860000   1.9940000
  54.6879524 159.9972568   2.8190384  55.4710000 158.0350000   2.4380000
  55.5108622 157.3234100   1.6132869  56.4848675 158.3013855   2.7366837
  54.9509456 157.5828502   3.2825150  55.4960000 160.0210000   0.9000000
  54.9869030 160.9549948   0.6621429  56.5062877 160.2367948   1.2476364
  55.5449042 159.3969865   0.0076344  52.5070000 160.1790000   1.1660000
  52.2850000 160.3950000  -0.0300000  52.1010000 160.9830000   2.1660000
  52.2819969 160.6980277   3.1179087  51.3810000 162.2250000   1.9440000
  51.2614386 162.3954432   0.8740685  49.9910000 162.1650000   2.5890000
  49.5071885 161.2533290   2.2384552  50.1336965 162.1081254   3.6681214
  49.1150000 163.3640000   2.2560000  49.7348681 164.2589554   2.3100300
  48.7135911 163.2610050   1.2478507  47.9690000 163.5150000   3.2160000
  47.0020000 162.7390000   3.1950000  48.0470000 164.5400000   4.0650000
  47.3070976 164.6942686   4.7349605  48.8456349 165.1575291   4.0343164
  52.2140000 163.3510000   2.5320000  52.5260000 163.3080000   3.7250000
  52.5900000 164.3460000   1.6990000  52.4176927 164.2381724   0.7096655
  53.3970000 165.4840000   2.1430000  54.2154135 165.1040894   2.7545280
  53.9770000 166.3210000   0.9600000  53.2148786 166.3768212   0.1827257
  54.3800000 167.7440000   1.3860000  55.1424808 167.6889949   2.1629801
  54.7769798 168.2826903   0.5255812  53.5063545 168.2695296   1.7715663
  55.2140000 165.6480000   0.3660000  55.6973422 166.4010969  -0.2563553
  55.8599114 165.4057439   1.2099253  54.9790000 164.4650000  -0.4110000
  54.3334951 164.7065803  -1.2554301  55.9286504 164.0771572  -0.7795664
  54.4960619 163.7112277   0.2108504  52.6350000 166.3240000   3.1640000
  51.4840000 166.6970000   2.9320000  53.2730000 166.5890000   4.3070000
  54.1769800 166.1744195   4.4831889  52.6800000 167.4160000   5.3450000
  51.5941977 167.3410453   5.2857184  53.1270000 166.9760000   6.7490000
  54.2034105 167.1394320   6.6967541  52.6945435 167.6429434   7.4948337
  52.8510000 165.5260000   7.1420000  53.2421504 164.8698911   6.3644247
  53.5150000 165.1910000   8.4690000  53.1239910 165.8464352   9.2472130
  53.3051570 164.1535179   8.7291877  54.5923118 165.3326656   8.3828000
  51.3580000 165.2200000   7.1660000  50.9353443 165.3921523   6.1761388
  51.2044844 164.1789073   7.4500075  50.8649819 165.8698035   7.8890404
  53.0570000 168.8780000   5.0840000  54.2460000 169.1770000   4.9400000
  52.0750000 169.8050000   4.9910000  50.6170000 169.6330000   5.1250000
  50.3254062 169.7258048   6.1711647  50.3216179 168.6524657   4.7516358
  50.0940000 170.7350000   4.2900000  49.1078190 171.0246836   4.6528079
  50.0156907 170.3976330   3.2564854  51.0820000 171.8700000   4.4130000
  50.7591356 172.5120603   5.2325219  51.1809677 172.4637270   3.5042683
  52.4240000 171.2180000   4.7600000  53.1562607 171.2587918   3.9536325
  53.0010000 171.8780000   6.0010000  52.5720000 171.5760000   7.1200000
  53.9810000 172.7760000   5.7980000  54.3319056 172.9210894   4.8620974
  54.5600000 173.5590000   6.8820000  54.7000406 172.9208542   7.7545009
  55.9240000 174.1490000   6.4800000  56.1013072 173.8628798   5.4432760
  55.8338063 175.2332056   6.5468091  57.0950000 173.6810000   7.3450000
  57.1529779 172.5991044   7.2256628  57.9796652 174.1423515   6.9061133
  57.0260000 174.0240000   8.8230000  56.9180000 175.2250000   9.1650000
  57.0670000 173.0780000   9.6420000  53.5380000 174.6540000   7.1260000
  53.1610000 175.3570000   6.1750000  52.9950000 174.7270000   8.3590000
  53.2084874 174.0264896   9.0545629  51.9330000 175.6940000   8.6500000
  51.5177492 176.0539319   7.7086632  50.7940000 175.0830000   9.4890000
  51.2303730 174.5881125  10.3566199  50.1390632 175.8882012   9.8218797
  49.9780000 174.0620000   8.6720000  49.7097139 174.5543781   7.7372877
  50.6453121 173.2258454   8.4630930  48.7250000 173.5500000   9.3500000
  48.3453962 172.6968928   8.7876761  48.9778487 173.2339503  10.3620670
  47.6730000 174.5690000   9.4250000  47.9027590 175.4879781   9.0745868
  46.4530000 174.3640000   9.9200000  46.1100000 173.1690000  10.3910000
  46.7782478 172.4118743  10.3735212  45.1827532 173.0237819  10.7641284
  45.5670000 175.3500000   9.9460000  45.8187092 176.2605518   9.5887354
  44.6444408 175.1860174  10.3229522  52.4900000 176.9960000   9.2280000
  53.0930000 177.0310000  10.3150000  52.3480000 178.0570000   8.4210000
  51.9581130 177.8944487   7.5035772  52.8120000 179.3980000   8.7460000
  53.4468300 179.3873750   9.6319894  53.6020000 180.0390000   7.5790000
  52.9410974 180.1265364   6.7166518  54.1220000 181.4170000   7.9610000
  54.7833888 181.3302093   8.8230517  54.6728042 181.8433343   7.1225763
  53.2828429 182.0660071   8.2114133  54.7570000 179.1500000   7.1570000
  54.3721592 178.1836585   6.8311416  55.2974479 179.6209081   6.3358659
  55.4322623 179.0059124   8.0004218  51.6110000 180.2370000   9.1700000
  50.5880000 180.2620000   8.4770000  51.7300000 180.8940000  10.3200000
  52.5678866 180.7896388  10.8742148  50.6570000 181.7220000  10.8430000
  49.7924966 181.6629995  10.1817497  50.2370000 181.2490000  12.2440000
  51.1565665 181.2559018  12.8291915  49.5574788 182.0103430  12.6270245
  49.5790000 179.8830000  12.3510000  50.2208941 179.1365412  11.8831625
  49.3730000 179.5340000  13.7720000  48.7307784 180.2798060  14.2404267
  48.9010914 178.5538928  13.8412308  50.3349584 179.5104949  14.2840391
  48.2350000 179.8480000  11.6410000  48.3752575 180.0786951  10.5849664
  47.7967717 178.8549299  11.7403426  47.5680738 180.5852480  12.0879608
  51.0720000 183.1810000  10.8820000  52.2630000 183.4530000  11.0350000
  50.1320000 184.1450000  10.7720000  48.6700000 184.0100000  10.5990000
  48.2717159 183.3782833  11.3929799  48.4641232 183.5506700   9.6321858
  48.1680000 185.4240000  10.6800000  47.8656355 185.6519610  11.7021099
  47.3163068 185.5536106  10.0122267  49.3200000 186.2760000  10.2480000
  49.2053555 187.2578145  10.7073429  49.4483077 186.3916980   9.1717794
  50.5330000 185.5620000  10.8440000  51.4535796 185.6923087  10.2750966
  50.7630000 186.0020000  12.2950000  50.6280000 185.1750000  13.1980000
  51.0320000 187.3080000  12.5310000  51.1150114 187.9404756  11.7479400
  51.1810000 187.8530000  13.8830000  52.0445651 187.4015971  14.3714568
  51.3880000 189.3680000  13.8260000  52.3732411 189.5404583  13.3928057
  50.6238222 189.7707760  13.1612415  51.3060000 190.0160000  15.0900000
  51.4452585 190.9589554  14.9757984  49.8970000 187.5600000  14.6400000
  48.8230000 187.5530000  14.0380000  50.0000000 187.3320000  15.9550000
  50.9220077 187.2499276  16.3590610  48.8400000 187.0960000  16.8180000
  48.2241222 186.2622456  16.4808838  49.2670000 186.8350000  18.2800000
  49.0547077 187.7291973  18.8660404  48.5380000 185.6730000  18.8650000
  48.7501851 184.7782758  18.2797259  48.8640146 185.5194045  19.8936992
  47.4662028 185.8707858  18.8497674  50.6930000 186.6470000  18.4220000
  50.9045864 186.4890396  19.3449735  47.8660000 188.2910000  16.6910000
  46.6470000 188.1090000  16.5780000  48.4510000 189.5020000  16.5830000
  49.4582154 189.4630753  16.6470421  47.8130000 190.8140000  16.4790000
  46.9034220 190.8421188  17.0789803  48.7730000 191.8870000  16.9960000
  49.6794258 191.8321355  16.3931058  48.2941342 192.8543023  16.8439679
  49.1340000 191.7230000  18.4770000  49.5235864 190.7118973  18.5952985
  49.9239690 192.4433614  18.6894395  47.7600000 191.9770000  19.6490000
  47.4320000 190.3390000  20.0810000  48.3212407 189.8958972  20.5293413
  46.6111128 190.3090602  20.7974834  47.1561498 189.7758263  19.1894602
  47.3120000 191.2000000  15.1070000  46.4870000 192.0910000  15.0270000
  47.7920000 190.5500000  14.0290000  48.5136477 189.8632919  14.1956012
  47.4020000 190.8300000  12.6350000  47.8439647 191.7704474  12.3058723
  47.8920000 189.7170000  11.7220000  47.6470586 189.9551373  10.6869185
  48.9716370 189.6062659  11.8231031  47.2560000 188.5040000  12.0910000
  47.5605216 187.7960271  11.5186008  45.8830000 191.0430000  12.4460000
  45.4730000 192.0700000  11.9050000  45.0660000 190.0850000  12.9300000
  45.5208703 189.2690363  13.3139213  43.6010000 190.1010000  12.8710000
  43.3201628 190.2689426  11.8312765  43.0470000 188.7470000  13.3140000
  43.3123142 188.5686270  14.3560612  41.9619097 188.7464068  13.2106610
  43.4711617 187.9590666  12.6916279  42.9740000 191.2440000  13.7110000
  42.1600000 192.0140000  13.1990000  43.3770000 191.3710000  14.9810000
  43.9881045 190.6642345  15.3645794  42.8320000 192.3740000  15.8820000
  41.7485742 192.4728404  15.8147811  43.2090000 192.0540000  17.3470000
  43.1238905 190.9769087  17.4909786  44.6200000 192.5000000  17.6880000
  44.7057593 193.5771307  17.5446971  44.8383158 192.2537127  18.7271253
  45.3301426 191.9897381  17.0372835  42.2080000 192.6570000  18.3150000
  41.2170284 192.2498415  18.1142533  42.4993082 192.4153150  19.3371681
  42.1876057 193.7396048  18.1898934  43.1830000 193.8310000  15.4480000
  42.3880000 194.7350000  15.7230000  44.3190000 194.0590000  14.7380000
  45.0120223 193.3321747  14.6305551  44.6660000 195.4220000  14.3090000
  43.8932934 196.1007796  14.6699459  46.0430000 195.9090000  14.8410000
  46.1453009 196.9309202  14.4758796  45.9425197 195.9198408  15.9263047
  47.2900000 195.0980000  14.4500000  47.2030637 194.0708162  14.8041699
  47.3186635 195.1048835  13.3603977  48.5890000 195.6830000  14.9730000
  48.7290000 196.0370000  16.1530000  49.5960000 195.7420000  14.1140000
  50.4845211 196.1221049  14.4075164  49.4704830 195.4065977  13.1696208
  44.5030000 195.6540000  12.7620000  45.3210000 195.2440000  11.9310000
  43.3790000 196.2900000  12.4180000  42.7505413 196.4291779  13.1963113
  42.9770000 196.7910000  11.1040000  43.8183213 196.7185979  10.4147717
  41.8010000 195.9750000  10.5330000  41.3149470 195.5498569  11.4111259
  41.1205275 196.6715503  10.0432298  42.1690000 194.8510000   9.5590000
  42.9330030 195.2248065   8.8773337  42.6970000 193.6200000  10.2880000
  41.9333288 193.2453224  10.9695584  42.9464563 192.8462617   9.5619136
  43.5891454 193.8872950  10.8543306  40.9730000 194.4610000   8.7160000
  40.6333005 195.3248863   8.1446822  41.2557085 193.6614957   8.0311861
  40.1678914 194.1154992   9.3644815  42.5750000 198.2460000  11.4420000
  41.3920000 198.6340000  11.3680000  43.6010000 199.0200000  11.9200000
  44.5037397 198.5709360  11.9791772  43.4690000 200.3830000  12.4360000
  42.6797067 200.9220823  11.9120673  43.1010000 200.3010000  13.9310000
  42.8661150 201.3152006  14.2539944  42.2070725 199.6813786  14.0021547
  44.1940000 199.7220000  14.8270000  44.6725537 198.8982340  14.2973806
  44.9390544 200.4805012  15.0671496  43.6140000 199.1960000  16.1090000
  43.4150000 197.9890000  16.2530000  43.3010000 200.0820000  17.0570000
  42.9089589 199.7637702  17.9317200  43.4576369 201.0665856  16.8952673
  44.7060000 201.3070000  12.2180000  45.6440000 200.9480000  11.5060000
  44.6630000 202.5080000  12.8400000  43.8098472 202.6558372  13.3599748
  45.6640000 203.5820000  12.8250000  45.9784705 203.7956394  11.8034494
  45.0520000 204.8440000  13.4200000  45.8044526 205.6324181  13.4376427
  44.2108168 205.1590315  12.8025326  44.6000000 204.5920000  14.7420000
  44.2165942 205.3927770  15.1071794  46.9400000 203.2490000  13.6070000
  47.9890000 203.8540000  13.3670000  46.8330000 202.3300000  14.5740000
  45.9094863 201.9622263  14.7527853  47.9310000 201.8990000  15.4400000
  48.6062113 202.7316212  15.6373089  47.3600000 201.3970000  16.7850000
  46.4578621 200.8491295  16.5128154  48.1011384 200.7021919  17.1800387
  47.0160000 202.4540000  17.8650000  47.8673251 203.1293249  17.9503385
  45.7520000 203.2630000  17.5340000  44.9001042 202.5883596  17.4489554
  45.5644428 203.9859533  18.3278902  45.8936622 203.7893014  16.5900513
  46.8010000 201.7890000  19.1940000  47.7086369 201.2620069  19.4882330
  46.5601248 202.5429776  19.9433986  45.9779460 201.0785980  19.1164753
  48.8310000 200.8370000  14.7860000  49.8440000 200.4550000  15.3690000
  48.4610000 200.3870000  13.5690000  47.6026980 200.7887261  13.2196675
  49.1380000 199.3680000  12.7510000  49.2085484 198.4313762  13.3040443
  48.3490000 199.1190000  11.4690000  48.8861057 198.3853992  10.8677957
  47.3694477 198.7222603  11.7357863  48.1870000 200.3170000  10.7210000
  47.6883769 200.1304864   9.9221336  50.5710000 199.7230000  12.3800000
  51.4490000 198.8550000  12.4110000  50.7930000 200.9930000  11.9880000
  49.9786514 201.5767109  11.8606528  52.0930000 201.5170000  11.5730000
  52.6598969 200.7191782  11.0932005  51.9570000 202.6930000  10.5790000
  52.8753012 203.2753813  10.6541949  51.8852715 202.2556256   9.5831794
  50.7620000 203.5990000  10.8210000  49.8528141 203.0294703  10.6283403
  50.7764015 203.9178190  11.8632327  50.7950000 204.8130000   9.9230000
  51.6595390 205.4247584  10.1807267  50.8766592 204.4881381   8.8857460
  49.5870000 205.6250000  10.0660000  48.8590602 205.4824604   9.3805181
  49.3960000 206.5380000  11.0140000  50.3280000 206.7560000  11.9370000
  51.1868549 206.2248506  11.9183300  50.1727848 207.4517329  12.6525163
  48.2640000 207.2270000  11.0600000  47.5445695 207.0569516  10.3718115
  48.1264120 207.9186800  11.7830125  52.9920000 201.8420000  12.7770000
  53.3310000 202.9990000  13.0320000  53.3480000 200.7860000  13.5280000
  52.9459327 199.9051313  13.2407517  54.2340000 200.7970000  14.6900000
  54.8213588 201.7151233  14.6774099  53.4570000 200.7280000  16.0180000
  52.8022377 199.8593720  15.9482081  54.1971340 200.5624713  16.8008806
  52.6290000 201.9620000  16.3550000  53.1901585 202.8572962  16.0873309
  51.6966149 201.9360707  15.7910073  52.3210000 201.9840000  17.8390000
  51.2881376 202.3007291  17.9838339  52.4533460 200.9812239  18.2452314
  53.2020000 202.9060000  18.5660000  53.7051196 203.5808116  18.0077892
  53.3670000 202.9250000  19.8880000  52.7330000 202.0470000  20.6580000
  52.1220401 201.3607296  20.2386423  52.8649850 202.0699615  21.6590756
  54.1820000 203.8110000  20.4470000  54.6781580 204.4724751  19.8670189
  54.3022640 203.8196450  21.4497764  55.0990000 199.5670000  14.4960000
  54.7220000 198.4610000  14.8930000  56.2080000 199.7530000  13.7790000
  56.3671613 200.6867273  13.4283999  57.1530000 198.7040000  13.4080000
  56.6202926 197.8136808  13.0738537  58.0480000 199.2080000  12.2510000
  57.4996028 199.8831120  11.5940498  58.8902104 199.7385661  12.6951635
  58.6300000 198.1340000  11.3750000  59.8660000 197.5570000  11.6520000
  60.0740000 196.6720000  10.6890000  60.9964629 196.0927275  10.7290568
  59.0680000 196.6570000   9.8120000  58.9738262 196.0786921   8.9893268
  58.1460000 197.5950000  10.2300000  57.2403806 197.7660415   9.6480210
  58.0020000 198.2390000  14.5990000  58.1040000 198.9320000  15.6130000
  58.6330000 197.0680000  14.4410000  58.3723757 196.5574900  13.6094028
  59.5250000 196.4200000  15.4010000  59.1373662 196.4003998  16.4195554
  59.8650000 194.9610000  14.9440000  60.4822033 194.4924767  15.7105810
  58.5780000 194.1210000  14.7320000  57.9604622 194.5886809  13.9651739
  58.8489247 193.1138316  14.4152787  58.0191035 194.0694805  15.6663873
  60.7890000 194.9340000  13.6870000  60.1786431 195.3040627  12.8632168
  61.5895688 195.6444442  13.8930538  61.4090000 193.5470000  13.2960000
  60.6089837 192.8361109  13.0893349  62.0295028 193.6633236  12.4074369
  62.0199079 193.1764912  14.1191735  60.7840000 197.2710000  15.6890000
  60.9620000 198.3670000  15.1430000  61.9210000 197.1740000  16.3850000
  61.8737778 197.0626765  15.3822655  62.4720000 196.1070000  17.1600000
  63.5508513 195.9852880  17.2567738  61.9730000 196.9160000  18.3260000
  60.9038328 196.7776069  18.4867111  62.5074147 196.7257602  19.2567577
  62.1790000 198.4010000  17.9970000  63.0100000 198.8740000  16.9650000
  63.5513606 198.1629118  16.3409950  63.1440000 200.2500000  16.7370000
  63.8028865 200.5418750  15.9192113  62.4990000 201.2140000  17.4790000
  62.5512753 202.2946462  17.3464447  61.7140000 200.6760000  18.4890000
  61.2172864 201.4431502  19.0830171  61.5200000 199.3290000  18.7880000
  60.8712461 199.0424070  19.6156972  63.8880000 196.0560000  16.5240000
  64.4050000 197.0940000  16.1450000  64.6570000 194.9530000  16.3350000
  64.5810000 193.5150000  16.6510000  64.8324228 192.8326976  15.8389961
  63.6637725 193.1801248  17.1354083  65.7560000 193.7010000  17.6640000
  66.4723930 192.8848147  17.5706100  65.3764073 193.7355065  18.6851856
  66.3960000 195.0740000  17.2580000  67.4790612 194.9664875  17.3173178
  66.0831949 195.9306235  17.8550334  65.9640000 195.2740000  15.7740000
  65.7642196 196.0931756  15.0832486  66.7690000 194.1880000  15.0570000
  65.6450000 193.7010000  15.0110000  67.7330000 195.0860000  15.3580000
  67.1186040 194.6009081  14.7197973  69.1640000 195.1040000  15.0630000
  69.6395860 196.0847214  15.0528688  69.6310000 194.3290000  16.3610000
  70.7188684 194.3393513  16.4283379  69.2080959 194.8012675  17.2476880
  69.1700000 192.9720000  16.2760000  69.4472154 192.4902598  17.0587374
  68.8220000 196.3190000  15.8870000  67.6250000 196.5600000  15.8340000
  69.5370000 197.1330000  16.6300000  70.5182519 197.2255049  16.8506513
  68.5910000 198.0620000  17.2610000  67.5123034 198.0296715  17.1078083
  68.9820000 196.9580000  18.2990000  68.4369638 196.1058530  17.8929455
  70.0436550 196.8485308  18.0776287  68.7960000 197.0120000  19.7000000
  69.1244915 196.2024219  20.0978398  69.2620000 199.4100000  17.1750000
  70.2520000 200.0790000  16.8650000  69.8210000 198.2930000  16.7780000
  69.7444628 198.7664000  17.6668947  71.1500000 198.0610000  16.2320000
  71.4758457 197.0914657  16.6087321  71.2800000 198.0620000  14.7080000
  70.7404959 198.9547456  14.3917093  72.3462170 198.1996503  14.5281842
  70.7810000 196.8570000  13.9120000  71.1685276 195.8934843  14.2429997
  69.6984643 196.7940189  13.8013120  71.4060000 197.2220000  12.5760000
  71.8311183 196.3546743  12.0709065  70.6968358 197.7168110  11.9124131
  72.5060000 198.1800000  12.9370000  73.2174525 197.6857404  13.5985461
  73.0181121 198.5051692  12.0314033  71.9360000 199.3380000  13.6150000
  71.4617871 199.0369567  14.4544015  72.6743176 199.9828357  13.8582570
  71.2770410 199.7963835  13.0020100  71.8290000 196.7030000  16.4340000
  72.9490000 196.7920000  15.8800000  71.4420000 195.5040000  17.0740000
  70.2950000 194.9230000  17.8440000  70.0054561 193.9270503  17.5088153
  69.4162564 195.5674625  17.8680159  71.0370000 194.9000000  19.1790000
  70.8162993 194.0329001  19.8015175  70.9246752 195.8089634  19.7699907
  72.4460000 194.8110000  18.5720000  72.5658944 195.8897116  18.6725268
  71.5112373 194.5045317  19.0414631  72.4380000 194.4260000  17.0980000
  72.5485794 193.9005103  18.0465415  73.6720000 195.3530000  16.8710000
  72.5450000 195.7480000  16.9950000  73.9330000 196.6930000  16.7640000
  73.2236281 196.6977916  16.0450647  75.1150000 197.4900000  16.5620000
  75.7435274 196.6895805  16.9523602  75.9320000 198.3000000  15.5260000
  76.9493420 197.9220761  15.6274296  75.5259706 197.9946029  14.5616490
  75.9450000 199.8630000  15.6150000  76.4043151 199.9226080  16.6017002
  76.7059540 200.0198161  14.8505003  74.8490000 200.9580000  15.4870000
  74.3778500 200.8930872  16.4677665  75.4620695 201.8579053  15.4378502
  73.7640000 201.0180000  14.4010000  74.1377926 201.2080446  13.3948873
  73.0915880 200.1603232  14.3822437  73.0340000 202.2040000  14.8860000
  73.6567822 202.9989537  14.9030474  72.2580931 202.3973274  14.2689967
  72.6871854 202.0279504  15.8181080  75.1890000 196.9810000  17.9610000
  74.2270000 196.6920000  17.3070000  74.3300000 196.2180000  18.6740000
  73.5769785 196.8702155  18.5076484  74.6650000 195.9150000  19.9990000
  75.7443498 195.9542391  20.1458454  74.0040000 196.8920000  20.9710000
  73.8466539 196.3023387  21.8741285  74.7000000 198.1820000  21.3280000
  74.8572877 198.7724502  20.4253760  74.0837328 198.7463223  22.0278968
  75.6625650 197.9605915  21.7890299  72.6320000 197.3360000  20.4660000
  71.9852181 196.4654377  20.3569295  72.1886782 198.0301919  21.1799069
  72.7419430 197.8295633  19.5003869  75.8330000 194.8680000  20.0470000
  76.4040000 194.6930000  21.1170000  76.3200000 194.1140000  19.0270000
  75.5341751 193.8373790  18.4559839  77.4660000 193.1600000  19.1680000
  77.1499011 192.2280211  18.6993893  78.8470000 193.5960000  18.5420000
  79.5491301 193.6430358  19.3744062  79.0886860 192.7404153  17.9113950
  79.0850000 194.8280000  17.7070000  78.2690000 195.8610000  17.5110000
  77.2929689 195.8629816  17.9962413  78.9060000 196.7550000  16.6720000
  78.4190978 197.5746560  16.3385487  80.1780000 196.4050000  16.3450000
  81.1790000 197.0530000  15.5450000  80.9630949 198.0273191  15.1066099
  82.4080000 196.3620000  15.3780000  83.2390487 196.7545806  14.7920491
  82.5490000 195.0900000  16.0150000  83.4693900 194.5138865  15.9197371
  81.4930000 194.5380000  16.7920000  81.7214174 193.5608598  17.2175857
  80.3160000 195.1600000  16.9770000  77.3990000 192.0660000  20.2850000
  76.3700000 192.7080000  20.5030000  76.9810000 191.3170000  21.3430000
  76.8932688 190.8055774  20.4764843  75.7780000 191.5210000  22.1540000
  75.6654543 192.5993821  22.0420864  74.4050000 190.8740000  22.0380000
  73.9838929 191.2020584  22.9883398  73.9992367 191.4845103  21.2313196
  74.0420000 189.4070000  21.7990000  73.0185616 189.1597871  22.0810646
  74.2341912 189.0547295  20.7855553  74.9920000 188.6970000  22.7480000
  74.5990000 188.2930000  23.8470000  76.2530000 188.5660000  22.2980000
  76.9451072 188.1048727  22.8711062  76.5018895 188.9293691  21.3890895
  75.3060000 192.8800000  22.7760000  75.6310000 193.3240000  21.6820000
  75.0360000 192.1160000  23.8770000  75.7766829 191.4302832  23.9127862
  74.4810000 192.5890000  25.1220000  73.9939930 191.8784826  25.7898985
  75.8920000 192.8380000  25.6240000  75.9404919 193.8730872  25.9621452
  76.0660303 192.1717558  26.4689451  76.9830000 192.5950000  24.5380000
  78.1410000 192.8980000  24.8800000  76.7720000 192.1370000  23.3930000
  74.4070000 194.0930000  25.2950000  74.9920000 194.1080000  24.2020000
  73.7900000 193.6900000  26.4440000  73.5986474 192.7183217  26.6423047
  73.2720000 194.7020000  27.3670000  72.3547527 194.3361254  27.8284027
  74.2860000 195.0160000  28.4740000  73.4602701 195.3981095  29.0742181
  74.3874233 193.9431397  28.6376583  75.6080000 195.7330000  28.8920000
  75.7843306 195.2516413  29.8539263  76.2879404 195.3174477  28.1482935
  75.8580000 197.2670000  29.0250000  75.2725784 197.6347587  29.8676945
  76.9182709 197.4223222  29.2244993  75.4790000 198.0490000  27.7970000
  76.1480294 197.5051380  28.3230354  75.8350000 198.5070000  26.5950000
  77.0870000 197.9290000  26.7110000  77.3251273 197.4102769  27.5442597
  77.7571126 198.0284256  25.9618916  76.4180000 198.8420000  25.4470000
  77.3628322 198.5398811  25.2569569  75.9130808 199.3968993  24.7708032
  72.8170000 195.9860000  26.6560000  73.3200000 196.3060000  25.5690000
  71.8640000 196.7170000  27.3040000  71.5634979 196.2310623  28.1368640
  71.1560000 197.9630000  26.9230000  70.8362064 198.3816817  27.8772205
  72.0770000 198.9680000  26.2330000  72.3983250 198.5667674  25.2718222
  71.5408668 199.9037204  26.0746059  72.9497979 199.1515132  26.8596146
  69.8860000 197.7110000  26.0940000  68.8730000 198.3780000  26.3190000
  69.9320000 196.7160000  25.1770000  70.8410170 196.3162596  24.9926225
  68.8050000 196.3060000  24.3270000  68.1473682 197.1616949  24.1740105
  69.2760000 195.7850000  22.9360000  68.4202422 195.4884536  22.3295035
  69.7667442 196.6428147  22.4761912  70.2680000 194.6350000  22.8800000
  69.8280000 193.3160000  22.8220000  68.7578023 193.1099614  22.8400244
  70.7460000 192.2560000  22.7410000  70.3858571 191.2275606  22.7143516
  72.1060000 192.5150000  22.6950000  72.8182576 191.6920701  22.6352062
  72.5580000 193.8170000  22.7250000  73.6275071 194.0244023  22.6898016
  71.6390000 194.8770000  22.8010000  71.9942178 195.9074927  22.7987803
  67.8460000 195.3110000  25.0470000  67.0470000 194.6400000  24.3900000
  67.9070000 195.2520000  26.3990000  68.5870810 195.8414107  26.8574585
  67.0180000 194.4340000  27.2350000  66.9776175 193.4224684  26.8309304
  67.5130000 194.3620000  28.7010000  67.4945686 195.3888772  29.0660791
  66.7649896 193.7742737  29.2331261  68.8980000 193.7610000  28.9410000
  68.8238137 193.1183439  29.8182630  69.1435846 193.1563094  28.0679940
  69.9900000 194.7980000  29.1630000  70.9534588 194.2894997  29.1273130
  69.9346901 195.5276163  28.3551013  69.8790000 195.5050000  30.4430000
  70.2053644 195.0145146  31.2633717  69.3870000 196.7340000  30.5910000
  68.9420000 197.4130000  29.5380000  68.9770759 196.9944419  28.6194801
  68.5709413 198.3442183  29.6614812  69.3320000 197.2930000  31.7930000
  69.6649253 196.7836870  32.5991396  68.9574580 198.2252750  31.8963460
  65.6630000 195.1440000  27.2290000  64.6180000 194.4960000  27.1330000
  65.7060000 196.4950000  27.3250000  66.6258460 196.8931443  27.4493536
  64.5530000 197.3970000  27.3290000  63.8025713 197.0257831  28.0269641
  64.9610000 198.8090000  27.7550000  65.7630246 199.1297577  27.0901916
  64.0935744 199.4539438  27.6145711  65.4340000 198.9010000  29.2040000
  64.6712573 198.4701417  29.8526027  66.3649888 198.3462274  29.3205731
  65.6690000 200.3270000  29.6200000  66.5420000 201.0230000  29.0860000
  64.8960000 200.7910000  30.5940000  65.0090294 201.7420747  30.9145976
  64.1982813 200.1908906  31.0101234  63.8780000 197.4340000  25.9740000
  62.6770000 197.7030000  25.9020000  64.6490000 197.1540000  24.8970000
  65.6317914 196.9871826  25.0594575  64.1510000 197.0790000  23.5250000
  63.7156296 198.0375914  23.2427690  65.2840000 196.7470000  22.5440000
  66.0491207 197.5206003  22.6090544  65.7300554 195.7763893  22.7609090
  64.8380000 196.7040000  21.1130000  64.7910000 197.7510000  20.2450000
  65.1226317 198.7181017  20.6229344  64.3110000 197.3340000  19.0220000
  64.1811666 197.9233208  18.2120964  64.0410000 195.9910000  19.0810000
  63.5590000 195.1210000  18.0980000  63.3600680 195.5166301  17.1020073
  63.3650000 193.8060000  18.4570000  62.9753494 193.1012046  17.7224690
  63.6570000 193.3490000  19.7480000  63.4999600 192.3050665  20.0193684
  64.1530000 194.2060000  20.7180000  64.3962360 193.7903016  21.6958199
  64.3460000 195.5600000  20.3920000  63.0950000 195.9920000  23.4480000
  62.0430000 196.2130000  22.8510000  63.3910000 194.8190000  24.0420000
  64.3276382 194.6971369  24.3997115  62.4910000 193.6770000  24.0630000
  62.1017510 193.5037334  23.0597238  63.2050000 192.4230000  24.5290000
  63.9867259 192.7681237  25.2056783  62.6071008 191.6585320  25.0251908
  63.8930000 191.7530000  23.3890000  65.2110000 191.8490000  23.0600000
  65.8451455 192.4311179  23.7286538  65.4600000 191.1550000  21.8990000
  66.3563280 191.0877743  21.4383740  64.2830000 190.6190000  21.4360000
  64.0140000 189.8760000  20.2770000  64.8387039 189.6443295  19.6029889
  62.7140000 189.4840000  20.0640000  62.4692258 188.8872591  19.1853158
  61.6920000 189.8340000  20.9520000  60.6646376 189.5183070  20.7704403
  61.9500000 190.5890000  22.0850000  61.1173798 190.8207418  22.7491838
  63.2690000 190.9990000  22.3400000  61.2120000 193.9150000  24.8480000
  60.1880000 193.3150000  24.5100000  61.2520000 194.8000000  25.8660000
  62.1345307 195.2220437  26.1172332  60.0670000 195.1630000  26.6370000
  59.4700726 194.2701617  26.8230554  60.4430000 195.7850000  27.9760000
  61.1452448 196.5882003  27.7527943  59.5252583 196.2084358  28.3841082
  61.0600000 194.8420000  28.9920000  60.2770850 194.1961872  29.3895811
  61.8530026 194.2291600  28.5634257  61.6380000 195.6550000  30.1270000
  60.9520000 196.4770000  30.7550000  62.9280000 195.4800000  30.3880000
  63.3635847 195.9993539  31.1367583  63.4677836 194.8283276  29.8365854
  59.2440000 196.1630000  25.8130000  58.0250000 196.0090000  25.7260000
  59.9170000 197.1670000  25.1870000  60.9124738 197.2274086  25.3466313
  59.2890000 198.1720000  24.3220000  58.5213882 198.7113988  24.8769056
  60.3350000 199.1780000  23.8290000  61.0887854 199.2642704  24.6116009
  60.7887962 198.7537479  22.9333554  59.7750000 200.5590000  23.5090000
  58.9984215 200.4562568  22.7510617  59.3430265 200.9818007  24.4160504
  60.8770000 201.4870000  22.9880000  61.7549585 201.3220079  23.6125522
  61.0961841 201.1795962  21.9654734  60.5140000 202.9580000  23.0060000
  61.2244699 203.4880827  22.3716929  59.5106986 203.0624656  22.5929958
  60.5480000 203.5350000  24.3790000  61.4777061 203.4386881  24.7617144
  60.2999213 204.5132538  24.3392962  59.8894235 203.0442343  24.9668139
  58.6320000 197.4580000  23.1310000  57.5410000 197.8420000  22.7160000
  59.2860000 196.3870000  22.6280000  60.1932083 196.2085461  23.0344808
  58.8270000 195.5160000  21.5520000  58.6436543 196.0996672  20.6498824
  59.9020000 194.4540000  21.2420000  60.7754086 194.9742115  20.8487613
  60.1536847 193.9933394  22.1972731  59.4710000 193.3840000  20.2650000
  59.5710000 193.5850000  18.8910000  59.9825419 194.5265647  18.5274224
  59.1560000 192.6080000  17.9840000  59.2332241 192.7883627  16.9118024
  58.6440000 191.4060000  18.4500000  58.2270000 190.4410000  17.5650000
  58.3343142 190.7019953  16.6474136  58.5540000 191.1790000  19.8160000
  58.1504586 190.2378160  20.1893998  58.9820000 192.1600000  20.7130000
  58.9367080 191.9743531  21.7861188  57.5000000 194.8500000  21.9580000
  56.5390000 194.8870000  21.1770000  57.4510000 194.2390000  23.1720000
  58.2865168 194.2025186  23.7382862  56.2400000 193.5850000  23.6770000
  55.8906454 192.8571093  22.9447257  56.5080000 192.8550000  25.0080000
  57.3045148 192.1332432  24.8270844  56.8509524 193.6019425  25.7239334
  55.2770000 192.1280000  25.5760000  54.5590863 192.9209453  25.7856148
  54.8515785 191.4363131  24.8488907  55.5510000 191.3750000  26.8550000
  56.2850000 190.3820000  26.8840000  54.8980000 191.7780000  27.9260000
  55.0436515 191.3092156  28.8086824  54.2547938 192.5538530  27.8593716
  55.1400000 194.6190000  23.8580000  54.0060000 194.3940000  23.4270000
  55.4820000 195.7510000  24.4840000  56.4223041 195.8295583  24.8442168
  54.5470000 196.8270000  24.7600000  53.7108263 196.4527625  25.3506429
  55.2500000 197.9470000  25.5550000  56.0192182 197.4783196  26.1687926
  55.7192351 198.6149934  24.8327097  54.3040000 198.7470000  26.4480000
  53.9404978 199.5951587  25.8678330  53.4667287 198.0987379  26.7065250
  54.9750000 199.2570000  27.7370000  55.4176805 198.3999106  28.2444748
  55.7616377 199.9548836  27.4501917  53.9990000 199.9510000  28.6730000
  53.5816096 200.8129908  28.1525601  53.1995474 199.2500298  28.9130324
  54.6580000 200.4020000  29.9310000  55.3985427 201.0518745  29.7088303
  53.9776643 200.8564518  30.5232135  55.0444584 199.6033580  30.4136177
  53.9170000 197.3380000  23.4560000  52.6890000 197.4640000  23.3720000
  54.7490000 197.5320000  22.4170000  55.7376025 197.3961964  22.5729543
  54.3170000 198.0490000  21.1210000  53.5620384 198.8229572  21.2592834
  55.5170000 198.6600000  20.3740000  56.2017738 199.0269879  21.1385286
  55.9879767 197.8433167  19.8269082  55.1810000 199.7900000  19.4090000
  54.9174107 199.3508093  18.4468498  54.3245520 200.3350823  19.8058427
  56.3520000 200.7480000  19.2260000  57.2713744 200.1731298  19.1147618
  56.1882122 201.3472865  18.3303836  56.4970000 201.6480000  20.3730000
  55.8202653 201.5506208  21.1164022  57.4420000 202.5750000  20.4930000
  58.3540000 202.7300000  19.5410000  58.3293011 202.1402590  18.7214297
  59.0684125 203.4369602  19.6406076  57.4870000 203.3480000  21.5690000
  56.7999181 203.2312390  22.3000167  58.2081578 204.0501426  21.6528208
  53.5790000 197.0170000  20.2640000  52.4230000 197.2480000  19.9120000
  54.2330000 195.8830000  19.9370000  55.1988492 195.7938559  20.2185811
  53.6600000 194.8410000  19.0790000  53.4235143 195.2709766  18.1057098
  54.6340000 193.6640000  18.8740000  55.6301011 194.0799798  18.7228621
  54.6256339 193.0639474  19.7839269  54.2640000 192.7860000  17.6830000
  53.2367759 192.4454037  17.8130217  54.3347173 193.3879831  16.7770654
  55.1820000 191.5870000  17.5650000  56.2025984 191.9691749  17.5855013
  55.0079372 190.9697727  18.4463808  54.9800000 190.7500000  16.3130000
  55.3157540 189.7360934  16.5306307  53.9138042 190.7384101  16.0867448
  55.7300000 191.2800000  15.1410000  56.7180230 191.2904190  15.3502888
  55.5619657 190.6897304  14.3388489  55.4187295 192.2193445  14.9389068
  52.2940000 194.3400000  19.5450000  51.3720000 194.2480000  18.7290000
  52.1630000 194.0560000  20.8520000  52.9815281 194.1663058  21.4333292
  50.9640000 193.4830000  21.4490000  50.2896641 193.1263301  20.6704392
  51.3480000 192.2980000  22.3460000  51.8956452 192.5931066  23.2410397
  50.4385714 191.7708742  22.6344061  52.2140000 191.2990000  21.6200000
  51.6890000 190.5090000  20.6040000  50.6373484 190.6151756  20.3378129
  52.4910000 189.5880000  19.9270000  52.0595106 188.9545330  19.1519921
  53.8320000 189.4800000  20.2400000  54.4593709 188.7626218  19.7109687
  54.3770000 190.2800000  21.2220000  55.4374538 190.2035666  21.4621997
  53.5680000 191.1900000  21.9100000  53.9984883 191.8247029  22.6845528
  50.0960000 194.4850000  22.1870000  49.2880000 194.0860000  23.0250000
  50.1970000 195.7730000  21.8270000  50.8825947 196.0426977  21.1361148
  49.3940000 196.8230000  22.4540000  49.6053470 196.8454528  23.5230779
  49.7070000 198.2130000  21.8600000  50.7541769 198.4971418  21.9638428
  49.4390745 198.1946897  20.8036001  48.9020000 199.3080000  22.4870000
  49.2190000 199.8140000  23.7430000  48.2920000 200.7230000  24.0060000
  48.3617216 201.2520063  24.9564684  47.4070000 200.8230000  23.0100000
  46.6053657 201.4347641  22.9531938  47.7830000 199.9210000  22.0390000
  47.1935857 199.8244757  21.1272023  47.9110000 196.5240000  22.3280000
  47.1710000 196.6930000  23.2940000  47.4930000 196.0400000  21.1540000
  48.1652735 195.9923280  20.4017533  46.1070000 195.7210000  20.8600000
  45.4518959 196.4935320  21.2626562  45.9000000 195.6440000  19.3560000
  46.7318862 195.1269037  18.8777991  44.9688501 195.1287011  19.1203586
  45.7920000 197.2650000  18.5590000  45.6216165 196.8016405  17.3240240
  45.5590000 194.4670000  21.5750000  44.4170000 194.0750000  21.3250000
  46.3380000 193.8800000  22.5060000  47.2621572 194.2632761  22.6443191
  45.9170000 192.7640000  23.3510000  45.4906975 191.9149850  22.8166416
  47.0920000 192.2800000  24.1670000  47.5239797 193.1173506  24.7150306
  46.7567144 191.5192861  24.8719810  47.8445728 191.8535387  23.5037775
  44.8480000 193.3150000  24.2900000  44.0580000 192.5610000  24.8550000
  44.8360000 194.6570000  24.4440000  45.5740986 195.1684895  23.9817356
  43.9180000 195.3900000  25.2870000  43.8702267 194.9240557  26.2712321
  44.3790000 196.8390000  25.4540000  43.6987706 197.3093473  26.1640427
  45.3820361 196.8066210  25.8794059  44.4000000 197.5910000  24.2500000
  44.6982462 198.4843640  24.4358757  42.5000000 195.3010000  24.7420000
  41.5390000 195.5020000  25.4960000  42.3810000 194.9940000  23.4290000
  43.2466260 194.8497955  22.9290039  41.1280000 194.8330000  22.7020000
  40.4018779 195.5648118  23.0559737  41.3410000 195.0420000  21.2000000
  42.1488461 194.3678877  20.9152957  40.4071183 194.6968887  20.7563073
  41.6510000 196.4420000  20.7010000  42.5725516 196.7939005  21.1646912
  41.8160000 196.4270000  19.2090000  40.8946301 196.0756244  18.7445525
  42.0382524 197.4344998  18.8573626  42.6350946 195.7599675  18.9402025
  40.5540000 197.3770000  21.0050000  40.4015015 197.4207098  22.0833938
  40.8087758 198.3697737  20.6340674  39.6388628 197.0333363  20.5227985
  40.6150000 193.4400000  22.9050000  39.4380000 193.1820000  22.6510000
  41.5080000 192.5350000  23.3400000  42.4616373 192.8462634  23.4574320
  41.2120000 191.1220000  23.5440000  40.2281902 190.8536406  23.1590316
  42.2610000 190.2630000  22.8430000  41.8478900 189.2601178  22.7349829
  42.6530000 190.7950000  21.4840000  43.0666532 191.7977383  21.5912684
  43.4014174 190.1395074  21.0386913  41.7740820 190.8320368  20.8403914
  43.4030000 190.1820000  23.6790000  44.0742135 189.6441823  23.2525907
  41.0750000 190.7450000  25.0220000  41.0810000 191.6220000  25.8900000
  40.9710000 189.4290000  25.2950000  40.9213150 188.8149976  24.4946052
  40.8130000 188.8460000  26.6270000  40.5761173 189.6278212  27.3486241
  39.6780000 187.8220000  26.6260000  39.5797244 187.4127798  27.6314750
  38.7539344 188.3293361  26.3488488  39.9320000 186.7690000  25.7100000
  39.2040789 186.1434912  25.7316689  42.1260000 188.2460000  27.1660000
  42.1140000 187.5510000  28.1870000  43.2600000 188.5680000  26.5050000
  43.1622478 189.0801892  25.6400109  44.5890000 188.1090000  26.8900000
  44.5645176 187.7187104  27.9074349  45.0610000 187.0070000  25.9590000
  45.0242604 187.3710445  24.9322473  46.0779937 186.6955191  26.1973347
  44.2110000 185.7710000  26.0070000  43.5740000 185.1760000  24.9560000
  43.6881633 185.6490681  23.9806677  42.8960000 184.0560000  25.3830000
  42.3412350 183.4476218  24.7980117  43.0730000 183.9160000  26.7360000
  42.5770000 182.9510000  27.6220000  41.9450926 182.1554859  27.2270963
  42.9250000 183.0720000  28.9530000  42.5811680 182.3238156  29.6672126
  43.7110000 184.1350000  29.4100000  43.9474580 184.2405472  30.4687950
  44.2120000 185.0840000  28.5340000  44.8739281 185.8517724  28.9345964
  43.8800000 184.9940000  27.1690000  45.6350000 189.2360000  27.0060000
  45.5520000 190.2250000  26.2720000  46.6100000 189.1170000  27.9470000
  46.8500000 188.0060000  28.8870000  47.3376233 187.1838498  28.3631748
  45.8998533 187.6627278  29.2962487  47.7130000 188.6150000  29.9090000
  48.5791729 187.9624598  30.0187033  47.1440481 188.6221265  30.8387012
  48.1150000 189.9870000  29.5250000  49.1989218 190.0952480  29.5636641
  47.6527997 190.7293966  30.1756287  47.6290000 190.1730000  28.1010000
  47.1204804 191.1264729  27.9581869  48.8050000 190.0720000  27.1270000
  49.1040000 188.9650000  26.6200000  49.5250000 191.2060000  26.8930000
  49.2840000 192.5750000  27.3780000  49.6777533 192.6793561  28.3890234
  48.2130652 192.7779107  27.3829870  50.0160000 193.4140000  26.3900000
  50.3092456 194.3593634  26.8465019  49.3832721 193.6099543  25.5243450
  51.1980000 192.6080000  26.0090000  51.9975398 192.6572442  26.7481956
  51.5847071 192.9098017  25.0356178  50.6490000 191.1870000  25.9330000
  50.2188822 190.9999819  24.9490685  51.7190000 190.1480000  26.2230000
  52.3230000 189.6190000  25.2930000  51.9230000 189.8250000  27.5110000
  51.4562226 190.3611027  28.2285041  52.8960000 188.8280000  27.9200000
  53.8141250 188.9644795  27.3485816  53.2220000 188.9440000  29.3950000
  53.8360268 188.0555836  29.5426028  53.7815363 189.8271065  29.7034511
  52.0600000 188.8230000  30.3340000  51.4830000 189.8320000  31.0380000
  51.8331780 190.8422262  30.8260611  50.5410000 189.3290000  31.9020000
  49.9525568 189.8809091  32.5096434  50.5190000 187.9630000  31.7990000
  49.7390000 187.0150000  32.4740000  49.0090852 187.3607211  33.2059836
  49.9490000 185.6940000  32.1640000  49.3608163 184.9272491  32.6682152
  50.9040000 185.3030000  31.2120000  51.0542055 184.2504827  30.9716977
  51.6820000 186.2380000  30.5510000  52.4582320 185.8797553  29.8748156
  51.4700000 187.6030000  30.8200000  52.4880000 187.4260000  27.5480000
  53.3640000 186.5570000  27.4460000  51.1680000 187.1950000  27.3370000
  50.4805255 187.9071268  27.5378821  50.7000000 185.8860000  26.9080000
  51.2925665 185.1263624  27.4178183  49.2190000 185.6380000  27.2130000
  49.1407486 185.5899705  28.2991257  48.6300155 186.4774796  26.8435798
  48.6850000 184.3270000  26.6010000  48.9478685 184.3172449  25.5432166
  49.2550000 183.1100000  27.2690000  48.9921361 183.1188167  28.3267919
  48.8474499 182.2137369  26.8013291  50.3400005 183.1122707  27.1647447
  47.2330000 184.2550000  26.6730000  46.7996003 185.0917835  26.1252250
  46.8928811 183.3178191  26.2324181  46.9176422 184.3014041  27.7153508
  50.9900000 185.7150000  25.4120000  51.4990000 184.6760000  24.9970000
  50.6840000 186.7500000  24.6130000  50.1886861 187.5224366  25.0350250
  50.9100000 186.7780000  23.1740000  50.3950160 185.9425962  22.6996676
  50.3740000 188.0810000  22.5830000  50.7453555 188.9457987  23.1328342
  50.7567079 188.1080332  21.5627530  48.8630000 188.1130000  22.5550000
  48.1440000 187.2500000  21.7300000  48.6944033 186.5781606  21.0713745
  46.7540000 187.2340000  21.7350000  46.2124753 186.5611785  21.0700458
  46.0570000 188.1030000  22.5590000  44.6830000 188.0770000  22.5350000
  44.3307695 187.4287600  21.9207376  46.7470000 188.9490000  23.4150000
  46.2044089 189.6115898  24.0892923  48.1460000 188.9490000  23.4100000
  48.6934065 189.6099569  24.0819987  52.3600000 186.5440000  22.7930000
  52.6110000 185.8790000  21.7820000  53.3140000 187.0280000  23.6380000
  52.9924934 187.5530107  24.4386851  54.7590000 186.8430000  23.4620000
  55.0672451 187.2665441  22.5061263  55.5370000 187.5340000  24.5740000
  55.3449483 187.0033308  25.5065264  56.5990019 187.4758266  24.3355304
  55.1600000 188.8890000  24.7170000  55.6697944 189.2899944  25.4247520
  55.1140000 185.3580000  23.4790000  56.0550000 184.9630000  22.7930000
  54.3640000 184.5310000  24.2590000  53.6549585 184.9468587  24.8458739
  54.5930000 183.0870000  24.3630000  55.6555755 182.9067095  24.5258734
  53.8040000 182.4590000  25.5250000  52.7667836 182.5854434  25.2146882
  54.0440498 181.3964810  25.5641074  54.0000000 183.0760000  26.9080000
  53.8897108 184.1574641  26.8281724  52.9890000 182.5400000  27.8840000
  53.0989868 181.4585719  27.9647152  53.1499787 182.9950098  28.8613191
  51.9842814 182.7774058  27.5343152  55.4060000 182.8440000  27.4250000
  56.1243769 183.2956969  26.7408918  55.5102781 183.2963066  28.4112282
  55.5957611 181.7729407  27.4951546  54.2660000 182.4060000  23.0430000
  54.6310000 181.2380000  22.8520000  53.6350000 183.1520000  22.1030000
  53.2906156 184.0659348  22.3603361  53.3150000 182.6420000  20.7780000
  53.7835086 181.6672971  20.6417898  51.8110000 182.4890000  20.5940000
  51.3372785 183.4657334  20.6923823  51.6710140 182.1185049  19.5785014
  51.1830000 181.5240000  21.5730000  50.7580000 181.9520000  22.8260000
  50.9101433 182.9961837  23.0991891  50.1490000 181.0780000  23.7250000
  49.8224300 181.4356744  24.7014850  49.9550000 179.7550000  23.3730000
  49.3580000 178.9210000  24.2860000  49.1294429 179.3647326  25.1060382
  50.3660000 179.3040000  22.1260000  50.2167076 178.2621562  21.8424972
  50.9730000 180.1910000  21.2330000  51.2912206 179.8426040  20.2504238
  53.9390000 183.4790000  19.6720000  53.6360000 183.2500000  18.5020000
  54.8390000 184.4180000  20.0240000  55.0382797 184.5793623  21.0009080
  55.5080000 185.2600000  19.0310000  54.8277421 185.4307071  18.1966096
  55.9280000 186.6230000  19.6100000  55.0696863 187.0950769  20.0880588
  56.6722917 186.3729131  20.3660334  56.5380000 187.5860000  18.5950000
  55.9150000 187.8080000  17.5280000  57.5980000 188.1640000  18.8940000
  56.7020000 184.5430000  18.4950000  57.5450000 184.1290000  19.2830000
  56.8060000 184.4000000  17.1660000  56.0646292 184.6886609  16.5437914
  57.9620000 183.7210000  16.5950000  58.0209856 182.7368635  17.0598604
  57.8050000 183.5410000  15.0980000  57.7536568 184.5180063  14.6174560
  58.6591068 182.9885006  14.7064055  56.8891883 182.9868850  14.8922216
  59.2620000 184.4540000  16.9340000  60.1470000 183.8170000  17.4920000
  59.3440000 185.7920000  16.7060000  58.5931684 186.2604711  16.2192905
  60.5640000 186.5620000  17.0170000  61.3905836 186.1244164  16.4571970
  60.4680000 188.0650000  16.6630000  59.7482933 188.4926260  17.3610383
  61.4554284 188.4832577  16.8583091  60.0490000 188.3970000  15.2340000
  58.9931298 188.1279883  15.2044771  60.1504778 189.4785813  15.1446511
  60.7770000 187.7220000  14.0790000  61.9700000 187.3620000  14.2270000
  60.1470000 187.5740000  13.0060000  61.0220000 186.3940000  18.4530000
  62.2160000 186.1980000  18.6850000  60.0750000 186.4280000  19.4030000
  59.1433725 186.6746041  19.1007486  60.3240000 186.2870000  20.8370000
  61.1268068 186.9405045  21.1783683  59.0440000 186.6350000  21.6130000
  58.2305767 186.0480493  21.1864656  59.1490000 186.3470000  23.1090000
  59.9619691 186.9339846  23.5363523  58.2122476 186.6148500  23.5977233
  59.3478389 185.2863039  23.2622563  58.7580000 188.0180000  21.4050000
  57.9599175 188.2551200  21.8829527  60.9140000 184.9040000  21.1660000
  62.0160000 184.8180000  21.7240000  60.1760000 183.8390000  20.8050000
  59.2881185 184.0403394  20.3677036  60.5380000 182.4410000  21.0260000
  60.5989448 182.2373277  22.0950662  59.4750000 181.5110000  20.4070000
  59.4451470 181.8496731  19.3713801  59.8762860 180.4983110  20.4461240
  58.0680000 181.5210000  20.9840000  57.7278760 182.5526030  21.0746185
  57.1320000 180.7630000  20.0900000  57.4712365 179.7311162  19.9992628
  56.1288995 180.7790011  20.5161854  57.1147214 181.2272730  19.1039714
  58.0210000 180.9520000  22.3910000  58.6590912 181.5460747  23.0452280
  56.9960166 180.9800327  22.7607626  58.3741060 179.9208561  22.3784588
  61.9140000 182.1230000  20.4250000  62.6390000 181.3050000  20.9790000
  62.2600000 182.7630000  19.2920000  61.5697405 183.3499455  18.8457533
  63.5470000 182.5960000  18.6400000  63.7694733 181.5330449  18.5465590
  63.5500000 183.2160000  17.2540000  62.9128937 184.1002262  17.2724064
  64.5713675 183.5097136  17.0118413  63.0530000 182.2720000  16.2300000
  63.6364781 181.3540373  16.3007019  62.0069451 182.0545359  16.4458254
  63.1870000 182.9270000  14.5730000  64.9580000 183.2290000  14.4740000
  65.4955400 182.2917857  14.6181494  65.2027188 183.6407265  13.4948705
  65.2501295 183.9376998  15.2489234  64.6280000 183.1870000  19.5060000
  65.6100000 182.5060000  19.7820000  64.4200000 184.4060000  20.0170000
  63.6324451 184.9676744  19.7265204  65.4040000 185.0050000  20.9040000
  66.3816649 184.9654863  20.4236781  65.0800000 186.4620000  21.2330000
  64.3930943 186.8389964  20.4752840  64.5958082 186.4925740  22.2090756
  66.3290000 187.3280000  21.2600000  66.0550911 188.2688226  21.7374175
  67.0437278 186.7967860  21.8885500  66.9590000 187.6120000  19.9050000
  66.2170000 187.7050000  18.8970000  68.2030000 187.7580000  19.8570000
  65.6080000 184.1850000  22.1730000  66.7400000 184.1140000  22.6470000
  64.5370000 183.5430000  22.6970000  63.6360101 183.6974979  22.2675272
  64.6000000 182.7040000  23.8970000  65.0927226 183.2515490  24.7004387
  63.1980000 182.3110000  24.3620000  62.6180777 182.0785304  23.4688330
  63.3027656 181.4127734  24.9705337  62.4860000 183.3810000  25.1610000
  62.9904462 183.4874869  26.1213621  62.5487389 184.3205975  24.6120716
  61.0290000 183.0270000  25.3920000  60.5063697 183.9304262  25.7062892
  60.6116417 182.6761642  24.4481643  60.8280000 181.9910000  26.4080000
  61.6066176 181.7741989  27.0136825  59.6910000 181.3200000  26.5710000
  58.6470000 181.5650000  25.7890000  58.7157305 182.2657372  25.0648843
  57.7885979 181.0495802  25.9216196  59.5870000 180.4050000  27.5230000
  60.3745888 180.2170072  28.1267074  58.7205881 179.8994873  27.6408395
  65.4660000 181.4580000  23.6600000  66.1520000 180.9970000  24.5830000
  65.4350000 180.9300000  22.4100000  64.7471994 181.3243806  21.7843055
  66.2210000 179.7820000  21.9450000  66.3396163 179.0385795  22.7332609
  65.6000000 179.0890000  20.6970000  65.4632636 179.8410708  19.9199595
  66.4910000 177.9690000  20.1690000  66.6278262 177.2162658  20.9453831
  66.0220819 177.5109286  19.2981459  67.4606497 178.3783901  19.8856614
  64.2160000 178.5520000  21.0030000  63.5657504 179.3729959  21.3050651
  63.8065669 178.0733150  20.1134356  64.2790012 177.8229721  21.8108676
  67.6640000 180.2680000  21.7160000  68.5560000 179.7070000  22.3390000
  67.8840000 181.3370000  20.8820000  67.0642311 181.7010485  20.4177296
  69.1950000 181.9670000  20.5910000  69.7850087 181.2916827  19.9713747
  69.0380000 183.3030000  19.8490000  68.3007815 183.8844465  20.4026498
  70.0050436 183.8036618  19.8965874  68.6020000 183.1820000  18.4000000
  69.3737139 182.6463514  17.8471536  67.6704414 182.6173203  18.3620872
  68.3880000 184.5630000  17.7700000  67.6058900 185.0715030  18.3337619
  69.3203400 185.1205999  17.8590159  67.9880000 184.4810000  16.3170000
  68.7264096 183.8721938  15.7952656  67.0130285 183.9969858  16.2599040
  67.9130000 185.8230000  15.6800000  68.8164413 186.2714930  15.7324174
  67.6431142 185.7215753  14.7120255  67.2285203 186.3871485  16.1630353
  69.9890000 182.2210000  21.8720000  71.2220000 182.2160000  21.8400000
  69.2730000 182.4310000  22.9980000  68.2739102 182.5141693  22.8755182
  69.8260000 182.6410000  24.3310000  70.5341067 183.4695315  24.3161809
  68.6970000 182.9770000  25.3200000  68.0568692 183.7065821  24.8239741
  68.1393510 182.0541361  25.4795298  69.1540000 183.5330000  26.6640000
  69.1347978 182.7146048  27.3836953  70.1780080 183.8867339  26.5440749
  68.2770000 184.6760000  27.1700000  68.7272057 185.0782118  28.0775458
  68.2485758 185.4515617  26.4046272  66.9020000 184.2620000  27.4710000
  66.6742564 183.2897094  27.3197280  65.9490000 185.0750000  27.9240000
  66.2070000 186.3600000  28.1370000  67.1315398 186.7233122  27.9544336
  65.4775174 186.9681874  28.4806027  64.7310000 184.6100000  28.1680000
  64.5252238 183.6339937  28.0093557  64.0149162 185.2340643  28.5113170
  70.6550000 181.4030000  24.7600000  71.7520000 181.5840000  25.2920000
  70.1740000 180.1620000  24.4630000  69.2230633 180.0974924  24.1288481
  70.9010000 178.9090000  24.7530000  71.5762754 179.0838200  25.5905800
  69.9600000 177.7420000  25.1140000  69.2447438 178.1193282  25.8448428
  69.4328122 177.4596977  24.2026941  70.6840000 176.5070000  25.6930000
  69.9666603 175.7040769  25.8628211  71.3806428 176.2112383  24.9085793
  71.4710000 176.7400000  26.9830000  71.0270000 177.4510000  27.8930000
  72.6290000 176.0870000  27.1260000  73.1772929 176.2151449  27.9644839
  72.9501324 175.4685815  26.3948818  71.8860000 178.5250000  23.6310000
  72.9190000 177.9340000  23.9210000  71.5980000 178.9080000  22.3750000
  70.6899825 179.3164674  22.2054186  72.4740000 178.6430000  21.2160000
  72.7780268 177.5965445  21.2404504  71.7730000 178.9260000  19.8540000
  71.6150887 180.0043655  19.8710616  72.5082470 178.6790548  19.0881476
  70.4360000 178.2140000  19.5340000  69.6742855 178.5598868  20.2327519
  70.0030000 178.5160000  18.1360000  70.7640511 178.1699624  17.4366017
  69.0615693 178.0072203  17.9287510  69.8670958 179.5914140  18.0214789
  70.5320000 176.7050000  19.6990000  70.8025696 176.4679708  20.7279357
  69.5693904 176.2512324  19.4632480  71.2929340 176.3128772  19.0242274
  73.8200000 179.3850000  21.2990000  74.7960000 178.9470000  20.6790000
  73.8590000 180.5150000  22.0540000  72.9723774 180.8870291  22.3631830
  75.0710000 181.3000000  22.3130000  75.7799521 181.1323451  21.5022115
  74.7830000 182.7980000  22.4080000  73.8016933 183.0028234  22.8359998
  75.5531630 183.2479580  23.0344876  74.8330000 183.5120000  21.0850000
  76.0340000 183.9630000  20.5490000  75.7160000 184.5670000  19.4110000
  76.5315101 184.9918440  18.8257225  74.3990000 184.5390000  19.1880000
  73.8933492 184.9211203  18.4016151  73.8230000 183.8750000  20.2530000
  72.7421922 183.7387029  20.2901337  75.8270000 180.7500000  23.5450000
  77.0360000 180.9700000  23.6590000  75.1290000 179.9690000  24.4150000
  74.1304961 179.9102272  24.2748746  75.7140000 179.2630000  25.5630000
  76.4276332 179.9157074  26.0657921  74.6330000 178.8520000  26.5690000
  73.8604316 178.3194413  26.0143663  75.0980409 178.1743249  27.2849563
  74.0100000 180.0180000  27.3090000  74.6400835 180.8960400  27.1670794
  73.0410133 180.1870342  26.8393284  73.8160000 179.7700000  28.7920000
  74.8260000 179.8040000  29.5320000  72.6560000 179.5740000  29.2220000
  76.5130000 178.0120000  25.0900000  77.3440000 177.4920000  25.8360000
  76.2400000 177.5300000  23.8600000  75.5015422 177.9881423  23.3453302
  76.9050000 176.3770000  23.2440000  77.4543747 175.8296320  24.0099471
  75.8960000 175.4210000  22.5850000  75.3635705 176.0606796  21.8811335
  76.3514188 174.5896837  22.0468485  74.8570000 174.8260000  23.4970000
  74.9920000 174.5170000  24.8240000  75.9441868 174.7652271  25.2928533
  73.8370000 173.9320000  25.2950000  73.6714339 173.6419390  26.2481799
  72.9480000 173.8010000  24.2550000  71.6560000 173.2510000  24.2220000
  71.2370750 172.8498752  25.1448756  70.9920000 173.2540000  23.0080000
  69.9889799 172.8318891  22.9457674  71.5780000 173.7880000  21.8510000
  71.0426375 173.7907223  20.9015375  72.8570000 174.3290000  21.8800000
  73.2585396 174.7455666  20.9562365  73.5660000 174.3410000  23.1010000
  77.9170000 176.8360000  22.2010000  78.9710000 176.2110000  22.0520000
  77.5800000 177.9100000  21.4550000  76.6414560 178.2742963  21.5357634
  78.4630000 178.4930000  20.4550000  79.3977770 177.9326868  20.4365546
  77.8460000 178.4610000  19.0550000  77.1875584 177.5957371  18.9783576
  77.2559643 179.3740646  18.9758109  78.8700000 178.4200000  17.9300000
  80.0490000 178.7820000  18.1780000  78.5060000 177.9870000  16.8120000
  78.8530000 179.8950000  20.8990000  78.1520000 180.8770000  20.6380000
  79.9620000 179.9480000  21.6410000  80.3771420 179.0465364  21.8284029
  80.5720000 181.1300000  22.2440000  79.8223790 181.6877042  22.8053676
  81.7060000 180.7180000  23.2090000  82.4791931 180.2529785  22.5974228
  82.0927062 181.6397495  23.6436679  81.2960000 179.7580000  24.3300000
  82.0498813 179.8593555  25.1106989  80.3503052 180.1690303  24.6832910
  81.1130000 178.2830000  23.9890000  81.8440000 177.7690000  23.1100000
  80.2570000 177.6310000  24.6320000  81.0880000 182.0870000  21.1660000
  80.9990000 183.3040000  21.3410000  81.6060000 181.5270000  20.0460000
  81.6883420 180.5204494  20.0592270  82.1250000 182.2530000  18.8790000
  82.3308581 183.2882715  19.1509090  83.4390000 181.6030000  18.3720000
  83.3161524 180.5228635  18.2925465  83.5566187 182.0290421  17.3756296
  84.6970000 181.8910000  19.1750000  85.2900000 180.9950000  19.7980000
  85.1890000 183.1260000  19.1050000  86.0235838 183.3638631  19.6217115
  84.7254352 183.8194538  18.5355000  81.0700000 182.3450000  17.7320000
  81.4530000 182.4910000  16.5670000  79.7510000 182.2790000  18.0610000
  79.5025755 182.1013556  19.0237186  78.6740000 182.3580000  17.0680000
  78.9765243 181.8174176  16.1711450  77.3550000 181.7440000  17.5940000
  77.6694367 180.8062794  18.0521582  76.9670264 182.4115495  18.3633856
  76.2520000 181.4630000  16.5540000  76.7168722 181.3483310  15.5747933
  75.5020000 180.2320000  16.8910000  75.0364312 180.3460991  17.8699412
  74.7307921 180.0588387  16.1404307  76.1857569 179.3833705  16.9111195
  75.2790000 182.6130000  16.4240000  75.8149833 183.5097136  16.1129920
  74.5217027 182.3665149  15.6797909  74.7978792 182.7929883  17.3853667
  78.4260000 183.7850000  16.5810000  78.2680000 184.7100000  17.3860000
  78.3410000 183.9270000  15.2470000  78.5392646 183.0926529  14.7134690
  78.0030000 185.1480000  14.5220000  78.0712766 186.0049631  15.1921133
  78.9700000 185.3650000  13.3470000  79.3877956 184.5018855  12.8287534
  78.7710975 186.1590588  12.6272720  79.9790000 185.8690000  14.4040000
  79.3300853 186.3644106  15.1262042  80.3523415 184.9379810  14.8305229
  81.1530000 186.7800000  14.0680000  81.5883626 187.1305348  15.0037798
  81.8914571 186.1932786  13.5216131  80.7270000 187.9880000  13.2170000
  81.6600448 188.5037567  12.9900133  80.3235643 187.5494027  12.3043274
  79.7500000 188.9560000  13.7740000  80.1238234 189.3628477  14.6194767
  79.5760026 189.6856232  13.0976311  78.8852042 188.4783737  13.9840009
  76.5620000 184.9410000  14.0270000  76.2640000 183.9060000  13.4170000
  75.6620000 185.8970000  14.3320000  75.9724440 186.6657079  14.9088987
  74.2370000 185.8130000  13.9930000  73.8241458 184.8802133  14.3771349
  73.4600000 186.9810000  14.6060000  74.1767737 187.6398203  15.0961943
  72.9635737 187.5208181  13.7996146  72.4260000 186.5180000  15.6160000
  72.8180000 185.8640000  16.6150000  71.2230000 186.8050000  15.4080000
  73.9270000 185.6850000  12.4930000  72.8180000 185.2710000  12.1380000
  74.9180000 185.9930000  11.6310000  75.7651898 186.3411698  12.0566131
  74.8560000 185.9150000  10.1640000  74.0049649 186.4950145   9.8070384
  76.1500000 186.4780000   9.5110000  76.7482167 185.6066275   9.2446431
  75.8244207 186.9858359   8.6031449  76.9920000 187.4350000  10.3560000
  77.2627955 186.8482220  11.2337597  77.8889233 187.6591918   9.7786216
  76.3370000 188.7320000  10.7970000  76.1980000 189.6470000   9.9530000
  75.9930000 188.8440000  11.9970000  74.6300000 184.4600000   9.6990000
  73.9000000 184.2330000   8.7290000  75.2600000 183.4870000  10.4080000
  75.8588058 183.8064409  11.1559896  75.1850000 182.0440000  10.1440000
  75.4132927 181.8469011   9.0965585  76.1910000 181.2910000  11.0130000
  76.1566178 180.2368468  10.7379034  77.1846508 181.6879677  10.8052148
  75.9070000 181.4280000  12.3970000  76.5592578 180.9422543  12.9071086
  73.7770000 181.4920000  10.3810000  73.2840000 180.7000000   9.5690000
  73.1400000 181.9210000  11.5020000  73.6781430 182.5234423  12.1082711
  71.8010000 181.5210000  11.9330000  71.7379198 180.4333794  11.9676632
  71.4870000 182.0740000  13.3260000  71.8488306 183.1017551  13.2960441
  70.4020219 182.0742348  13.4305107  72.1090000 181.3530000  14.5090000
  73.1948117 181.4224374  14.4434851  71.6420000 181.9850000  15.7960000
  70.5562482 181.9155297  15.8624508  72.0913208 181.4637805  16.6413058
  71.9403837 183.0331761  15.8158623  71.7560000 179.8690000  14.5100000
  72.1233727 179.4069928  13.5936561  72.2183116 179.3856073  15.3706397
  70.6737159 179.7524794  14.5664190  70.6960000 181.9210000  10.9630000
  70.7480000 183.0110000  10.3830000  69.6770000 181.0560000  10.7730000
  69.4390000 179.7340000  11.3850000  68.9399536 179.8607035  12.3457284
  70.3906921 179.2242009  11.5349536  68.5830000 179.0510000  10.3840000
  67.8630164 178.4312705  10.9184699  69.2199733 178.4171033   9.7671196
  67.8970000 180.0930000   9.5510000  66.8531661 180.1402421   9.8612870
  67.9487674 179.8848646   8.4823095  68.5930000 181.4240000   9.8590000
  69.0281009 181.8579088   8.9587175  67.6500000 182.4310000  10.5020000
  67.3060000 182.3190000  11.6890000  67.2730000 183.4450000   9.7180000
  67.6925497 183.5166969   8.8020650  66.3440000 184.4930000  10.1390000
  66.5476759 184.8389436  11.1523797  66.4150000 185.7050000   9.1790000
  65.6316581 186.4053659   9.4687642  67.7740000 186.4150000   9.2150000
  68.5578432 185.7153417   8.9248834  67.7635939 187.2560455   8.5217228
  67.9677700 186.7789214  10.2240169  66.1200000 185.2800000   7.8430000
  66.1648379 186.0337613   7.2501815  64.9390000 183.8840000  10.2060000
  64.1980000 184.1590000  11.1490000  64.6110000 183.0140000   9.2200000
  65.3114290 182.8827821   8.5042623  63.3330000 182.3250000   9.0720000
  62.5183564 183.0491926   9.0717172  63.2990000 181.5520000   7.7560000
  63.7113727 182.1431286   6.9383112  63.9420094 180.6917470   7.9420207
  61.9320000 181.0540000   7.3500000  60.9190000 181.7500000   7.4730000
  61.8900000 179.8670000   6.7630000  61.0029970 179.4831397   6.4697823
  62.7451794 179.3514452   6.6114340  63.0470000 181.3930000  10.2550000
  63.8970000 180.5540000  10.5760000  61.8610000 181.5300000  10.9160000
  60.7590000 182.4820000  10.6540000  60.5137723 182.4640624   9.5920952
  61.0768315 183.4857551  10.9360602  59.6420000 181.9760000  11.5100000
  59.0189336 181.2954577  10.9296988  59.0386424 182.8159767  11.8542386
  60.2860000 181.2790000  12.6570000  59.6413417 180.5003887  13.0647734
  60.5565391 181.9775834  13.4487635  61.5470000 180.6510000  12.0620000
  62.3777509 180.7265127  12.7636046  61.3340000 179.1850000  11.6810000
  61.5620000 178.3170000  12.5220000  60.9080000 178.9140000  10.4220000
  60.6445045 179.6914637   9.8335956  60.7090000 177.5580000   9.9100000
  60.0972162 176.9900377  10.6108842  60.0600000 177.5060000   8.4940000
  60.6455543 178.1216820   7.8112392  60.0240000 176.0800000   7.9830000
  59.4381922 175.4637658   8.6650449  59.5680701 176.0596040   6.9931451
  61.0398030 175.6893514   7.9226913  58.6330000 178.1020000   8.4580000
  58.0716553 177.4898587   7.7521134  58.2269159 177.9647700   9.4601792
  58.5200000 179.5560000   8.0640000  58.9254892 179.6939387   7.0616770
  57.4721124 179.8558156   8.0758921  59.0807520 180.1688500   8.7697420
  62.0600000 176.8330000   9.9490000  62.1710000 175.8330000  10.6490000
  63.0950000 177.3790000   9.2600000  62.8932382 178.2180272   8.7351907
  64.4570000 176.8270000   9.1960000  64.4201204 175.8131683   8.7973969
  65.3630000 177.6840000   8.2830000  65.5997152 178.5473673   8.9048216
  66.2694197 177.1051677   8.1056402  64.7940000 178.1590000   6.9490000
  63.8910000 177.4800000   6.4020000  65.2830000 179.1850000   6.4300000
  65.0680000 176.7540000  10.6060000  65.5970000 175.7100000  11.0160000
  64.9570000 177.8580000  11.3510000  64.5600579 178.6848239  10.9280360
  65.4720000 177.9570000  12.7050000  66.5399210 177.7388024  12.7108094
  65.2580000 179.3690000  13.2580000  65.7292032 180.0581041  12.5571417
  64.1998101 179.6132985  13.3510179  65.8810000 179.6310000  14.6050000
  65.2050000 179.3110000  15.7760000  64.2161930 178.8571087  15.7100960
  65.7750000 179.5630000  17.0240000  65.2448536 179.2736921  17.9313844
  67.0050000 180.1760000  17.1110000  67.4445709 180.3859228  18.0860947
  67.6800000 180.5240000  15.9620000  68.6548840 181.0068980  16.0291637
  67.1150000 180.2580000  14.7080000  67.6451909 180.5440317  13.7996039
  64.8710000 176.9010000  13.6340000  65.6180000 176.3080000  14.4040000
  63.5380000 176.6640000  13.5880000  62.9301640 177.2127043  12.9967654
  62.9290000 175.6690000  14.4800000  63.2014399 175.9019670  15.5093697
  61.4060000 175.6530000  14.3700000  61.0285458 174.9132416  15.0759639
  61.0411432 176.6411615  14.6502076  60.9530000 175.3350000  13.0660000
  59.9931224 175.3383125  13.0510358  63.5220000 174.2950000  14.2090000
  63.9270000 173.6250000  15.1540000  63.6900000 173.9440000  12.9130000
  63.3332777 174.5836892  12.2175532  64.2460000 172.6620000  12.4600000
  63.7561924 171.8461635  12.9915999  64.0340000 172.4670000  10.9730000
  64.2851590 173.4585435  10.5963571  64.7146050 171.7323235  10.5427358
  62.6190000 172.1270000  10.5860000  61.9660000 171.0270000  11.1440000
  62.4779400 170.4475411  11.9122736  60.6820000 170.6640000  10.7360000
  60.1707849 169.8243043  11.2068207  60.0630000 171.3680000   9.7150000
  58.8050000 171.0390000   9.2890000  58.4297074 170.2955773   9.7665750
  60.7110000 172.4340000   9.1180000  60.2289737 172.9851171   8.3105217
  61.9830000 172.8030000   9.5510000  62.4997204 173.6370375   9.0761510
  65.7070000 172.4410000  12.8010000  66.0470000 171.3690000  13.3170000
  66.5720000 173.4540000  12.5110000  66.2011666 174.2564847  12.0225327
  68.0090000 173.4280000  12.8180000  68.4969405 172.6635833  12.2132848
  68.6670000 174.7940000  12.5130000  68.5708683 174.9378241  11.4368157
  68.0645434 175.5382847  13.0337556  70.1550000 174.9530000  12.9250000
  70.3827225 176.0152966  12.8368573  70.2138317 174.6549711  13.9718141
  71.1700000 174.1420000  12.1040000  72.1681802 174.3664073  12.4800009
  70.9568351 173.0830803  12.2501135  71.1320000 174.4360000  10.6630000
  70.3907821 173.9963529  10.1363068  71.9860000 175.2290000  10.0180000
  72.9760000 175.8270000  10.6750000  73.0805674 175.6787857  11.6685785
  73.6185907 176.4265300  10.1772646  71.8600000 175.4260000   8.7110000
  71.1131394 174.9721903   8.2046838  72.5115949 176.0287554   8.2291196
  68.1860000 173.0520000  14.2740000  68.8930000 172.0970000  14.5840000
  67.4650000 173.7500000  15.1450000  66.9378735 174.5286865  14.7763752
  67.4770000 173.5460000  16.5810000  68.4754383 173.5312716  17.0180392
  66.6570000 174.6670000  17.2600000  65.6727129 174.7030729  16.7931201
  66.5000000 174.4240000  18.7610000  67.4839217 174.3882612  19.2286769
  65.9179898 175.2334077  19.2017083  65.9859792 173.4768085  18.9244396
  67.2800000 176.0370000  16.9900000  67.3029559 176.2209595  15.9158799
  66.6855647 176.8095357  17.4777858  68.2962331 176.0585269  17.3835831
  66.9990000 172.1410000  16.9760000  67.5110000 171.6000000  17.9440000
  66.0310000 171.5580000  16.2460000  65.6436695 172.0502675  15.4536950
  65.4840000 170.2370000  16.5800000  65.1888312 170.2083588  17.6288824
  64.2600000 169.9470000  15.7220000  64.5415799 169.9632072  14.6691229
  63.8620529 168.9645580  15.9760592  63.4989077 170.7053399  15.9057347
  66.5360000 169.1600000  16.3700000  66.7070000 168.2550000  17.2060000
  67.2720000 169.3060000  15.2510000  67.0084844 170.0735154  14.6496857
  68.3190000 168.4060000  14.8000000  67.8728867 167.4114841  14.8045008
  68.7100000 168.7560000  13.3750000  69.1665361 169.7455949  13.3555872
  69.4226006 168.0203084  13.0020945  67.8219182 168.7536810  12.7430154
  69.5620000 168.3540000  15.7080000  70.3410000 167.4060000  15.5950000
  69.7490000 169.3450000  16.6050000  69.1371599 170.1484071  16.5880299
  70.8990000 169.3690000  17.5060000  71.5295440 168.4992664  17.3214005
  71.7280000 170.6270000  17.2840000  72.6750072 170.5606320  17.8196042
  71.9216428 170.7750875  16.2216100  70.9290000 172.1420000  17.8640000
  71.9137453 172.9628484  17.5099055  70.5130000 169.1770000  18.9920000
  71.3410000 169.3840000  19.8850000  69.2680000 168.7350000  19.2540000
  68.5902266 168.6627737  18.5086773  68.8290000 168.4510000  20.6210000
  69.4798784 168.9835977  21.3143947  67.3730000 168.8840000  20.8810000
  66.8896964 168.3968793  20.0341055  66.9837879 168.4670965  21.8098732
  67.0870000 170.3800000  20.8370000  67.6336041 170.8138768  19.9996973
  65.6150000 170.6500000  20.6690000  65.0677438 170.2167933  21.5062225
  65.4433005 171.7260326  20.6411826  65.2670177 170.2028748  19.7378245
  67.7130000 171.1250000  22.0230000  68.7941310 170.9868692  22.0097676
  67.4820545 172.1876138  21.9480515  67.3082264 170.7305988  22.9550434
  69.0230000 166.9650000  20.9650000  68.3880000 166.0940000  20.3420000
  69.9130000 166.6690000  21.9460000  70.7520000 167.6020000  22.7280000
  70.1214662 168.3894248  23.1409039  71.5017868 168.0441790  22.0719540
  71.3690000 166.7240000  23.8040000  70.7570166 166.7590685  24.7053022
  72.3750280 167.0744213  24.0346816  71.4040000 165.3430000  23.2190000
  71.3640454 164.5854106  24.0016627  72.2904170 165.1838955  22.6049558
  70.1430000 165.2610000  22.3490000  70.3366318 164.6894992  21.4412600
  68.9620000 164.6370000  23.1030000  69.0270000 164.4500000  24.3200000
  67.8820000 164.3040000  22.3730000  67.8605890 164.5779604  21.4011016
  66.6690000 163.7260000  22.9590000  66.8301245 163.4284882  23.9951587
  65.4370000 164.6700000  22.8770000  64.5252996 164.0878435  23.0111513
  65.5280000 165.7240000  23.9640000  66.4392788 166.3069040  23.8302297
  64.6628434 166.3842977  23.9039027  65.5473655 165.2392868  24.9401031
  65.2730000 165.3030000  21.4760000  65.8715886 166.2139246  21.4730317
  65.6896608 164.5927374  20.7618430  63.8630000 165.6310000  21.0890000
  63.4457950 166.3416199  21.8024839  63.8522413 166.0698736  20.0913160
  63.2638665 164.7204323  21.0912974  66.3700000 162.3350000  22.4080000
  66.8840000 161.9680000  21.3480000  65.5460000 161.5590000  23.1480000
  65.2666535 161.9078723  24.0537334  65.1490000 160.2000000  22.7750000
  66.0286510 159.6443798  22.4500392  64.5070000 159.4560000  23.9560000
  64.1121573 158.5041222  23.6008563  65.3084571 159.2720630  24.6714954
  63.4100000 160.2350000  24.6230000  63.7230000 161.0100000  25.5630000
  62.2350000 160.0990000  24.1870000  64.2590000 160.1740000  21.5400000
  63.7530000 161.2170000  21.1270000  64.0920000 158.9910000  20.9360000
  64.6008963 158.1907084  21.2833573  63.3180000 158.8390000  19.7090000
  63.6557949 159.5749637  18.9793759  63.4800000 157.4390000  19.1040000
  63.3268000 156.7121299  19.9016772  62.7016227 157.3200013  18.3502970
  64.8400000 157.2120000  18.4670000  65.1560000 157.9070000  17.4540000
  65.5950000 156.3490000  18.9760000  61.8670000 159.1990000  19.8680000
  61.3230000 159.8520000  18.9780000  61.2500000 158.8240000  21.0040000
  61.7699919 158.2799120  21.6775547  59.8390000 159.1220000  21.2890000
  59.2192820 158.6409719  20.5322565  59.4500000 158.5760000  22.6550000
  60.0557761 159.0549418  23.4242530  58.3961913 158.7819583  22.8425331
  59.6189839 157.4994270  22.6781155  59.5610000 160.6260000  21.2270000
  58.5560000 161.0460000  20.6480000  60.4850000 161.4190000  21.7880000
  61.2543373 160.9690702  22.2631659  60.3970000 162.8640000  21.8390000
  59.3804730 163.1810865  22.0718694  61.3290000 163.3690000  22.9370000
  61.4330015 162.5228450  23.6161941  62.2905423 163.5782902  22.4682421
  60.8670000 164.5960000  23.7200000  60.7875997 165.4320311  23.0251271
  59.5160000 164.3700000  24.4020000  59.5947407 163.5343584  25.0974149
  59.2283577 165.2693367  24.9465697  58.7611580 164.1450855  23.6485231
  61.8900000 164.9660000  24.7670000  62.8407573 165.1903592  24.2834477
  61.5470516 165.8422758  25.3171167  62.0217738 164.1328578  25.4573685
  60.6920000 163.5180000  20.4810000  60.0170000 164.4800000  20.1200000
  61.6640000 162.9760000  19.7200000  62.1907952 162.2111521  20.1169810
  62.0310000 163.4530000  18.3780000  62.2504172 164.5196419  18.4252273
  63.2720000 162.7180000  17.8280000  63.2539336 161.7172458  18.2595830
  63.1367533 162.6500931  16.7485571  64.6110000 163.3770000  18.1310000
  64.6613235 164.3063203  17.5636093  64.6387425 163.6010198  19.1973712
  65.8040000 162.4910000  17.7650000  66.6346532 162.7635183  18.4160360
  65.5208167 161.4552498  17.9524251  66.2410000 162.6140000  16.3680000
  65.9523267 161.8823323  15.7344154  67.0130000 163.5950000  15.8980000
  67.3980000 164.5900000  16.6930000  67.1039208 164.6030404  17.6591508
  67.9825636 165.3276978  16.3266846  67.3740000 163.6090000  14.6210000
  67.0623531 162.8732787  14.0031890  67.9587235 164.3553097  14.2728348
  60.8690000 163.2750000  17.4100000  60.6140000 164.1760000  16.6220000
  60.1680000 162.1220000  17.4600000  60.4983648 161.3775064  18.0572334
  59.0120000 161.8590000  16.5950000  59.2644424 162.0514552  15.5522474
  58.4810000 160.4010000  16.7400000  58.3743010 160.1732907  17.8005961
  57.1250000 160.2320000  16.0420000  57.2310086 160.4591047  14.9812049
  56.7803354 159.2047316  16.1604343  56.3990401 160.9119430  16.4878238
  59.4850000 159.3790000  16.1890000  59.3740720 159.4015064  15.1048924
  60.4731686 159.7504457  16.4603861  59.3230000 157.9120000  16.6980000
  58.3351737 157.5396844  16.4265592  60.0862916 157.2820181  16.2412638
  59.4342681 157.8886242  17.7820539  57.9280000 162.9120000  16.8750000
  57.3660000 163.4660000  15.9270000  57.6730000 163.2100000  18.1760000
  58.1124053 162.6291548  18.8757437  56.6920000 164.2030000  18.6150000
  55.7278213 163.9675677  18.1644113  56.5260000 164.2300000  20.1490000
  57.5198922 164.3523776  20.5794662  55.9154945 165.0994791  20.3926990
  55.8650000 162.9560000  20.7310000  56.6070050 162.1737461  20.5709743
  55.7074308 163.0932402  21.8007846  54.5410000 162.5140000  20.0930000
  53.5600000 163.2660000  20.0130000  54.4640000 161.2510000  19.6810000
  53.6130364 160.9131008  19.2546357  55.2568757 160.6361042  19.7965534
  56.9920000 165.5710000  18.0360000  56.0770000 166.2400000  17.5780000
  58.2700000 165.9330000  17.9580000  58.9517167 165.2990070  18.3496816
  58.7470000 167.1660000  17.3390000  58.2358033 168.0394013  17.7439041
  60.2380000 167.2810000  17.6580000  60.4093344 166.5885995  18.4822119
  60.7477431 166.9166053  16.7661040  60.7780000 168.6440000  18.0250000
  60.6530134 169.3063339  17.1683828  60.0500000 169.2300000  19.2310000
  60.1749302 168.5684040  20.0881942  60.4651340 170.2101567  19.4656430
  58.9890988 169.3306829  19.0019762  62.2400000 168.5360000  18.3660000
  62.7868818 168.1509447  17.5053304  62.6257319 169.5206757  18.6300565
  62.3676645 167.8580549  19.2099142  58.5520000 167.1330000  15.7980000
  58.3210000 168.1670000  15.1730000  58.6580000 165.9430000  15.1880000
  58.9444191 165.1390539  15.7281241  58.5060000 165.7880000  13.7390000
  58.9941758 166.6208811  13.2329440  59.1440000 164.4640000  13.2430000
  60.1055438 164.4302925  13.7552466  58.5265042 163.6294555  13.5751665
  59.3680000 164.3630000  11.7280000  58.4909907 164.7684802  11.2234790
  60.5920000 165.1230000  11.2940000  61.4695415 164.7177608  11.7977867
  60.7163297 165.0271824  10.2153611  60.4780503 166.1753812  11.5540185
  59.4720000 162.9350000  11.2840000  58.5505222 162.4085951  11.5327488
  59.6303647 162.8997136  10.2061425  60.3108418 162.4568731  11.7898045
  57.0260000 165.9260000  13.3050000  56.7410000 166.3700000  12.1790000
  56.0970000 165.5700000  14.2150000  56.3987395 165.1830415  15.0977886
  54.6650000 165.6740000  13.9590000  54.4317050 165.2153134  12.9981258
  53.8540000 164.9560000  15.0580000  54.1496718 165.4220579  15.9979295
  52.8081766 165.1846390  14.8528716  54.0330000 163.4430000  15.1620000
  53.8009593 162.9837069  14.2011109  55.0647360 163.2178325  15.4320415
  53.0850000 162.8820000  16.2420000  53.3233026 163.4014530  17.1701592
  52.0710957 163.1369030  15.9335813  53.1850000 161.3850000  16.4610000
  53.0493428 160.8951582  15.4967632  54.1831484 161.1675726  16.8411634
  52.1640000 160.8770000  17.4250000  51.2390159 161.0779906  17.0727118
  52.2726430 159.8789705  17.5356067  52.2897995 161.3304598  18.3186709
  54.2610000 167.1750000  13.8730000  53.4030000 167.5360000  13.0490000
  54.9160000 168.0390000  14.7020000  55.5512224 167.6177007  15.3646453
  54.6740000 169.4840000  14.7920000  53.6444047 169.7224335  15.0587998
  55.6510000 170.2100000  15.7800000  56.6715990 170.0355133  15.4393647
  55.3910000 171.6880000  15.8450000  54.3706704 171.8632966  16.1860268
  56.0907260 172.1502539  16.5412799  55.5226644 172.1244871  14.8549279
  55.6840000 169.6040000  17.2100000  55.9071899 168.5478901  17.0586100
  56.5309101 170.0876640  17.6967359  54.4510000 169.7400000  18.0870000
  53.6037225 169.2561366  17.6011020  54.6359095 169.2656718  19.0508052
  54.2274413 170.7959113  18.2392261  54.6890000 170.1250000  13.4000000
  55.6610000 169.9680000  12.6550000  53.6060000 170.8240000  13.0710000
  52.8490983 170.8842002  13.7370143  53.4580000 171.5090000  11.7930000
  54.0883596 170.9908418  11.0703258  52.4137294 171.4191075  11.4938052
  53.8400000 172.9780000  11.8180000  54.2820000 173.5190000  10.7930000
  53.6600000 173.6440000  12.9860000  53.2441915 173.1588706  13.7682097
  53.9920000 175.0570000  13.1450000  54.0264422 175.5372257  12.1670960
  52.9480000 175.7670000  14.0000000  51.9631866 175.6112623  13.5595597
  52.9666128 175.3458643  15.0051857  53.2220000 177.1570000  14.0650000
  52.5570473 177.5892643  14.6059116  55.3680000 175.2600000  13.7580000
  55.7520000 174.5490000  14.6910000  56.0800000 176.2880000  13.2670000
  55.7044941 176.7851629  12.4720637  57.3730000 176.7060000  13.7960000
  58.0675752 175.8661940  13.8157570  57.9600000 177.8000000  12.9250000
  57.2799492 178.6515483  12.9027169  58.9208843 178.1136302  13.3329678
  58.1016530 177.4222177  11.9124220  57.2130000 177.2080000  15.2360000
  58.1020000 176.9890000  16.0560000  56.0620000 177.8480000  15.5490000
  55.4295344 178.0347842  14.7840175  55.7180000 178.3700000  16.8830000
  56.5256638 178.9553129  17.3225307  54.4090000 179.2300000  16.8490000
  53.6130083 178.6124793  16.4328681  53.9940000 179.7300000  18.2420000
  54.7893551 180.3480185  18.6586101  53.0812868 180.3201604  18.1597447
  53.8166525 178.8768904  18.8968672  54.5260000 180.4010000  15.8670000
  54.9011868 181.2626241  16.4192133  55.2465394 180.1206990  15.0986552
  53.1850000 180.7610000  15.2050000  52.4640378 181.0418758  15.9727384
  53.3299729 181.5966352  14.5203132  52.8093892 179.8999492  14.6521818
  55.6240000 177.1930000  17.8600000  56.3740000 177.1610000  18.8390000
  54.7390000 176.2080000  17.5570000  54.2049304 176.3148948  16.7064458
  54.5090000 175.0140000  18.3770000  54.0948702 175.3132459  19.3398331
  53.5300000 174.0470000  17.7020000  54.0148042 173.7291617  16.7789383
  53.4403890 173.1955081  18.3765602  52.1420000 174.5920000  17.3850000
  51.6761984 174.8379193  18.3392816  52.2440885 175.4976082  16.7870419
  51.2410000 173.6170000  16.6410000  51.6840000 172.6640000  15.9630000
  49.9380000 173.8620000  16.7330000  49.2791076 173.2564401  16.2647485
  49.6126573 174.6526217  17.2707460  55.8230000 174.3050000  18.5900000
  56.0730000 173.8020000  19.6870000  56.6780000 174.2970000  17.5430000
  56.3507240 174.6731715  16.6646579  57.9920000 173.6710000  17.5790000
  57.9033216 172.6653301  17.9899299  58.5980000 173.5750000  16.1800000
  57.7942201 173.3495554  15.4791350  59.0330063 174.5436349  15.9337969
  59.6710000 172.4980000  16.0850000  60.6422918 172.9708925  16.2301405
  59.4978067 171.7732861  16.8805475  59.6490000 171.7940000  14.7500000
  60.5438782 171.1806026  14.6449493  58.7648098 171.1598806  14.6851944
  59.6130000 172.7600000  13.6560000  60.3412273 173.4595493  13.6356248
  58.6740000 172.7960000  12.7190000  57.7010000 171.8880000  12.7070000
  57.6775872 171.1680009  13.4149217  56.9904961 171.9231081  11.9900263
  58.7180000 173.7160000  11.7640000  59.4694199 174.3907644  11.7513017
  57.9998718 173.7373386  11.0541161  58.9440000 174.3650000  18.5520000
  59.4700000 173.6890000  19.4270000  59.1390000 175.6960000  18.4260000
  58.6870288 176.1689801  17.6565123  60.0130000 176.4770000  19.3040000
  61.0223324 176.0673863  19.2644527  60.0650000 177.9530000  18.8790000
  59.0057478 178.2099904  18.8726739  60.5762853 178.5403272  19.6417150
  60.6640000 178.2550000  17.5260000  60.3940743 177.4547502  16.8369128
  60.1630000 179.5510000  17.0000000  60.4329661 180.3518526  17.6883692
  60.6095504 179.7449184  16.0247620  59.0783945 179.5084089  16.9004139
  62.1850000 178.2030000  17.5640000  62.5075235 177.2074442  17.8688714
  62.5815274 178.4253186  16.5733226  62.5565222 178.9389523  18.2770529
  59.5450000 176.3570000  20.7430000  60.3600000 176.1860000  21.6380000
  58.2320000 176.4010000  20.9640000  57.6066535 176.5669015  20.1884242
  57.6580000 176.2690000  22.3000000  58.0895208 177.0181229  22.9638554
  56.1440000 176.4730000  22.2520000  55.7575865 175.8701653  21.4301885
  55.7337555 176.1082435  23.1936752  55.7400000 177.9140000  22.0520000
  56.2396050 178.5121795  22.8140216  56.0816652 178.2251206  21.0647964
  54.2450000 178.1150000  22.1540000  54.0509707 179.1768504  22.3054114
  53.7906722 177.7931689  21.2169245  53.6350000 177.3660000  23.2520000
  53.1403576 176.5224597  22.9992789  53.6480000 177.7350000  24.5280000
  54.2820000 178.8410000  24.9020000  54.7571688 179.4049382  24.2118636
  54.2858974 179.1127788  25.8747388  53.0680000 176.9770000  25.4470000
  52.6150257 176.1162721  25.1748568  53.0815218 177.2634116  26.4154443
  57.9990000 174.8910000  22.8880000  58.3770000 174.8090000  24.0660000
  57.8980000 173.8220000  22.0500000  57.5368607 173.9928113  21.1223679
  58.2160000 172.4500000  22.4260000  57.6730308 172.1834498  23.3327716
  57.8200000 171.4760000  21.3150000  56.8618413 171.7659393  20.8837617
  58.5808101 171.4654263  20.5345154  57.6280000 169.7490000  21.8560000
  57.3006152 169.2646652  20.6613715  59.7120000 172.3780000  22.7440000
  60.0720000 171.9250000  23.8230000  60.5580000 172.9150000  21.8530000
  60.1409462 173.2517670  20.9969898  62.0170000 172.9520000  21.9760000
  62.3914541 171.9403707  22.1324913  62.6660000 173.5220000  20.7260000
  62.1875327 174.4733323  20.4933304  63.7231650 173.6885686  20.9327779
  62.5250000 172.5870000  19.5490000  63.1820988 171.7463136  19.7716396
  61.4897159 172.2460868  19.5409838  62.8780000 173.1570000  18.1940000
  63.2470000 174.3510000  18.1020000  62.7620000 172.3940000  17.2100000
  62.5120000 173.6870000  23.1920000  63.4880000 173.2400000  23.7950000
  61.8580000 174.8060000  23.5650000  61.1296973 175.1749666  22.9704093
  62.2190000 175.5570000  24.7660000  63.2991111 175.7031142  24.7764828
  61.5390000 176.9280000  24.8290000  60.5366714 176.7008449  24.4659061
  61.4784250 177.3034170  25.8505149  62.1760000 177.9890000  23.9340000
  62.5984254 177.4928120  23.0602409  61.1730000 179.0170000  23.4900000
  60.7504498 179.5139688  24.3632538  61.6644009 179.7543844  22.8552637
  60.3758698 178.5290771  22.9290944  63.3910000 178.6290000  24.5880000
  64.1389488 177.8633295  24.7939629  63.8131515 179.3775098  23.9174611
  63.0928296 179.1054482  25.5219114  61.8860000 174.7310000  25.9760000
  62.7200000 174.6250000  26.8620000  60.7170000 174.0610000  25.9690000
  60.0896354 174.2087415  25.1913848  60.2750000 173.1910000  27.0630000
  60.2124311 173.7700692  27.9843377  58.8900000 172.5840000  26.7680000
  58.1977059 173.3722374  26.4721792  59.0621239 171.9165652  25.9236043
  58.2960000 171.7960000  27.9230000  58.4440000 172.2390000  29.0820000
  57.6250000 170.7690000  27.6610000  61.3120000 172.0960000  27.3190000
  61.7420000 171.9090000  28.4590000  61.7520000 171.4240000  26.2390000
  61.2893005 171.6148178  25.3617332  62.7860000 170.3960000  26.2660000
  62.5718349 169.5985232  26.9775218  63.0030000 169.7800000  24.8410000
  62.8575843 170.5663081  24.1002746  64.4190000 169.1850000  24.6880000
  64.5650034 168.3982504  25.4281410  64.5320583 168.7674350  23.6875211
  65.1613025 169.9685428  24.8401410  61.9070000 168.7330000  24.5110000
  62.0939667 167.8790112  25.1620356  60.9552308 169.1918410  24.7787684
  61.8540000 168.2570000  23.0380000  62.8053279 167.7975982  22.7696253
  61.0527294 167.5275268  22.9199592  61.6665942 169.1104290  22.3863576
  64.0580000 171.0330000  26.8350000  64.5590000 170.5420000  27.8380000
  64.5360000 172.1540000  26.2350000  64.0500656 172.4808200  25.4121052
  65.7520000 172.8520000  26.6440000  66.6113613 172.1976051  26.4978334
  65.9620000 174.1170000  25.8320000  64.9854795 174.5808266  25.6928171
  66.5979234 174.7794462  26.4192534  66.5910000 173.8750000  24.5020000
  67.5876033 173.4524854  24.6299225  65.9784833 173.1890519  23.9168500
  66.7210000 175.4440000  23.6290000  67.6930000 174.9690000  22.2760000
  67.1761820 174.1930724  21.7112571  67.8669173 175.8313030  21.6323487
  68.6483603 174.5833262  22.6318701  65.8050000 173.1770000  28.1070000
  66.8770000 173.1020000  28.6800000  64.6690000 173.5230000  28.7220000
  63.8316868 173.6395882  28.1693581  64.6210000 173.8840000  30.1360000
  65.5411849 174.3995320  30.4109285  63.4370000 174.8070000  30.4300000
  62.5040203 174.2742496  30.2460838  63.4975565 175.0795248  31.4836428
  63.4420000 176.0810000  29.5970000  64.4970000 176.5890000  29.1760000
  62.2540000 176.6100000  29.3120000  62.1998898 177.4554674  28.7621302
  61.4122915 176.1634271  29.6469630  64.6460000 172.6700000  31.0480000
  65.3670000 172.6960000  32.0470000  63.8800000 171.6060000  30.7020000
  63.2488525 171.7207215  29.9218775  63.8160000 170.3540000  31.4730000
  63.7638859 170.5923088  32.5353522  62.5870000 169.5100000  31.0980000
  62.5913167 169.4151219  30.0121461  62.7316733 168.5280859  31.5485711
  61.2390000 170.0900000  31.5560000  61.2685909 170.2252880  32.6371671
  61.0948919 171.0565695  31.0732182  60.0670000 169.1490000  31.1860000
  60.0658565 169.0676936  30.0990377  60.2996538 168.1775784  31.6222472
  58.6970000 169.6020000  31.6610000  58.7266060 169.6932413  32.7467712
  58.4897106 170.5772259  31.2204723  57.6200000 168.6400000  31.2710000
  57.8116628 167.7363801  31.6794557  56.7290567 168.9784637  31.6053088
  57.5921150 168.5556349  30.2649165  65.1140000 169.5360000  31.3730000
  65.4360000 168.8150000  32.3190000  65.8520000 169.6590000  30.2240000
  65.4233931 170.2625909  29.5369239  67.1530000 169.0280000  29.8920000
  67.0422446 167.9440708  29.8615064  67.6460000 169.5110000  28.5160000
  66.7908839 169.6750307  27.8602793  68.1969690 170.4440641  28.6340020
  68.7620000 168.3730000  27.6190000  68.9243163 169.1499383  26.5517987
  68.1060000 169.4680000  31.0170000  68.2370000 170.6730000  31.2900000
  68.6540000 168.4910000  31.7540000  68.3321259 167.5432971  31.6185170
  69.6000000 168.7570000  32.8510000  70.1131090 169.7120714  32.7384971
  68.9240000 168.7190000  34.2460000  69.7123791 168.7917237  34.9951795
  67.9110000 169.8480000  34.4600000  67.1220128 169.7756522  33.7114249
  67.4755403 169.7622611  35.4555515  68.4136201 170.8105722  34.3655100
  68.3200000 167.4360000  34.4600000  67.9034070 167.4186812  35.3247258
  70.7990000 167.8020000  32.7390000  71.9090000 168.2450000  32.4270000
  70.5460000 166.4870000  32.9270000  69.5935352 166.2211963  33.1325687
  71.5650000 165.4500000  32.9210000  72.5354416 165.8715178  32.6589597
  71.6610000 164.8350000  34.3080000  72.0990220 165.5650222  34.9886641
  70.6589196 164.5758907  34.6497561  72.4650000 163.6730000  34.2830000
  72.5142145 163.2988914  35.1657347  71.3280000 164.3570000  31.8790000
  70.2040000 163.8790000  31.7140000  72.4060000 163.9350000  31.2190000
  73.2724440 164.4195583  31.4049498  72.4000000 162.9040000  30.1990000
  71.3756214 162.6141360  29.9650629  73.0600000 163.4280000  28.9290000
  74.0067034 163.8407548  29.2775477  73.2542924 162.6141754  28.2304014
  72.2650000 164.5090000  28.2340000  71.6378574 165.0085834  28.9723830
  73.1540000 165.4990000  27.5930000  73.7811716 165.0002056  26.8541098
  72.5525206 166.2636786  27.1014820  73.7853428 165.9647956  28.3496645
  71.3140000 163.9200000  27.2500000  70.6225948 163.2538646  27.7660639
  70.7536026 164.7180613  26.7630152  71.8690332 163.3565307  26.4999737
  73.0670000 161.6500000  30.7300000  74.2300000 161.6680000  31.1310000
  72.2890000 160.5720000  30.7770000  71.3483539 160.6990534  30.4318310
  72.6490000 159.2790000  31.3380000  73.5957365 159.3473749  31.8738302
  71.5710000 158.8380000  32.3120000  70.5844056 158.9274798  31.8573309
  71.7349242 157.8062629  32.6230424  71.5140000 159.8080000  33.8180000
  70.5013271 159.1466008  34.3711212  72.8830000 158.2150000  30.3370000
  72.5870000 158.3770000  29.1620000  73.3270000 157.0730000  30.8310000
  73.5305136 157.0370809  31.8196311  73.5350000 155.8820000  30.0470000
  73.9812942 156.1323796  29.0845912  74.4800000 154.9510000  30.7940000
  75.4843112 155.3734883  30.8250130  74.1248056 154.7846479  31.8109877
  74.6470000 153.3230000  30.0520000  75.5045819 152.8479020  30.9507399
  72.1630000 155.2560000  29.8760000  71.5620000 154.8900000  30.8750000
  71.6510000 155.1460000  28.6280000  72.1765910 155.5283138  27.8548961
  70.3220000 154.5620000  28.3510000  69.5538719 155.1584230  28.8432987
  70.0300000 154.5340000  26.8410000  70.2690997 155.5282794  26.4637216
  70.7176014 153.8069496  26.4089097  68.5930000 154.1720000  26.4510000
  68.3887158 153.1702178  26.8288904  67.9273627 154.8856492  26.9365244
  68.3590000 154.2040000  24.9380000  69.2650664 153.8359697  24.4566515
  67.5316917 153.5291900  24.7182459  68.0350000 155.5870000  24.4130000
  67.0510549 155.8746490  24.7834196  68.7830748 156.2835217  24.7916038
  68.0340000 155.6210000  22.9260000  67.3405851 154.9759713  22.5749821
  67.8149543 156.5552112  22.6107724  68.9457812 155.3549029  22.5825668
  70.1840000 153.1690000  28.9360000  69.0900000 152.8020000  29.3630000
  71.2960000 152.4220000  28.9970000  72.1395485 152.8167696  28.6062542
  71.3430000 151.0620000  29.5040000  70.4663522 150.5105697  29.1641287
  72.5930000 150.3480000  29.0010000  72.7173537 150.5773278  27.9426786
  73.4513176 150.7248809  29.5571940  72.4930000 148.8540000  29.1830000
  72.6557875 148.6720984  30.2453149  71.4968215 148.5102283  28.9045194
  73.5020000 148.0740000  28.4050000  74.1500000 148.5570000  27.4670000
  73.6160000 146.8190000  28.7510000  74.2772513 146.2243878  28.2721635
  73.0423255 146.4495183  29.4956356  71.2670000 150.9760000  31.0080000
  70.6020000 150.0760000  31.5100000  72.0070000 151.8410000  31.7330000
  72.5714070 152.5193681  31.2417152  72.0320000 151.8470000  33.2010000
  72.0428959 150.8231974  33.5749099  73.2750000 152.5630000  33.7080000
  73.3664892 153.5411944  33.2359146  73.2255146 152.6855098  34.7899624
  74.8120000 151.7050000  33.3750000  75.6026762 152.6099027  33.9449830
  70.8100000 152.5600000  33.6870000  70.2630000 152.2260000  34.7380000
  70.4650000 153.6340000  32.9660000  71.0812259 153.7945795  32.1820490
  69.4280000 154.6070000  33.2340000  69.2996690 155.2281056  32.3475136
  68.0760000 153.9670000  33.5850000  68.2548848 153.2973992  34.4262694
  67.4177760 154.7768934  33.8995056  67.4210000 153.1930000  32.4520000
  67.0673665 153.9468242  31.7485845  68.0590377 152.4802058  31.9295688
  66.2410000 152.4630000  33.0020000  65.1280000 152.9940000  33.0570000
  66.4810000 151.2820000  33.5370000  65.7202245 150.7427453  33.9249774
  67.4245003 150.9220915  33.5563468  69.8750000 155.5850000  34.3120000
  69.5760000 156.7740000  34.1700000  70.5930000 155.1060000  35.3740000
  70.7428396 154.1077929  35.4090723  71.0330000 155.9190000  36.5210000
  70.4711234 156.8529556  36.5319917  70.8080000 155.1930000  37.8620000
  71.2374704 155.8237296  38.6403538  69.7318597 155.1106354  38.0144404
  71.4360000 153.8100000  37.9270000  72.6950000 153.7130000  37.8380000
  70.6770000 152.8200000  38.0590000  72.4720000 156.4330000  36.4350000
  72.7850000 157.4050000  37.1270000  73.3440000 155.8130000  35.6220000
  73.0773280 154.9856717  35.1076914  74.7180000 156.2950000  35.4950000
  75.1369265 156.5185581  36.4761328  75.6110000 155.2530000  34.8060000
  75.2357560 155.1131945  33.7922216  77.0550000 155.6610000  34.7530000
  77.4310995 155.8005510  35.7664961  77.6346063 154.8839150  34.2547084
  77.1490651 156.5951473  34.1992662  75.5170000 154.0160000  35.4870000
  76.0767839 153.3682573  35.0526364  74.7040000 157.6040000  34.7020000
  74.3520000 157.5770000  33.5200000  75.0650000 158.7480000  35.3490000
  75.2269083 158.7105216  36.3452331  75.1490000 160.0530000  34.6780000
  74.3692685 160.1212821  33.9194121  74.9650000 161.2040000  35.6750000
  73.9196741 161.1933736  35.9836746  75.5992143 160.9851296  36.5340507
  75.3160000 162.5760000  35.1230000  76.3354855 162.5358185  34.7394173
  74.6260952 162.7649973  34.3005581  75.2040000 163.6900000  36.1410000
  74.0630000 164.0980000  36.4550000  76.2590000 164.1440000  36.6410000
  76.4880000 160.1580000  33.9300000  77.5330000 159.9270000  34.5260000
  76.4380000 160.4820000  32.6260000  75.5185450 160.5507259  32.2137154
  77.5990000 160.5820000  31.7480000  78.4890422 160.2237630  32.2652914
  77.3900000 159.7530000  30.4320000  76.3252909 159.7582017  30.1986167
  78.1790000 160.3240000  29.2400000  79.2439080 160.3186894  29.4724721
  77.9974162 159.7117529  28.3566645  77.8551768 161.3464682  29.0455871
  77.8090000 158.2790000  30.6280000  77.9089107 157.8653493  29.6245003
  78.7881013 158.3122477  31.1058648  76.9150000 157.4390000  31.4120000
  75.9357623 157.4048905  30.9344751  77.3239906 156.4305145  31.4735059
  76.8149511 157.8517906  32.4158396  77.9810000 162.0340000  31.4960000
  79.1620000 162.3370000  31.4500000  77.0070000 162.9230000  31.2780000
  76.0637701 162.5912005  31.1354315  77.2870000 164.3470000  31.0470000
  77.9557145 164.7444330  31.8105228  77.8980000 164.6320000  29.6600000
  78.7424758 163.9564250  29.5237675  76.9070000 164.4380000  28.5260000
  76.0624081 165.1136159  28.6613045  77.3950922 164.6531867  27.5754424
  76.5511065 163.4077377  28.5260660  78.4230000 165.9580000  29.6550000
  78.8065402 166.1470569  28.7954916  76.0690000 165.1850000  31.3550000
  75.0060000 164.6610000  31.6520000  76.2430000 166.4840000  31.3170000
  77.1732393 166.8324982  31.1345085  75.2020000 167.4390000  31.6320000
  74.2296742 166.9629042  31.7585484  75.5790000 168.1300000  32.9360000
  75.7183756 167.3583690  33.6931396  76.8450000 168.9590000  32.8200000
  76.7062159 169.7311904  32.0633226  77.0628264 169.4268218  33.7801008
  77.6764748 168.3152103  32.5331462  74.5010000 168.9670000  33.3300000
  74.7238908 169.4102616  34.1518510  74.9820000 168.3980000  30.4530000
  75.7800000 168.3990000  29.5170000  73.9050000 169.2040000  30.5010000
  73.2901565 169.0772608  31.2922041  73.5460000 170.2130000  29.4940000
  73.4401824 169.7515244  28.5121945  72.2010000 170.8570000  29.8830000
  71.4863926 170.0359594  29.9406883  72.3516879 171.2773760  30.8773225
  71.6540000 171.9490000  28.9410000  72.4516309 172.6535207  28.7053384
  71.2963261 171.4851326  28.0217620  70.4940000 172.6970000  29.6230000
  69.6374494 172.0228994  29.6201203  70.8016320 172.8883731  30.6510264
  70.1120000 173.9970000  28.9630000  71.0099513 174.6004188  28.8300721
  69.6728549 173.7805807  27.9891348  69.1270000 174.7480000  29.7970000
  69.5338829 174.9490144  30.6992967  68.8862288 175.6137113  29.3358350
  68.2946931 174.1892060  29.9199373  74.6540000 171.2850000  29.3990000
  74.9220000 171.8100000  28.3190000  75.3010000 171.5820000  30.5280000
  74.9828881 171.1400594  31.3786425  76.3480000 172.5870000  30.6230000
  76.0355605 173.4934560  30.1045231  76.6330000 172.9340000  32.0860000
  76.7921210 171.9786120  32.5860135  77.5363009 173.5390655  32.1637388
  75.5060000 173.6590000  32.7790000  75.1000000 174.7640000  32.3840000
  75.0190000 173.0790000  33.8700000  74.2633777 173.5174679  34.3768339
  75.4065065 172.2021186  34.1878341  77.6340000 172.2240000  29.8970000
  78.4520000 173.1200000  29.6590000  77.8400000 170.9300000  29.5650000
  77.1955272 170.2190149  29.8800466  79.0700000 170.5030000  28.8850000
  79.8453815 171.2508228  29.0512642  79.5750000 169.1500000  29.4020000
  78.7723732 168.4247178  29.2683764  80.4303573 168.8612178  28.7912065
  79.9860000 169.1860000  30.8630000  79.0292961 169.2609327  31.3799173
  80.4438691 168.2220873  31.0850977  80.9050000 170.3040000  31.3330000
  81.8550000 170.6710000  30.6010000  80.6960000 170.7790000  32.4740000
  78.9450000 170.5130000  27.3790000  79.9620000 170.4880000  26.6880000
  77.6910000 170.5870000  26.8820000  76.9560766 170.5601101  27.5742889
  77.3130000 170.6330000  25.4730000  77.7713785 169.8355882  24.8880874
  75.7780000 170.5530000  25.3370000  75.3324478 171.3549929  25.9255499
  75.3520000 170.6930000  23.8880000  75.7968182 169.8910291  23.2988649
  74.2657322 170.6330619  23.8206920  75.6868832 171.6556579  23.5016811
  75.2110000 169.2610000  25.9460000  75.6263779 168.4260401  25.3817271
  75.5569604 169.2090849  26.9783351  73.6750000 169.1860000  25.9160000
  73.3282957 169.2373920  24.8838882  73.3477816 168.2469473  26.3623265
  73.2588781 170.0204388  26.4804947  77.8780000 171.9080000  24.8280000
  77.8050000 172.9870000  25.4180000  78.4700000 171.7730000  23.6370000
  78.5964649 170.8412432  23.2683061  79.0370000 172.8940000  22.8940000
  78.4011696 173.7710053  23.0151638  80.4460000 173.2350000  23.4030000
  80.7202102 174.2285128  23.0482603  80.4502410 173.2249511  24.4929454
  81.5420000 172.3010000  22.9590000  81.7390000 171.0790000  23.5910000
  81.0972630 170.8036199  24.4279226  82.7490000 170.2040000  23.1640000
  82.8707962 169.2351837  23.6484185  83.5850000 170.5680000  22.1350000
  84.3820337 169.8985449  21.8114771  83.4120000 171.7850000  21.5120000
  84.0820297 172.0770859  20.7033924  82.3840000 172.6430000  21.9120000
  82.2369492 173.5935460  21.3992249  79.0150000 172.5900000  21.3850000
  79.1970000 171.4370000  20.9800000  78.7740000 173.6200000  20.5630000
  78.5356736 174.5192816  20.9561826  78.7010000 173.4570000  19.1160000
  78.3420461 172.4560717  18.8764297  77.7430000 174.4780000  18.5060000
  78.2416557 175.4469030  18.4801398  77.5060289 174.1646623  17.4892580
  76.5430000 174.5830000  19.2610000  75.9637929 175.2307068  18.8528397
  80.0830000 173.4810000  18.4490000  80.6270000 174.5510000  18.1810000
  80.6550000 172.2920000  18.1930000  80.2034261 171.4496964  18.5196572
  81.9520000 172.1690000  17.5180000  82.5974324 173.0002111  17.8019090
  82.6390000 170.8570000  17.9160000  82.5222743 170.8050644  18.9984865
  82.0857133 170.0405898  17.4518361  84.1210000 170.7370000  17.5570000
  84.2704373 171.2217194  16.5922117  85.0260000 171.3730000  18.5850000
  84.8774546 170.8884626  19.5500164  86.0650121 171.2566978  18.2767331
  84.7897106 172.4335721  18.6713397  84.4920000 169.3340000  17.4030000
  83.8959222 168.8851203  16.6084576  85.5492792 169.2631472  17.1475751
  84.3082909 168.8043458  18.3377814  81.7840000 172.2630000  15.9860000
  82.7620000 172.3850000  15.2500000  80.5330000 172.2180000  15.5250000
  79.8207039 172.1076980  16.2325077  80.1130000 172.3230000  14.1300000
  80.9732378 172.5013510  13.4848016  79.4510000 171.0160000  13.7090000
  80.2315940 170.2559593  13.6756769  78.7266880 170.7585436  14.4817797
  78.8000000 171.0780000  12.4550000  78.4080949 170.2246744  12.2553862
  79.1090000 173.4760000  14.0340000  78.5220000 173.8640000  15.0490000
  78.9080000 174.0220000  12.8310000  79.4877535 173.7349568  12.0553767
  77.9290000 175.0920000  12.6090000  78.0086655 175.8323772  13.4049863
  78.1780000 175.7890000  11.2640000  78.2223193 174.9543564  10.5643536
  77.3312502 176.4279715  11.0133403  79.4750000 176.6010000  11.1730000
  80.2582537 176.0647118  11.7087327  79.8930000 176.8030000   9.7490000
  79.1103938 177.3396697   9.2127053  80.8158610 177.3822670   9.7193683
  80.0573768 175.8342771   9.2771350  79.3620000 177.9360000  11.9000000
  79.1433968 177.7594274  12.9531544  80.3025604 178.4796008  11.8108622
  78.5591236 178.5249577  11.4565845  76.4870000 174.5490000  12.6960000
  75.5620000 175.2840000  13.0600000  76.3190000 173.2400000  12.4200000
  77.1355476 172.7523486  12.0800803  75.0540000 172.5140000  12.4790000
  74.3034627 173.0087481  11.8625446  75.2590000 171.1020000  11.9550000
  76.1085808 170.6261530  12.4447768  74.3654591 170.4973078  12.1100227
  75.6040000 171.0410000  10.1820000  75.7160858 169.7178209  10.1076225
  74.4220000 172.4990000  13.8630000  73.2190000 172.2250000  14.0000000
  75.2540000 172.7770000  14.8620000  76.2007669 173.0104517  14.5988800
  74.9140000 172.7710000  16.2710000  75.0829967 173.7633446  16.6890808
  73.8646160 172.5011819  16.3897041  75.7690000 171.7680000  17.0200000
  76.7200000 171.2210000  16.4550000  75.4550000 171.5040000  18.3030000
  74.3870000 172.0970000  19.1410000  73.4640034 172.1477991  18.5634214
  74.6827875 173.1021641  19.4414228  74.2870000 171.1650000  20.2980000
  73.5938432 170.3534455  20.0766134  73.9512143 171.6961357  21.1886426
  75.6810000 170.6590000  20.4730000  75.6958481 169.6907652  20.9733998
  76.2796261 171.3705493  21.0417215  76.2400000 170.5210000  19.0590000
  77.2791214 170.8457195  19.0053143  76.1310000 169.0770000  18.5620000
  77.0400000 168.3110000  18.7900000  75.0300000 168.7010000  17.9090000
  74.2845038 169.3745058  17.8054398  74.8160000 167.3390000  17.3950000
  75.6944433 166.7225716  17.5859260  73.6130000 166.7060000  18.0960000
  73.6908044 166.9573599  19.1537636  72.7193021 167.1691581  17.6778031
  73.5230000 165.2200000  17.9420000  73.3190983 164.9707169  16.9006629
  74.4637546 164.7618389  18.2472396  72.1890000 164.5820000  18.9770000
  70.7500000 165.0420000  18.0130000  70.8021719 164.5683287  17.0326875
  69.8470955 164.7129225  18.5273657  70.7242515 166.1249334  17.8917833
  74.6230000 167.2940000  15.8660000  74.0200000 168.2050000  15.2840000
  75.1400000 166.2160000  15.2270000  75.6590961 165.5668614  15.8008098
  75.0620000 165.9600000  13.7800000  74.0844582 166.3034773  13.4415705
  76.1360000 166.7510000  13.0470000  77.1207677 166.4120398  13.3686188
  76.0321269 166.5968501  11.9729663  76.0253658 167.8114050  13.2737169
  75.1810000 164.4680000  13.4270000  75.7730000 163.6930000  14.1760000
  74.6310000 164.0740000  12.2720000  74.1165267 164.7386156  11.7119083
  74.7290000 162.6960000  11.7960000  74.7569309 161.9937567  12.6291707
  73.5410000 162.3570000  10.9160000  73.5048905 163.0460229  10.0721733
  73.6411085 161.3362858  10.5469186  72.6220652 162.4447330  11.4956214
  76.0340000 162.5300000  11.0070000  76.3120000 163.3400000  10.1090000
  76.8410000 161.5130000  11.3730000  76.5753365 160.9856733  12.1924198
  78.0740000 161.1490000  10.6870000  78.1466603 161.6996986   9.7491563
  79.2950000 161.4820000  11.5450000  79.2078606 160.8142668  12.4021105
  80.1989660 161.2392685  10.9864063  79.3700000 162.9160000  12.0280000
  79.8600000 163.9260000  11.2040000  80.1919270 163.6705220  10.1976924
  79.9300000 165.2460000  11.6470000  80.3012026 166.0293869  10.9862312
  79.5290000 165.5590000  12.9350000  79.5680000 166.8490000  13.3980000
  79.8931630 167.4724458  12.7444068  79.0750000 164.5660000  13.7800000
  78.7658166 164.8090934  14.7965686  79.0130000 163.2520000  13.3300000
  78.6795587 162.4610257  14.0017713  78.0390000 159.6330000  10.3690000
  77.3210000 158.8980000  11.0590000  78.7750000 159.1700000   9.3110000
  79.2629245 159.8537170   8.7501434  78.8380000 157.7520000   8.8990000
  78.2409400 157.0927242   9.5290587  78.5280000 157.4330000   7.4150000
  79.3029321 156.7607176   7.0467393  77.1760000 156.7890000   7.2330000
  76.4004642 157.4609299   7.6006350  77.0089228 156.5864110   6.1751043
  77.1403454 155.8536786   7.7915735  78.7470000 158.6170000   6.4920000
  79.7877250 158.9358225   6.5498418  78.5124893 158.3279617   5.4675191
  78.0983518 159.4390766   6.7945665  80.1560000 157.1400000   9.1920000
  81.1960000 157.7030000   8.8360000  80.1240000 155.9050000   9.6900000
  79.2542623 155.5091447  10.0170385  81.3480000 155.1520000   9.9060000
  82.1775867 155.8319956  10.0996261  81.1840000 154.2380000  11.0990000
  82.1503003 153.8333386  11.4000183  80.8244639 154.9259583  11.8642105
  80.2130000 153.1120000  10.9760000  79.7380000 152.7310000   9.9010000
  79.9960000 152.4910000  12.0980000  79.3539245 151.7118071  12.1244083
  80.4705845 152.7908712  12.9376116  81.7540000 154.4220000   8.5900000
  81.0080000 154.5330000   7.6070000  82.8850000 153.6720000   8.5050000
  83.9290000 153.4070000   9.5130000  83.6790991 152.5095031  10.0788173
  84.0107213 154.2541816  10.1939581  85.1150000 153.2380000   8.6960000
  85.8636439 152.6557101   9.2331869  85.5323416 154.2095199   8.4312804
  84.6380000 152.5260000   7.4970000  84.5961233 151.4492879   7.6614272
  85.2905409 152.7385960   6.6501866  83.2460000 153.0600000   7.2240000
  83.2522722 153.8673159   6.4916750  82.3310000 151.9440000   6.7400000
  82.5490000 151.4150000   5.6380000  81.3200000 151.5640000   7.5650000
  81.2714730 151.9778210   8.4850525  80.3770000 150.4890000   7.2350000
  80.6187085 150.0896348   6.2500210  80.4410000 149.3400000   8.2620000
  79.9957228 149.6072309   9.2203398  79.8945511 148.5020965   7.8290896
  81.8270000 148.8430000   8.5560000  82.4470000 149.1180000   9.7540000
  83.6450000 148.5600000   9.6820000  84.2962548 148.6465075  10.5517601
  83.8340000 147.9750000   8.5120000  84.6523662 147.4762384   8.1932312
  82.6920000 148.1650000   7.7760000  82.6308553 147.7838539   6.7566422
  78.9750000 151.0270000   7.0640000  78.0130000 150.2670000   7.1150000
  78.8690000 152.3260000   6.8130000  79.7110347 152.8837228   6.8082861
  77.5960000 152.9910000   6.5430000  77.8484924 153.9462016   6.0826343
  77.0782799 152.3639878   5.8171068  76.6770000 153.2400000   7.7250000
  75.5860000 153.8030000   7.5540000  77.1090000 152.8520000   8.9370000
  77.9587527 152.3124525   9.0201156  76.3110000 153.0700000  10.1330000
  75.2592788 152.9211759   9.8883921  76.6910000 152.1100000  11.2670000
  76.8195656 151.1256792  10.8167971  77.6326978 152.4311657  11.7121493
  75.6290000 152.0390000  12.3350000  74.5710000 151.1440000  12.2330000
  74.5269476 150.4795742  11.3700416  73.5780000 151.0860000  13.2080000
  72.7620698 150.3690463  13.1166918  73.6400000 151.9280000  14.3050000
  72.6680000 151.8840000  15.2740000  71.9876231 151.2312465  15.0934459
  74.6780000 152.8370000  14.4200000  74.7272471 153.5087885  15.2769570
  75.6620000 152.8910000  13.4350000  76.4770517 153.6099928  13.5177049
  76.3780000 154.5240000  10.5600000  77.4680000 155.0780000  10.7570000
  75.1860000 155.1400000  10.6590000  74.3722214 154.6015390  10.3983785
  75.0040000 156.5450000  11.0030000  75.9187006 157.1080580  10.8175605
  73.8230000 157.2210000  10.2630000  72.8976778 156.7122367  10.5332575
  73.7240000 158.6930000  10.6470000  74.6488445 159.2025606  10.3766089
  72.8888737 159.1517482  10.1176468  73.5633979 158.7786664  11.7216941
  73.9130000 157.0640000   8.7370000  74.3467217 157.9750895   8.3248081
  74.5668822 156.2197571   8.5183871  72.5730000 156.8280000   8.1210000
  71.9186618 157.6720977   8.3388081  72.6821993 156.7226592   7.0416122
  72.1388211 155.9167659   8.5323892  74.8700000 156.6950000  12.4900000
  73.9500000 156.1290000  13.0940000  75.7890000 157.4950000  13.0640000
  76.4664848 157.9073116  12.4386099  75.8660000 157.8250000  14.4790000
  75.1293752 157.2435525  15.0334384  77.2790000 157.5010000  15.0400000
  78.0844732 157.9010579  14.4241543  77.3093871 157.9672508  16.0247776
  77.5780000 156.0450000  15.2450000  76.8750000 155.2850000  16.1600000
  77.4110000 154.0760000  16.1130000  76.9736489 153.3114497  16.7550948
  78.4240000 154.0190000  15.2560000  79.0034019 153.2239980  15.0271656
  78.5570000 155.2790000  14.7090000  79.3504268 155.4796211  13.9890512
  75.6170000 159.3060000  14.6350000  76.4580000 160.0930000  14.2070000
  74.4910000 159.7070000  15.2370000  73.7878807 159.0432135  15.5287363
  74.2640000 161.1300000  15.5180000  74.6183746 161.7184297  14.6716736
  72.7850000 161.4460000  15.7480000  72.4471424 160.7479474  16.5139465
  72.7556314 162.4611396  16.1438903  71.8770000 161.3490000  14.5420000
  71.8904257 162.2834756  13.9810402  72.2481945 160.5415782  13.9108234
  70.4620000 161.0410000  14.9730000  70.2450000 159.9640000  15.5800000
  69.5750000 161.8910000  14.7310000  75.0470000 161.4040000  16.8030000
  74.6880000 160.8770000  17.8650000  76.1580000 162.1640000  16.6830000
  76.4341230 162.4536161  15.7556500  77.0620000 162.4460000  17.7940000
  76.7308734 161.9131249  18.6853464  78.5210000 162.0260000  17.4790000
  79.0619729 161.9837681  18.4243386  78.6220000 160.6850000  16.7790000
  78.0816174 160.7266036  15.8332964  79.6696115 160.4520869  16.5883153
  78.1874872 159.9108096  17.4113990  79.1320000 162.9940000  16.6600000
  80.0344017 162.7279994  16.4689105  76.9670000 163.8890000  18.2790000
  76.9410000 164.8300000  17.4700000  76.9310000 164.0240000  19.6280000
  76.9598484 163.1337373  20.1041297  76.8590000 165.2400000  20.4360000
  76.5335747 166.0831414  19.8266477  75.8410000 165.0330000  21.5740000
  74.8800251 164.8950883  21.0784127  76.1412267 164.0993345  22.0496392
  75.7140000 166.1340000  22.6410000  76.7034590 166.5487114  22.8335777
  74.7870000 167.2360000  22.1800000  73.7971527 166.8221107  21.9876545
  74.7166332 167.9999511  22.9542919  75.1780057 167.6814802  21.2652529
  75.1570000 165.5650000  23.9160000  75.8220703 164.7854688  24.2876343
  75.0730114 166.3559621  24.6612692  74.1714546 165.1403908  23.7249340
  78.2350000 165.5340000  21.0230000  78.8500000 164.6740000  21.6520000
  78.7130000 166.7530000  20.8090000  78.1908457 167.3447029  20.1786494
  80.0100000 167.2210000  21.2810000  80.6802333 166.3967914  21.5250630
  80.6960000 168.1200000  20.2250000  81.4433539 168.7284874  20.7342204
  81.3620000 167.3160000  19.1290000  80.6151431 166.7075657  18.6189881
  81.8286436 167.9929850  18.4134344  82.1224851 166.6676587  19.5642201
  79.7540000 169.0440000  19.6490000  80.1995418 169.5909059  18.9978574
  79.8870000 167.8610000  22.6760000  79.1000000 168.8000000  22.8560000
  80.6280000 167.3070000  23.6660000  81.1008164 166.4411238  23.4496615
  80.6570000 167.7880000  25.0520000  80.3401775 168.8283416  25.1255660
  79.8100000 166.9440000  26.0290000  79.9870152 167.3063250  27.0416625
  78.3270000 167.0420000  25.7080000  78.1491255 166.6793935  24.6955880
  77.7608170 166.4358542  26.4151949  78.0064294 168.0811078  25.7827738
  80.2620000 165.4920000  26.0660000  81.3023156 165.4428545  26.3876057
  79.6391952 164.9347708  26.7657924  80.1688341 165.0564621  25.0711494
  82.0960000 167.9590000  25.5330000  82.9550000 167.1890000  25.1150000
  82.3680000 168.9790000  26.3660000  81.6223893 169.6103400  26.6220740
  83.7170000 169.2550000  26.8710000  84.4343985 169.1687865  26.0549082
  83.8110000 170.6600000  27.4560000  82.9013829 170.6742638  28.0564103
  84.6769959 170.7830527  28.1063916  83.7700000 171.7900000  26.4530000
  84.7600000 171.9200000  25.4770000  85.5383093 171.1593546  25.4157408
  84.7660000 173.0000000  24.5880000  85.5203701 173.0612195  23.8036023
  83.8140000 174.0020000  24.7150000  83.8010000 175.0670000  23.8440000
  84.4959095 175.0197648  23.1833417  82.8600000 173.9260000  25.7190000
  82.1249643 174.7220089  25.8381335  82.8430000 172.8250000  26.5790000
  82.0945717 172.7619648  27.3689251  84.1980000 168.2640000  27.9180000
  85.3830000 167.9220000  27.9400000  83.2980000 167.8520000  28.8230000
  82.3763779 168.2642977  28.7961194  83.6020000 166.9070000  29.8920000
  84.5039370 166.3468851  29.6452610  83.8340000 167.6540000  31.2200000
  84.4608065 168.5169992  30.9953997  82.8591907 167.9946084  31.5690454
  84.4990000 166.8110000  32.3090000  83.9285231 165.8900633  32.4295505
  85.5127926 166.5705143  31.9888543  84.5500000 167.5640000  33.6550000
  85.2346167 168.4017876  33.5226714  83.5454221 167.9426537  33.8435312
  85.0030000 166.7220000  34.8350000  84.8589302 167.3162390  35.7373438
  84.3628363 165.8406958  34.8749056  86.4300000 166.2960000  34.7430000
  87.0233869 167.1124898  34.7064457  86.6688937 165.7421709  35.5531254
  86.5636191 165.7449917  33.9071562  82.4810000 165.8670000  30.0090000
  81.2980000 166.2010000  29.9360000  82.8770000 164.6020000  30.1140000
  83.8743527 164.4444143  30.0904710  81.9920000 163.4400000  30.2640000
  80.9399958 163.7031991  30.3740569  82.1360000 162.5020000  29.0790000
  83.1829161 162.2222408  28.9615206  81.5380591 161.6066291  29.2489352
  81.7905613 163.0027112  28.1745335  82.4220000 162.7480000  31.5410000
  83.4550000 163.1320000  32.0770000  81.6780000 161.7430000  32.0460000
  80.8013698 161.4245763  31.6584112  82.0720000 161.2480000  33.3310000
  83.0867852 161.5784017  33.5526864  81.1480000 161.7580000  34.4190000
  80.1765269 162.0406176  34.0134554  81.0110697 161.0137830  35.2035324
  81.7980000 163.2320000  35.2350000  80.7811957 163.3835729  36.0788204
  82.2940000 159.7790000  33.4630000  83.4700000 159.4170000  33.6080000
  81.2630000 158.9350000  33.5730000  80.2891275 159.2024048  33.5859013
  81.6030000 157.5430000  33.8590000  82.5003726 157.5181600  34.4772270
  80.5070000 156.8300000  34.5800000  79.6300280 156.9612955  33.9461381
  80.7168353 155.7664036  34.6932778  80.2140000 157.4020000  35.9210000
  80.8600000 157.0600000  36.9260000  79.1650000 158.2130000  35.9670000
  78.9003655 158.6422135  36.8421252  78.6359004 158.3974375  35.1266803
  82.0450000 156.7880000  32.6470000  81.5610000 155.6930000  32.3920000
  82.9980000 157.3610000  31.9080000  83.2902577 158.2996326  32.1396326
  83.5150000 156.7620000  30.7030000  82.8915779 155.9105213  30.4301847
  83.5260000 157.7580000  29.5320000  84.1642727 158.5937790  29.8186717
  83.9730272 157.2329908  28.6878246  82.1390000 158.2870000  29.1300000
  81.7507324 158.9076093  29.9375848  82.2220000 159.0710000  27.9170000
  82.6097780 158.4508954  27.1087938  81.2298360 159.4354017  27.6506866
  82.8890121 159.9182433  28.0762922  81.1500000 157.1590000  28.8600000
  81.0341327 156.5537164  29.7590584  80.1847742 157.5807164  28.5796507
  81.5228580 156.5347917  28.0479409  84.8530000 156.1140000  30.9230000
  85.6330000 156.5460000  31.7940000  85.0560000 155.0050000  30.1980000
  84.2913629 154.7598261  29.5853670  86.2540000 154.1970000  30.1560000
  87.0243440 154.6587247  30.7736403  85.9920000 152.8000000  30.6740000
  85.0168151 152.5157088  30.2786620  86.7606389 152.1629651  30.2364149
  85.9860000 152.5920000  32.1630000  86.0220000 153.5150000  32.9960000
  85.9460000 151.3380000  32.5220000  85.9387041 151.0966400  33.5027099
  85.9225238 150.6146955  31.8174575  86.5790000 154.0990000  28.6970000
  85.6710000 153.9200000  27.8790000  87.8670000 154.2030000  28.3590000
  88.5387953 154.3248875  29.1032674  88.3570000 154.1450000  26.9900000
  87.5271164 154.2697359  26.2944187  89.3890000 155.2730000  26.7370000
  90.2425994 154.9973078  27.3562423  89.6681065 155.2092901  25.6852678
  88.9630000 156.7040000  27.0650000  88.5951081 156.7356897  28.0905497
  90.0730000 157.6120000  26.9250000  90.4411633 157.5812058  25.8995214
  89.7471247 158.6244944  27.1632459  90.8715969 157.3181571  27.6061752
  87.8280000 157.1660000  26.1670000  86.9675816 156.5105379  26.3017187
  87.5504187 158.1873104  26.4277201  88.1505165 157.1320921  25.1263596
  89.0160000 152.8080000  26.7860000  89.4240000 152.1770000  27.7660000
  89.1250000 152.3810000  25.5180000  88.6850567 152.9413916  24.8021016
  89.7850000 151.1490000  25.1200000  90.5441776 150.8855790  25.8564496
  88.7840000 150.0060000  25.0230000  89.3237882 149.0891520  24.7861081
  88.2866595 149.8955527  25.9866150  87.8170000 150.2570000  24.0190000
  87.1996200 149.5229574  23.9787111  90.4980000 151.3380000  23.7970000
  89.9800000 151.9890000  22.8740000  91.6920000 150.7730000  23.7160000
  92.0500552 150.2402554  24.4957942  92.5190000 150.8940000  22.5260000
  93.2697660 150.1038119  22.5332374  91.8887866 150.7876128  21.6430435
  93.2190000 152.2400000  22.4740000  93.0030000 153.1080000  23.3350000
  94.0760000 152.4160000  21.4660000  94.2638847 151.6571542  20.8265067
  94.8650000 153.6340000  21.3430000  94.8583829 154.1807716  22.2859190
  96.3380000 153.2790000  20.9840000  96.3240981 152.8832201  19.9684882
  96.8966735 154.2147844  21.0010716  97.0240000 152.2450000  21.9370000
  96.5413975 151.2847472  21.7550378  98.0698675 152.1883870  21.6352414
  96.9400000 152.5870000  23.4450000  97.5958905 153.4381531  23.6278798
  95.9099933 152.8692496  23.6629927  97.3300000 151.4870000  24.3480000
  98.3213116 151.3691475  24.5013347  96.4860000 150.6530000  24.9630000
  95.1760000 150.7580000  24.7710000  94.8145488 151.4729898  24.1559857
  94.5472837 150.1223765  25.2408916  96.9480000 149.7110000  25.7740000
  97.9425230 149.6240056  25.9271537  96.3032241 149.0848749  26.2347930
  94.2020000 154.6110000  20.3590000  93.4370000 154.1330000  19.5140000
  94.3990000 155.9610000  20.4390000  95.2310000 156.7470000  21.3670000
  96.2767700 156.6811618  21.0667821  95.1188256 156.3576772  22.3789010
  94.6770000 158.1320000  21.2230000  95.4584616 158.8581269  21.4469567
  93.8490445 158.2635645  21.9196218  94.2200000 158.2500000  19.8430000
  95.0370615 158.5402358  19.1824906  93.4063801 158.9695419  19.7514485
  93.7230000 156.8490000  19.4720000  92.6505395 156.7624212  19.6464441
  94.0290000 156.5170000  18.0140000  95.0650000 155.8970000  17.7060000
  93.0700000 156.8670000  17.1350000  92.2350499 157.2814916  17.5237857
  93.1370000 156.6710000  15.6900000  94.1719851 156.5141117  15.3862055
  92.3240000 155.4610000  15.2810000  92.7540675 154.5631035  15.7247601
  91.2955046 155.5776440  15.6226012  92.3420000 155.3450000  13.8720000
  91.8276095 154.5788426  13.6074151  92.6160000 157.9020000  14.9830000
  91.7490000 158.5890000  15.5210000  93.1730000 158.2140000  13.8050000
  93.9520971 157.6618623  13.4759849  92.7500000 159.3740000  13.0010000
  92.0081766 159.9759984  13.5257811  93.9090000 160.2690000  12.6060000
  93.5530987 160.9644744  11.8459014  94.4630000 161.0420000  13.7730000
  94.8195481 160.3471481  14.5333643  95.2901684 161.6667045  13.4359009
  93.6809725 161.6726282  14.1958968  94.9280000 159.4820000  11.9870000
  95.6618391 160.0481104  11.7368010  92.0170000 158.8910000  11.7890000
  91.4240000 159.6880000  11.0630000  92.0260000 157.5710000  11.6060000
  92.5865958 157.0301014  12.2488533  91.3910000 156.8810000  10.4980000
  91.7400702 157.3046979   9.5563370  91.7320000 155.3640000  10.5170000
  91.2525630 154.9561933  11.4069063  91.2684797 154.9374833   9.6274313
  93.2200000 155.0130000  10.5340000  93.6788859 155.5561910  11.3601162
  93.2166265 153.9463752  10.7584980  94.0140000 155.2600000   9.2630000
  94.3350000 156.4360000   8.9680000  94.3670000 154.2620000   8.5920000
  89.8740000 157.1260000  10.4690000  89.1550000 156.6820000  11.3600000
  89.4150000 157.8540000   9.4410000  90.1295257 158.2825921   8.8701575
  88.0190000 158.1760000   9.1600000  87.9538533 158.7528162   8.2374285
  87.1790000 156.8820000   8.9960000  87.7813469 156.0696374   8.5893743
  86.8185199 156.6055687   9.9868279  85.9680000 157.0010000   8.1160000
  84.6830000 156.9400000   8.6400000  83.8650000 157.0380000   7.6060000
  82.7936679 157.0083674   7.8046663  84.5380000 157.1600000   6.4650000
  84.1600305 157.2601573   5.5337603  85.8820000 157.1260000   6.7740000
  86.6256722 157.1968042   5.9802496  87.4420000 159.1190000  10.2010000
  86.2370000 159.0960000  10.4340000  88.2860000 159.9880000  10.8010000
  89.2788778 159.9426548  10.6214539  87.8040000 160.9320000  11.8220000
  87.2293422 160.3833672  12.5682370  88.9460000 161.6540000  12.5220000
  89.5964750 160.9169106  12.9928298  89.5138736 162.2199806  11.7835654
  88.4420000 162.5380000  13.5090000  89.1731643 162.9854382  13.9412010
  86.8040000 161.9180000  11.2710000  86.9440000 162.3940000  10.1400000
  85.7520000 162.1710000  12.0530000  85.6333498 161.6337378  12.8999775
  84.6960000 163.0990000  11.6700000  84.5765331 163.0868169  10.5866356
  83.3590000 162.7120000  12.3150000  83.5770376 162.7092644  13.3829660
  82.5346599 163.3964444  12.1147519  82.8660000 161.3330000  11.9730000
  82.9040000 160.7260000  10.7530000  83.3772722 161.2815459   9.9433816
  82.3090000 159.4900000  10.8180000  82.3173783 158.7973439  10.0829783
  81.7830000 159.3140000  12.0720000  81.0970000 158.2240000  12.6240000
  80.8766515 157.3714761  11.9815452  80.7430000 158.2990000  13.9490000
  80.1878027 157.4789421  14.4043690  81.0790000 159.4070000  14.7320000
  80.8003454 159.4499303  15.7849046  81.7740000 160.4820000  14.1980000
  82.0593965 161.2936199  14.8672703  82.1320000 160.4490000  12.8350000
  85.0710000 164.5480000  11.9600000  84.4340000 165.4300000  11.4150000
  86.1090000 164.7960000  12.7920000  86.5530354 163.9872155  13.2028522
  86.6070000 166.1350000  13.1680000  86.0735257 166.8890640  12.5893016
  86.3980000 166.4280000  14.6750000  87.0625558 165.9003238  15.3591219
  86.5403773 167.5027765  14.7876242  84.9910000 166.1300000  15.1250000
  83.9670000 167.0350000  14.8960000  84.1950238 167.9920286  14.4267439
  82.6570000 166.7320000  15.2590000  81.8638653 167.4605650  15.0909791
  82.3640000 165.5170000  15.8280000  81.3394110 165.2850828  16.1187433
  83.3570000 164.5980000  16.0300000  83.1222682 163.6344287  16.4822516
  84.6650000 164.8920000  15.6590000  85.4486461 164.1451965  15.7866055
  88.0750000 166.1690000  12.8000000  88.9010000 165.5910000  13.5170000
  88.4050000 166.7560000  11.6210000  87.5400000 167.4640000  10.6550000
  87.4336671 168.5071869  10.9525814  86.5575498 166.9927096  10.6271421
  88.2800000 167.3080000   9.3750000  88.0182942 168.1150144   8.6906486
  88.0360162 166.3498144   8.9162477  89.7270000 167.3640000   9.7590000
  90.0747371 168.3966032   9.7891418  90.3457387 166.7928550   9.0668617
  89.8040000 166.7460000  11.1630000  90.1219992 165.7060939  11.0883664
  90.7400000 167.4960000  12.1000000  90.4950000 168.6570000  12.4500000
  91.7780000 166.8000000  12.5270000  91.9099876 165.8539190  12.1989615
  92.7460000 167.3460000  13.4580000  93.7530404 167.1991567  13.0676080
  92.5618333 168.4115402  13.5951350  92.6310000 166.6530000  14.7910000
  93.5110000 166.8100000  15.6410000  91.5500000 165.8540000  14.9660000
  90.8646962 165.8411161  14.2241833  91.2780000 165.0780000  16.1740000
  92.0458118 165.2907213  16.9178508  89.9040000 165.4240000  16.7730000
  89.1097585 165.2933299  16.0380136  89.7619389 164.7169181  17.5902844
  89.8620000 166.8280000  17.3120000  90.3150000 167.1150000  18.5950000
  90.6474213 166.2935871  19.2297254  90.3490000 168.4240000  19.0740000
  90.7064566 168.6300629  20.0828928  89.9350000 169.4650000  18.2600000
  89.9700000 170.7640000  18.7030000  90.3010401 170.8454736  19.6004264
  89.4700000 169.1990000  16.9840000  89.1262888 170.0125577  16.3451832
  89.4420000 167.8880000  16.5170000  89.0854733 167.6760150  15.5090064
  91.3660000 163.5970000  15.9290000  90.9900000 163.1080000  14.8580000
  91.8280000 162.8770000  16.9570000  92.1197988 163.3838541  17.7804389
  91.9400000 161.4310000  16.9640000  91.7442308 160.9970339  15.9834659
  93.3260000 161.0170000  17.4080000  93.5331346 161.4364643  18.3925024
  93.3824831 159.9296007  17.4577266  94.0622305 161.3862795  16.6940697
  90.9110000 160.8860000  17.9170000  90.7300000 161.4190000  19.0140000
  90.2390000 159.8240000  17.5030000  90.4028459 159.4863886  16.5653047
  89.2040000 159.1700000  18.3050000  88.9166150 159.8213242  19.1304004
  87.9610000 158.8720000  17.4610000  87.1664575 158.3364127  17.9805649
  87.5877488 159.8401133  17.1270235  88.2730000 158.0830000  16.2250000
  88.5880000 158.5750000  14.9900000  88.5744606 159.6584695  14.8716350
  88.8650000 157.5450000  14.1310000  89.1430599 157.6451437  13.1652084
  88.7410000 156.3570000  14.8050000  88.9210000 155.0460000  14.3680000
  89.1343217 154.8701971  13.3136349  88.8160000 154.0460000  15.3100000
  89.0021193 153.0130135  15.0160639  88.4760000 154.3220000  16.6370000
  88.3711515 153.5203880  17.3681118  88.2630000 155.6170000  17.0610000
  87.9662307 155.7761673  18.0976747  88.4100000 156.6640000  16.1390000
  89.6820000 157.8910000  18.9930000  90.5690000 157.1750000  18.5090000
  89.0680000 157.6120000  20.1360000  88.5065869 158.3507046  20.5350365
  89.3290000 156.4330000  20.9430000  89.5019326 155.5449932  20.3350219
  90.5450000 156.6230000  21.9070000  91.3476056 155.9835321  21.5395692
  91.0510000 158.0750000  22.0080000  90.2490267 158.7150300  22.3758315
  91.8950346 158.1191304  22.6963003  91.3673673 158.4193791  21.0234111
  90.2180000 156.1210000  23.2000000  90.9672965 156.2397487  23.7882634
  87.9660000 156.0030000  21.5540000  87.2520000 156.8440000  22.1000000
  87.5850000 154.7180000  21.3930000  88.1733952 154.1165680  20.8342783
  86.3110000 154.1840000  21.8820000  85.4583896 154.7373638  21.4883717
  86.1560000 152.6790000  21.5340000  87.0281116 152.1493049  21.9173338
  84.9010000 152.0840000  22.1340000  84.0283757 152.6129132  21.7507530
  84.8334665 151.0298980  21.8649108  84.9357152 152.1799168  23.2192161
  86.1860000 152.4300000  20.0340000  85.1598826 152.3525385  19.6745788
  86.6765117 153.2755075  19.5516985  86.9250000 151.1720000  19.7060000
  86.4347721 150.3259320  20.1876072  86.9282468 151.0229140  18.6262491
  87.9514013 151.2489003  20.0647292  86.1230000 154.4380000  23.3820000
  87.0270000 154.1530000  24.1820000  84.9260000 154.9810000  23.7410000
  84.3091966 155.2144154  22.9760358  84.4840000 155.2790000  25.1050000
  85.2449100 154.9930147  25.8311732  84.2000000 156.7570000  25.2590000
  83.4332507 157.0565533  24.5445328  83.8500404 156.9566665  26.2717990
  85.1118029 157.3241530  25.0717780  83.2380000 154.4580000  25.4080000
  82.3600000 154.3000000  24.5500000  83.2030000 153.8620000  26.5950000
  83.9579090 154.0325005  27.2439540  82.0940000 153.0280000  27.0310000
  81.2504733 153.1489875  26.3513502  82.5040000 151.5630000  27.0410000
  83.2829476 151.4811140  27.7990466  81.6211741 151.0130952  27.3670722
  83.0050000 150.9840000  25.7410000  82.2739380 150.7802265  24.9586154
  83.7405442 151.6992393  25.3728839  83.7070000 149.7100000  26.0820000
  84.9270000 149.7150000  26.2990000  82.9320000 148.6260000  26.2890000
  83.3589222 147.7408773  26.5222308  81.9281419 148.7041567  26.2098690
  81.7230000 153.3720000  28.4550000  82.5830000 153.8220000  29.2260000
  80.4680000 153.0660000  28.8350000  79.8282540 152.7355733  28.1267327
  79.9690000 153.2420000  30.1820000  80.0997520 154.2788646  30.4917014
  78.4890000 152.8970000  30.2510000  77.9042209 153.6013891  29.6594185
  78.3149657 151.8847084  29.8862017  77.8010000 152.9530000  31.9210000
  76.5636891 152.6109980  31.5731572  80.7960000 152.3740000  31.1420000
  80.9900000 151.1820000  30.8740000  81.3370000 152.9940000  32.2260000
  81.1628051 153.9844069  32.3200725  82.1610000 152.3280000  33.2530000
  83.0522831 151.9065971  32.7880987  82.5980000 153.3230000  34.3410000
  83.0895935 154.1469388  33.8237380  81.6836064 153.6841091  34.8117276
  83.5370000 152.7610000  35.4140000  82.9576862 152.1108125  36.0695552
  84.3132529 152.1779454  34.9184390  84.1780000 153.8610000  36.2330000
  83.4105965 154.4093871  36.7793172  84.8877402 153.4297486  36.9389677
  84.8930000 154.7970000  35.3610000  85.2062960 154.4500962  34.4656773
  85.1530000 156.0580000  35.6770000  84.7940000 156.5400000  36.8660000
  84.3219162 155.9414309  37.5285345  84.9955679 157.5017661  37.0994011
  85.7710000 156.8520000  34.8070000  86.0423230 156.4915582  33.9033598
  85.9660999 157.8116937  35.0540279  81.3780000 151.2070000  33.9020000
  81.9400000 150.1490000  34.1860000  80.0820000 151.4260000  34.1000000
  79.6965605 152.3360853  33.8919604  79.2330000 150.4550000  34.7600000
  79.7536743 149.8793210  35.5252392  77.9770000 151.1150000  35.3770000
  77.3621394 151.5235530  34.5750453  77.1760000 150.1040000  36.1590000
  77.7900914 149.6953159  36.9614772  76.2968196 150.5872949  36.5851088
  76.8614444 149.2977757  35.4963113  78.3360000 152.3620000  36.2170000
  78.8055261 153.0564581  35.5203122  77.3827660 152.7719006  36.5508052
  79.2480000 152.1550000  37.4190000  80.2016665 151.7455250  37.0859080
  79.4170853 153.1101435  37.9162026  78.7789069 151.4609652  38.1164003
  78.8690000 149.2560000  33.8820000  79.2110000 148.1380000  34.2510000
  78.1370000 149.4760000  32.7750000  77.8763740 150.4247202  32.5467383
  77.6140000 148.3930000  31.9410000  77.6526134 147.4453244  32.4781398
  76.1710000 148.6910000  31.5880000  75.7100776 147.8485279  31.0723542
  75.5902615 148.9334106  32.4779887  76.0060000 150.0980000  30.4880000
  74.6791200 150.0563342  30.4070581  78.4060000 148.1000000  30.6980000
  78.0740000 147.1480000  30.0050000  79.3620000 148.9440000  30.3580000
  79.5468216 149.7531363  30.9335334  80.1740000 148.7460000  29.1610000
  81.0989766 149.3010908  29.3171784  80.3951510 147.6799935  29.1078803
  79.5470000 149.1880000  27.8460000  80.1080000 148.9290000  26.7720000
  78.4160000 149.8990000  27.9250000  78.0429375 150.0890664  28.8441292
  77.6900000 150.3990000  26.7700000  77.3748347 149.5753763  26.1293644
  76.4470000 151.1460000  27.2520000  76.0084594 150.6252612  28.1032417
  76.8026708 152.1259879  27.5701542  75.3840000 151.3370000  26.2060000
  75.1320000 150.4590000  25.3610000  74.7010000 152.4690000  26.2830000
  73.9717633 152.6619204  25.6113637  74.9124968 153.1341771  27.0130064
  78.5580000 151.3340000  25.9470000  79.1880000 152.2010000  26.5360000
  78.5970000 151.1730000  24.5920000  78.1610749 150.3711279  24.1594843
  79.3790000 152.0810000  23.7450000  80.3362816 152.2661923  24.2322524
  79.6430000 151.5260000  22.3430000  80.3030113 150.6655159  22.4527787
  78.7324293 151.2213422  21.8271079  80.3480000 152.4960000  21.4350000
  79.7550000 152.9560000  20.2600000  80.6380000 153.7830000  19.7150000
  80.3801565 154.2307447  18.7552394  81.7240000 153.9160000  20.4800000
  82.5367872 154.4894395  20.3049459  81.5460000 153.1130000  21.5870000
  82.3099606 153.0783921  22.3637031  78.6930000 153.4390000  23.7110000
  77.5700000 153.5680000  23.2160000  79.3460000 154.4270000  24.3160000
  80.2418623 154.2182976  24.7331013  78.8050000 155.7670000  24.4790000
  77.7179936 155.7478986  24.4005697  79.1830000 156.3030000  25.8470000
  80.2711506 156.3152232  25.9092748  78.8039359 157.3223473  25.9200858
  78.6230000 155.4750000  26.9810000  78.9860298 154.4562290  26.8452948
  79.0265226 155.8835615  27.9074713  76.8360000 155.4550000  27.0760000
  76.4740000 157.1510000  27.2390000  76.8522374 157.6889633  26.3697296
  75.3948610 157.2876284  27.3089451  76.9480511 157.5392291  28.1404738
  79.2360000 156.7310000  23.4040000  78.5790000 157.7480000  23.1750000
  80.3210000 156.4080000  22.7480000  80.8066728 155.5496262  22.9657516
  80.8550000 157.2500000  21.7080000  80.4979549 156.9118143  20.7352470
  80.5452265 158.2825357  21.8692757  82.3520000 157.1810000  21.7290000
  82.9230000 156.0910000  21.8270000  82.9910000 158.3420000  21.6330000
  82.4398896 159.1878538  21.6028686  84.4410000 158.4600000  21.5670000
  84.9069245 157.5811345  22.0126557  84.8990000 158.5690000  20.0960000
  84.5634919 159.4962411  19.6315030  85.9883670 158.5327093  20.0880902
  84.4270000 157.4540000  19.2160000  85.0870000 156.2970000  18.9320000
  86.0799114 156.1763230  19.3652017  84.3150000 155.5000000  18.1220000
  84.5756814 154.5861577  17.7798934  83.1270000 156.1350000  17.8700000
  82.0160000 155.7240000  17.1170000  82.0724259 154.7771326  16.5800112
  80.9110000 156.5550000  17.1050000  80.0129776 156.2515460  16.5668816
  80.9190000 157.7900000  17.7750000  80.0474542 158.4442112  17.7523043
  82.0360000 158.2150000  18.4860000  81.9853474 159.1785523  18.9930523
  83.1630000 157.3720000  18.5510000  84.9620000 159.6790000  22.2990000
  84.2250000 160.6410000  22.5570000  86.2650000 159.6400000  22.6020000
  86.7744846 158.7915561  22.4003377  86.9890000 160.7560000  23.1750000
  86.2676986 161.4891355  23.5360204  87.8950000 160.3450000  24.3410000
  87.2980816 159.7844310  25.0604095  88.6886702 159.7068094  23.9525408
  88.5110000 161.5610000  25.0290000  88.8834250 162.2232671  24.2474613
  87.7146136 162.0615926  25.5797067  89.6370000 161.2160000  25.9750000
  89.3026468 160.4337244  26.6564337  90.4887293 160.8552100  25.3983830
  90.0460000 162.4320000  26.7680000  90.5599180 163.1178183  26.0944704
  89.1419726 162.9070135  27.1490456  90.9450000 162.0880000  27.9080000
  91.7829448 161.6482193  27.5550961  91.1917573 162.9300804  28.4081114
  90.4688262 161.4528481  28.5324515  87.8320000 161.2550000  22.0230000
  88.5970000 160.4840000  21.4060000  87.6750000 162.5350000  21.7130000
  86.9532926 163.0986477  22.1390741  88.4680000 163.1210000  20.6590000
  88.9598859 162.3289292  20.0944016  87.6140000 163.9310000  19.7110000
  86.9807245 164.6260330  20.2623534  88.2480633 164.4873468  19.0206798
  86.6980000 163.0900000  18.8700000  87.1270000 162.5760000  17.6490000
  88.1450625 162.7738824  17.3136030  86.2650000 161.8120000  16.8550000
  86.6011982 161.4388601  15.8876127  84.9890000 161.5310000  17.2970000
  84.3249786 160.9234862  16.6820996  84.5520000 162.0160000  18.5130000
  83.5448443 161.7894645  18.8628845  85.4050000 162.8000000  19.2970000
  85.0596253 163.1912983  20.2539231  89.5840000 163.9190000  21.2730000
  89.3630000 164.7000000  22.2020000  90.7920000 163.6550000  20.8060000
  90.8766267 162.9619584  20.0761842  92.0070000 164.2600000  21.3260000
  91.7952783 165.0806426  22.0114333  92.8270000 163.1920000  22.0750000
  93.8296910 163.5887252  22.2341232  92.2090000 162.8170000  23.4200000
  91.2064026 162.4197356  23.2616363  92.8261350 162.0612777  23.9059293
  92.1526789 163.7019168  24.0539170  92.9490000 162.0130000  21.2600000
  93.4603672 161.3504510  21.7302476  92.7750000 164.8730000  20.1760000
  93.0020000 164.1930000  19.1750000  93.1680000 166.1550000  20.3070000
  92.8888043 166.6454853  21.1445997  93.9000000 166.8970000  19.2800000
  93.2888815 166.8810372  18.3775708  94.0880000 168.3370000  19.7120000
  94.7056566 168.3699400  20.6095050  94.5774883 168.8953189  18.9140141
  93.1162987 168.7831768  19.9237125  95.2460000 166.2700000  18.9330000
  95.9390000 165.7630000  19.8170000  95.6070000 166.3000000  17.6360000
  94.9166545 166.6115866  16.9678411  96.8710000 165.7520000  17.1270000
  97.3190995 165.0492672  17.8294761  96.6740000 165.0420000  15.7820000
  97.6565533 164.8791533  15.3390890  95.9560000 163.7040000  15.9320000
  94.9731164 163.8661015  16.3744506  95.8408294 163.2409958  14.9519684
  96.5404223 163.0477452  16.5768881  95.9530000 165.9000000  14.8920000
  95.8293097 165.4561647  14.0497938  97.9810000 166.8120000  17.1000000
  99.1440000 166.4680000  16.8950000  97.6240000 168.0830000  17.3350000
  96.6382772 168.2856405  17.4209457  98.5670000 169.1950000  17.3980000
  99.5816501 168.8033493  17.4700701  98.4720000 170.0840000  16.1510000
  97.4309538 170.3924135  16.0550672  99.0946204 170.9599789  16.3329474
  98.9220000 169.3980000  14.8580000  99.9568838 169.6806846  14.6651123
  98.8619887 168.3197742  15.0060874  98.0480000 169.8000000  13.6560000
  97.8629120 170.8716334  13.7297783  98.6196642 169.5919710  12.7515535
  96.7200000 169.0590000  13.5980000  96.9254744 168.0229425  13.3288056
  96.2727592 169.0938942  14.5914069  95.7760000 169.6520000  12.6070000
  96.1900570 169.6193714  11.6863525  94.9136359 169.1262357  12.6071521
  95.5851371 170.6119060  12.8565011  98.3330000 170.0120000  18.6730000
  97.1920000 170.3270000  19.0320000  99.4370000 170.3340000  19.3560000
 100.2818969 169.9365851  18.9708897  99.5340000 171.0980000  20.6080000
  99.0687736 170.5549277  21.4306397 101.0240000 171.3060000  20.9360000
 101.0882391 172.0043019  21.7704741 101.4377999 170.3432272  21.2358970
 101.8260000 171.8600000  19.7390000 101.6567354 171.1800949  18.9040273
 101.4050030 172.8371551  19.5022905 103.3280000 171.9990000  19.9860000
 103.4714970 172.6756746  20.8283889 103.7219606 171.0149183  20.2399247
 104.0610000 172.5390000  18.7740000 103.6111409 173.4958859  18.5092422
 105.1031226 172.6930856  19.0538879 103.9920000 171.6170000  17.6040000
 103.0264497 171.4744291  17.3442194 104.4936363 172.0217277  16.8264034
 104.4091823 170.7304109  17.8489853  98.7810000 172.4600000  20.6340000
  98.3210000 172.8870000  21.6940000  98.6710000 173.1250000  19.4720000
  99.0995930 172.6778313  18.6742234  98.0750000 174.4560000  19.2880000
  98.2142948 175.0630431  20.1825361  98.7660000 175.1600000  18.1020000
  98.1687654 176.0372921  17.8534669  99.7464403 175.4772964  18.4571898
  98.9320000 174.2930000  16.8640000  97.9220000 173.6990000  16.4090000
 100.0700000 174.2140000  16.3430000  96.5550000 174.4950000  19.0940000
  95.9820000 175.5850000  18.9880000  95.9120000 173.3160000  19.0260000
  96.4649189 172.4758609  19.1184465  94.4770000 173.1780000  18.7780000
  94.1525690 173.9325796  18.0614434  94.1620000 171.8000000  18.2100000
  94.4260233 171.0700070  18.9751805  93.0873888 171.7652639  18.0308235
  94.8930000 171.4770000  16.9360000  94.7292892 172.2775763  16.2146283
  95.9591322 171.3897136  17.1453928  94.2970000 169.9260000  16.2440000
  92.6190000 170.4490000  15.7210000  92.6997741 171.2588283  14.9959119
  92.1001297 169.6051895  15.2661834  92.0582710 170.7942971  16.5895932
  93.6180000 173.3960000  20.0000000  93.9490000 172.9120000  21.0800000
  92.4750000 174.0770000  19.8050000  92.3266656 174.4499350  18.8781690
  91.4680000 174.3480000  20.8310000  91.7056184 173.7856909  21.7340200
  91.4300000 175.8270000  21.1760000  92.3891184 176.1269410  21.5981689
  91.2336906 176.4062009  20.2737312  90.4020000 176.0650000  22.1230000
  90.3779302 176.9995969  22.3410574  90.0780000 173.8830000  20.3490000
  89.6310000 174.3490000  19.2990000  89.3720000 172.9740000  21.0660000
  88.0330000 172.5430000  20.6170000  88.1196745 172.0909265  19.6289629
  87.3809134 173.4146490  20.5612313  87.5880000 171.5600000  21.6650000
  87.7410130 170.5473702  21.2918151  86.5289910 171.7142730  21.8718845
  88.4060000 171.8210000  22.8720000  88.5635530 170.9124172  23.4531656
  87.9399042 172.5784916  23.5021276  89.7460000 172.3370000  22.3390000
  90.1145231 173.1219718  22.9993849  90.8090000 171.2560000  22.1940000
  90.9310000 170.6340000  21.1510000  91.5960000 171.0450000  23.2300000
  91.5793210 171.6617617  24.0296413  92.6410000 170.0310000  23.1610000
  93.0915634 170.0179813  22.1685675  93.7420000 170.3560000  24.2000000
  93.8473662 171.4408406  24.1891324  93.3415833 170.0400008  25.1632814
  95.1230000 169.7030000  23.9780000  95.7948328 170.1525739  24.7091804
  95.0055250 168.6418227  24.1975550  95.7380000 169.8470000  22.6040000
  95.5150000 170.8180000  21.8640000  96.5370000 168.8570000  22.2310000
  96.9829257 168.8859785  21.3252340  96.6960954 168.0783740  22.8543229
  92.0380000 168.5740000  23.2510000  92.6080000 167.6140000  22.7180000
  90.8440000 168.4560000  23.8590000  90.5196913 169.2962723  24.3160182
  90.0320000 167.2380000  23.9830000  90.1326014 166.6615639  23.0633806
  90.4530000 166.3400000  25.1810000  89.9236746 165.3939000  25.0678248
  91.5253802 166.1693582  25.0862256  90.1490000 166.9350000  26.5680000
  90.7905044 167.8093346  26.6780542  89.1058439 167.2505133  26.5485392
  90.3730000 165.9860000  27.7490000  89.6994899 166.3125570  28.5413659
  90.0788229 164.9930140  27.4090911  91.7940000 165.9380000  28.2810000
  92.4404006 165.5541693  27.4917340  92.0966905 166.9535883  28.5360647
  91.9110000 165.0660000  29.4880000  91.6309761 164.1247905  29.2517565
  92.8687034 165.0618518  29.8087599  91.3124315 165.4217387  30.2196180
  88.5450000 167.6240000  24.0900000  88.2030000 168.7330000  24.5380000
  87.6730000 166.7080000  23.6500000  88.0715203 165.9304752  23.1433087
  86.2190000 166.7930000  23.7560000  85.9621972 167.1522862  24.7525264
  85.6000000 167.7460000  22.7140000  84.5400729 167.8624668  22.9400293
  86.0918415 168.7170873  22.7704045  85.6880000 167.3010000  21.2770000
  86.7940000 167.6220000  20.4990000  87.6105877 168.1923419  20.9417127
  86.8660000 167.2210000  19.1610000  87.7319510 167.4937350  18.5578042
  85.8440000 166.4820000  18.6050000  85.9117315 166.1527460  17.5681277
  84.7390000 166.1600000  19.3580000  83.9269065 165.5840644  18.9142630
  84.6570000 166.5710000  20.6920000  83.7784609 166.3203140  21.2864959
  85.6860000 165.3720000  23.6560000  86.4780000 164.4340000  23.4750000
  84.3620000 165.2020000  23.7550000  83.7654538 166.0032751  23.9039635
  83.7440000 163.8830000  23.6880000  84.4915616 163.1443395  23.3988089
  83.1580000 163.4810000  25.0460000  82.3863816 164.1752779  25.3786897
  82.7264669 162.4866247  24.9315578  84.1540000 163.3890000  26.1510000
  84.6020000 164.4060000  26.9430000  84.2121467 165.4018948  26.7325061
  85.4880000 163.9250000  27.8750000  85.9494534 164.4720570  28.5876633
  85.6250000 162.5710000  27.6960000  86.3980000 161.6360000  28.3940000
  87.0248219 161.9884887  29.2131121  86.3170000 160.3260000  28.0000000
  86.9010063 159.5705133  28.5256200  85.5020000 159.9330000  26.9380000
  85.4426811 158.8868920  26.6376021  84.7450000 160.8560000  26.2340000
  84.1675261 160.5031906  25.3795118  84.7840000 162.2010000  26.6260000
  82.6580000 163.8580000  22.6530000  81.8170000 164.7570000  22.6110000
  82.6690000 162.8120000  21.8480000  83.4019954 162.1250416  21.9524281
  81.6700000 162.6020000  20.8130000  81.1192198 163.5242205  20.6279333
  82.1469705 162.2727873  19.8898437  80.7060000 161.5390000  21.2730000
  80.9780000 160.3540000  21.0890000  79.6050000 161.9400000  21.9200000
  79.4663826 162.9168913  22.1357958  78.6530000 160.9700000  22.4570000
  79.1372456 159.9972165  22.5424261  78.1430000 161.3960000  23.8620000
  77.4649652 162.2233810  23.6526947  77.5741502 160.5487273  24.2449346
  79.1880000 161.8390000  24.9220000  79.7907197 162.6467837  24.5068912
  78.5240000 162.3030000  26.1410000  77.9214149 161.4955608  26.5569712
  79.2742915 162.6085388  26.8702527  77.8810854 163.1509488  25.9048981
  80.1490000 160.7260000  25.2960000  80.6912289 160.3999170  24.4084432
  80.8570068 161.0912750  26.0399098  79.5901156 159.8861062  25.7087052
  77.4980000 160.6790000  21.5000000  76.8820000 161.6140000  21.0050000
  77.1970000 159.3930000  21.2440000  77.8030113 158.6744826  21.6135706
  76.1150000 158.9920000  20.3370000  75.9905324 159.7148956  19.5307563
  76.3880000 157.6190000  19.7240000  75.5494819 157.3639744  19.0759648
  77.6690000 157.5970000  18.9220000  78.5080830 157.8514921  19.5695130
  77.8207824 156.6009975  18.5060189  77.6032235 158.3226251  18.1112952
  76.4520000 156.6360000  20.7560000  76.6235532 155.7750028  20.3676011
  74.7750000 159.0830000  21.0510000  74.5980000 158.4480000  22.1010000
  73.8270000 159.8680000  20.4850000  74.0618845 160.4047062  19.6622758
  72.5280000 160.1080000  21.1250000  72.7060387 160.4349331  22.1494590
  71.6830000 161.1710000  20.4110000  70.8294609 161.3774736  21.0567081
  72.3036961 162.0636605  20.3335809  71.1940000 160.7810000  19.0440000
  71.9671780 161.0319107  18.3178179  71.0227599 159.7045775  19.0343355
  69.9110000 161.4990000  18.6830000  69.9935737 162.5410214  18.9919855
  69.7742839 161.4506535  17.6026895  68.7420000 160.9110000  19.3290000
  68.4067721 161.3547706  20.1720832  68.0840000 159.8540000  18.8640000
  68.5040000 159.2280000  17.7700000  69.3285249 159.5573180  17.2885351
  67.9968318 158.4256701  17.4248235  67.0180000 159.3980000  19.5040000
  66.7052467 159.8560367  20.3480899  66.5226986 158.5943029  19.1450485
  71.6900000 158.8450000  21.3880000  70.8220000 158.8780000  22.2680000
  71.9600000 157.7410000  20.6950000  72.6330879 157.7446577  19.9419803
  71.2240000 156.5090000  20.9590000  70.1634365 156.7342069  21.0711874
  71.3930000 155.5160000  19.8130000  70.8509881 154.6099843  20.0840311
  70.9381224 155.9596844  18.9273756  72.7480000 155.1920000  19.5370000
  72.7856837 154.5663932  18.8098164  71.6580000 155.8820000  22.2860000
  70.9100000 155.0870000  22.8420000  72.8540000 156.2530000  22.8000000
  73.3781541 156.9548533  22.2972438  73.4440000 155.6830000  24.0180000
  73.1048697 154.6548618  24.1445766  74.9550000 155.6820000  23.8840000
  75.3104616 156.7055931  23.7656606  75.3992844 155.2447344  24.7781535
  75.2425373 155.0949540  23.0117623  73.0540000 156.4480000  25.2400000
  73.3210000 156.0220000  26.3660000  72.4450000 157.6090000  24.9990000
  72.3105624 157.8199721  24.0204722  72.0590000 158.6090000  25.9780000
  72.5256520 158.3992246  26.9404601  72.5240000 159.9930000  25.4980000
  72.1745449 160.0296286  24.4661867  72.0257607 160.7701197  26.0776056
  74.0220000 160.2200000  25.5320000  74.5206240 159.3379633  25.1301464
  74.3940000 161.4100000  24.7240000  73.8960891 162.2925717  25.1255605
  75.4738309 161.5532928  24.7631549  74.0853863 161.2584256  23.6896484
  74.5260000 160.3450000  26.9440000  74.3024891 159.4299416  27.4924620
  75.6038219 160.5070846  26.9326071  74.0373634 161.1886666  27.4314012
  70.5880000 158.6180000  26.3050000  69.7570000 158.2130000  25.4910000
  70.2780000 159.1050000  27.5140000  71.0486492 159.4392097  28.0748057
  68.9390000 159.1920000  28.0640000  68.2003679 159.2291631  27.2632874
  68.6660000 157.9540000  28.9250000  69.1445673 157.1353477  28.3875235
  69.1842839 158.1200034  29.8694177  67.2190000 157.6000000  29.1990000
  66.7126999 158.4795390  29.5967087  66.5190000 157.1440000  27.9270000
  67.0244888 156.2641595  27.5289290  65.4816258 156.8959071  28.1515117
  66.5487979 157.9448592  27.1881922  67.1430000 156.4990000  30.2340000
  67.6108430 156.8361950  31.1589443  66.0990055 156.2506432  30.4250384
  67.6643224 155.6158538  29.8647106  68.8520000 160.4350000  28.9130000
  69.5230000 160.5090000  29.9410000  67.9880000 161.4050000  28.5340000
  67.1590000 161.4790000  27.3110000  66.1788925 161.0424652  27.5031635
  67.6462864 160.9347542  26.5020207  67.0910000 162.9550000  27.0480000
  66.2218885 163.2078323  26.4406944  67.9951336 163.3088976  26.5526211
  66.9780000 163.5310000  28.4390000  65.9590032 163.5172173  28.8257229
  67.3504375 164.5553863  28.4342453  67.8800000 162.6500000  29.3140000
  68.8830038 163.0754143  29.3472299  67.3390000 162.5030000  30.7450000
  67.2860000 163.5100000  31.4730000  66.9950000 161.2570000  31.1580000
  67.0466976 160.5664517  30.4227655  66.4660000 160.8400000  32.4770000
  65.3772031 160.8019066  32.4428038  66.9960000 159.4430000  32.8540000
  66.3218307 158.6761492  32.4725096  67.9891097 159.2969825  32.4291328
  67.0750000 159.3390000  34.4020000  67.7684832 160.1301173  34.6871583
  66.0709853 159.5980949  34.7380452  67.5060000 158.0260000  35.0520000
  68.4547450 157.6662376  34.6538130  67.5768404 158.1119609  36.1362932
  66.4620000 157.0540000  34.7260000  65.5441510 157.4742215  34.7586568
  66.5590000 155.7660000  34.4130000  67.7680000 155.1860000  34.3660000
  68.5941897 155.7306115  34.5682596  67.8463770 154.2074371  34.1285736
  65.4180000 155.1010000  34.1530000  64.5328737 155.5851396  34.2005431
  65.4521299 154.1208816  33.9115422  66.7060000 161.8240000  33.6480000
  67.8460000 162.1530000  33.9780000  67.7690000 161.4120000  33.0900000
  83.9310000 154.5880000  13.9850000  84.7510000 153.4760000  13.6870000
  82.5990000 154.3440000  14.3460000  84.2260000 152.1690000  13.6270000
  82.0790000 153.0480000  14.3420000  82.8800000 151.9720000  13.9670000
  84.0970000 156.2420000  11.6000000  84.5260000 156.6160000  12.6880000
  84.4250000 155.9300000  13.8960000  85.0990000 157.8640000  12.7800000
  85.1490000 156.4790000  15.0410000  85.0860000 158.6490000  13.9020000
  84.8170000 157.9460000  15.2040000  85.2120000 159.8690000  13.8290000
  85.5520000 158.2180000  11.9810000  86.1030000 153.6370000  13.4770000
  86.3900000 153.6060000  12.0770000  85.0700000 150.9860000  13.1990000
  85.2260000 149.9540000  14.2350000  85.4980000 148.6180000  13.6460000
  86.1160000 150.3130000  15.3480000  86.9590000 148.3280000  13.2160000
  87.5830000 150.5550000  14.9910000  87.8960000 148.0990000  14.3150000
  88.4470000 149.2960000  14.9340000  88.6740000 147.5470000  13.9530000
  84.9570000 147.4930000  14.5460000  84.0230000 147.5180000  15.3330000
  85.6150000 146.3220000  14.3550000  86.3340000 146.2810000  13.7560000
