LIG
    35
  88.3080000 149.1460000  16.4680000  88.7260000 148.9680000  15.0740000
  86.8710000 149.0050000  16.7030000  87.7030000 149.5960000  14.1300000
  86.1660000 148.1890000  15.6230000  86.3670000 148.8450000  14.2500000
  86.2880000 147.8110000  13.2110000  85.0960000 149.5290000  13.6370000
  85.4260000 148.6610000  12.4130000  85.0050000 151.1110000  13.5450000
  83.8120000 151.7800000  13.8760000  86.0640000 151.9350000  13.1290000
  83.6850000 153.1760000  13.8030000  85.9530000 153.3340000  13.0790000
  84.7690000 153.9890000  13.4370000  84.7190000 155.4230000  13.4470000
  85.0880000 156.1780000  12.3330000  84.1130000 156.1160000  14.5790000
  85.4660000 155.7380000  11.2490000  84.9990000 157.5400000  12.4910000
  84.8860000 157.3750000  14.9120000  85.0130000 158.2170000  13.6790000
  85.2010000 159.4290000  13.7240000  84.9170000 158.0790000  11.6720000
  82.4450000 153.6970000  14.0860000  81.8080000 152.9050000  15.0920000
  89.1860000 148.4970000  17.4460000  94.2750000 148.5050000  18.6750000
  92.7730000 149.3200000  18.4590000  91.6360000 148.6190000  18.0540000
  92.7010000 150.6920000  18.6920000  91.7140000 147.2980000  17.8240000
  90.4090000 149.2720000  17.8800000  91.4900000 151.3610000  18.5120000
  90.3530000 150.6560000  18.1060000
