LIG
    35
  86.1140000 148.5630000  15.5780000  85.1050000 148.9020000  16.5850000
  85.6430000 148.6020000  14.1940000  84.0920000 149.9240000  16.0770000
  84.1530000 148.2800000  14.1110000  83.3670000 149.3820000  14.8330000
  82.0450000 148.8710000  15.2130000  82.6750000 150.4240000  13.8900000
  81.4150000 150.0690000  14.6930000  83.2230000 151.9140000  13.7950000
  84.4520000 152.2620000  13.2120000  82.4660000 152.9880000  14.2980000
  84.8940000 153.5940000  13.1320000  82.9150000 154.3180000  14.2480000
  84.1510000 154.6490000  13.6840000  84.6170000 156.0070000  13.7250000
  84.6180000 156.8200000  12.5910000  85.2510000 156.5150000  14.9380000
  84.2640000 156.4950000  11.4600000  85.0780000 158.1000000  12.7890000
  84.8340000 157.9470000  15.2000000  85.1000000 158.7720000  13.9790000
  85.2460000 159.9900000  14.0240000  85.4220000 158.5780000  12.0000000
  86.0810000 153.8020000  12.4690000  86.6710000 152.5430000  12.1320000
  87.4480000 149.1310000  15.8010000  91.2040000 152.0450000  13.5920000
  89.9660000 150.8510000  13.4980000  89.2530000 150.4750000  14.6370000
  89.6780000 150.2620000  12.2690000  89.5450000 151.0430000  15.8180000
  88.2370000 149.5130000  14.5700000  88.6840000 149.2880000  12.1870000
  87.9730000 148.9110000  13.3290000
