LIG
    34
  90.8870000 151.2730000   4.6320000  89.9670000 151.7400000   5.2990000
  90.2630000 152.4350000   6.4350000  88.5050000 151.6630000   4.9010000
  89.2900000 152.8060000   7.4290000  87.5130000 150.9900000   5.8890000
  88.3410000 150.8960000   3.5820000  88.7330000 151.5660000   8.0790000
  87.9180000 150.6870000   7.3290000  86.9870000 149.7910000   5.0760000
  87.0110000 150.2860000   3.6990000  89.0500000 151.2600000   9.4250000
  87.4000000 149.5600000   7.9880000  88.4860000 150.1520000  10.0900000
  87.6780000 149.2990000   9.3350000  91.2000000 152.6990000   6.5850000
  88.6610000 149.9030000  11.4930000  87.6650000 150.1970000  12.4230000
  89.8590000 149.2110000  11.9600000  86.5490000 150.6470000  12.1740000
  87.9930000 149.9430000  13.7330000  90.3710000 149.8410000  13.2390000
  89.2600000 149.8880000  14.2440000  89.4680000 149.9590000  15.4530000
  87.2500000 149.7850000  14.3590000  89.9630000 152.0700000  10.0660000
  89.3320000 152.7250000  11.1740000  86.7920000 149.2090000   2.7260000
  85.3530000 149.1180000   2.2690000  84.6500000 150.2670000   1.8780000
  84.6980000 147.8770000   2.2320000  83.3230000 150.1750000   1.4550000
  83.3710000 147.7880000   1.8080000  82.6840000 148.9370000   1.4190000
