LIG
    30
  83.9310000 154.5880000  13.9850000  84.7510000 153.4760000  13.6870000
  82.5990000 154.3440000  14.3460000  84.2260000 152.1690000  13.6270000
  82.0790000 153.0480000  14.3420000  82.8800000 151.9720000  13.9670000
  84.0970000 156.2420000  11.6000000  84.5260000 156.6160000  12.6880000
  84.4250000 155.9300000  13.8960000  85.0990000 157.8640000  12.7800000
  85.1490000 156.4790000  15.0410000  85.0860000 158.6490000  13.9020000
  84.8170000 157.9460000  15.2040000  85.2120000 159.8690000  13.8290000
  85.5520000 158.2180000  11.9810000  86.1030000 153.6370000  13.4770000
  86.3900000 153.6060000  12.0770000  85.0700000 150.9860000  13.1990000
  85.2260000 149.9540000  14.2350000  85.4980000 148.6180000  13.6460000
  86.1160000 150.3130000  15.3480000  86.9590000 148.3280000  13.2160000
  87.5830000 150.5550000  14.9910000  87.8960000 148.0990000  14.3150000
  88.4470000 149.2960000  14.9340000  88.6740000 147.5470000  13.9530000
  84.9570000 147.4930000  14.5460000  84.0230000 147.5180000  15.3330000
  85.6150000 146.3220000  14.3550000  86.3340000 146.2810000  13.7560000
