LIG
    37
  84.8800000 154.3830000  14.0170000  85.5930000 153.5130000  13.1420000
  84.1180000 153.8050000  15.0490000  85.4990000 152.1150000  13.2320000
  84.0600000 152.4260000  15.1520000  84.7320000 151.5900000  14.2470000
  83.3030000 151.5450000  16.1210000  84.4140000 150.1590000  14.6130000
  84.1030000 150.3270000  16.0300000  81.8890000 151.2300000  15.5200000
  83.0960000 149.7360000  13.8790000  83.8990000 149.2930000  16.9030000
  81.8380000 150.0340000  14.6220000  83.3210000 149.4180000  17.9750000
  86.2530000 155.8780000  11.9620000  85.5890000 156.4360000  12.8320000
  84.8840000 155.8120000  13.8620000  85.5060000 157.8080000  12.8110000
  84.0050000 156.6320000  14.6890000  85.2100000 158.6120000  13.8760000
  84.6980000 157.9150000  15.0990000  85.4330000 159.8190000  13.8500000
  85.6750000 158.2520000  11.9500000  86.4330000 154.0030000  12.1680000
  87.3060000 152.9620000  11.7190000  84.4190000 148.1320000  16.4270000
  85.4370000 147.4170000  17.1700000  86.7340000 147.6640000  16.3830000
  85.1560000 145.9100000  17.1870000  85.6070000 147.9880000  18.5820000
  80.6610000 150.0060000  13.7510000  79.3510000 149.9470000  14.5060000
  78.1680000 149.5700000  13.8550000  79.3030000 150.2450000  15.8770000
  76.9630000 149.5020000  14.5580000  78.0980000 150.1780000  16.5770000
  76.9280000 149.8060000  15.9170000
