LIG
    30
  84.0650000 154.8070000  13.8090000  84.8590000 153.7290000  13.3620000
  82.7630000 154.5360000  14.2580000  84.3340000 152.4220000  13.2840000
  82.2470000 153.2400000  14.2230000  83.0230000 152.1940000  13.7300000
  83.9590000 156.7160000  11.6160000  84.5150000 156.9610000  12.6820000
  84.5230000 156.1610000  13.8250000  85.1210000 158.1860000  12.8400000
  85.2130000 156.6530000  15.0110000  85.1250000 158.8920000  14.0120000
  84.8550000 158.1010000  15.2610000  85.2590000 160.1130000  14.0270000
  85.5800000 158.5790000  12.0620000  86.1830000 153.9120000  13.0340000
  86.3040000 154.5980000  11.7900000  85.1440000 151.2610000  12.7330000
  86.5900000 151.4170000  12.9440000  87.1690000 150.4350000  13.8950000
  87.3740000 151.4720000  11.7060000  86.7880000 148.9450000  13.7140000
  87.3700000 150.2370000  10.7980000  86.7450000 148.4020000  12.3440000
  87.7840000 148.9230000  11.4610000  85.8380000 148.6290000  11.9380000
  86.9380000 150.8800000  15.3410000  87.6410000 150.5840000  16.2980000
  85.8540000 151.6580000  15.5400000  85.3070000 151.8930000  14.8160000
