%VERSION  VERSION_STAMP = V0001.000  DATE = 09/06/26  21:56:05                  
%FLAG TITLE                                                                     
%FORMAT(20a4)                                                                   
LIG                                                                             
%FLAG POINTERS                                                                  
%FORMAT(10I8)                                                                   
      33      11       1      36       2      53       7      82       0       0
     150       1      36      53      82      19      38       9      13       0
       0       0       0       0       0       0       0       0      33       0
       0
%FLAG ATOM_NAME                                                                 
%FORMAT(20a4)                                                                   
N1  C1  C2  C3  C4  C5  O1  C6  C7  C8  C9  C10 C11 C12 C13 N2  C14 C15 O2  N3  
C16 C17 O3  H1  C18 Cl1 C19 C20 C21 F1  C22 C23 C24 
%FLAG CHARGE                                                                    
%FORMAT(5E16.8)                                                                 
 -1.70254593E+00  2.21164055E-01  2.21164055E-01 -5.15271977E-01 -5.15271977E-01
  4.43643760E+00 -4.85340027E+00  1.83555050E+00  3.43271687E-01  1.70023170E+00
 -8.95352710E-01 -8.95352710E-01 -6.29380020E-01 -6.29380020E-01  2.76988071E+00
 -3.00106703E+00  5.92179194E+00  3.99651484E-01 -4.59382361E+00 -4.13560565E+00
  2.65043354E-01  5.40877953E+00 -4.76706301E+00  2.94007699E+00 -3.28256512E-01
 -1.29498597E+00  2.35109581E+00  3.17785979E+00 -6.87782491E-01 -3.68990642E+00
  2.17056749E+00 -2.89570569E-01 -7.38604486E-01
%FLAG ATOMIC_NUMBER                                                             
%FORMAT(10I8)                                                                   
       7       6       6       6       6       6       8       6       6       6
       6       6       6       6       6       7       6       6       8       7
       6       6       8       1       6      17       6       6       6       9
       6       6       6
%FLAG MASS                                                                      
%FORMAT(5E16.8)                                                                 
  1.40100000E+01  1.20100000E+01  1.20100000E+01  1.20100000E+01  1.20100000E+01
  1.20100000E+01  1.60000000E+01  1.20100000E+01  1.20100000E+01  1.20100000E+01
  1.20100000E+01  1.20100000E+01  1.20100000E+01  1.20100000E+01  1.20100000E+01
  1.40100000E+01  1.20100000E+01  1.20100000E+01  1.60000000E+01  1.40100000E+01
  1.20100000E+01  1.20100000E+01  1.60000000E+01  1.00800000E+00  1.20100000E+01
  3.54500000E+01  1.20100000E+01  1.20100000E+01  1.20100000E+01  1.90000000E+01
  1.20100000E+01  1.20100000E+01  1.20100000E+01
%FLAG ATOM_TYPE_INDEX                                                           
%FORMAT(10I8)                                                                   
       1       2       2       2       2       3       4       5       2       5
       2       2       2       2       5       6       5       2       7       8
       2       5       7       9       2      10       5       5       2      11
       5       2       2
%FLAG NUMBER_EXCLUDED_ATOMS                                                     
%FORMAT(10I8)                                                                   
       9       8       7       7       6       6       3       6       3       5
       5       4       5       4       6       7       7       5       3       4
       3       2       1       1       6       6       6       5       4       2
       2       1       1
%FLAG NONBONDED_PARM_INDEX                                                      
%FORMAT(10I8)                                                                   
       1       2       4       7      11      16      22      29      37      46
      56       2       3       5       8      12      17      23      30      38
      47      57       4       5       6       9      13      18      24      31
      39      48      58       7       8       9      10      14      19      25
      32      40      49      59      11      12      13      14      15      20
      26      33      41      50      60      16      17      18      19      20
      21      27      34      42      51      61      22      23      24      25
      26      27      28      35      43      52      62      29      30      31
      32      33      34      35      36      44      53      63      37      38
      39      40      41      42      43      44      45      54      64      46
      47      48      49      50      51      52      53      54      55      65
      56      57      58      59      60      61      62      63      64      65
      66
%FLAG RESIDUE_LABEL                                                             
%FORMAT(20a4)                                                                   
LIG 
%FLAG RESIDUE_POINTER                                                           
%FORMAT(10I8)                                                                   
       1
%FLAG BOND_FORCE_CONSTANT                                                       
%FORMAT(5E16.8)                                                                 
  3.97760000E+02  6.99130000E+02  2.84580000E+02  2.82270000E+02  2.48400000E+02
  4.15540000E+02  4.24300000E+02  4.66850000E+02  3.36100000E+02  3.13870000E+02
  3.17460000E+02  4.28900000E+02  5.90600000E+02  3.36070000E+02  4.73590000E+02
  2.50880000E+02  1.96040000E+02  4.36000000E+02  3.50610000E+02
%FLAG BOND_EQUIL_VALUE                                                          
%FORMAT(5E16.8)                                                                 
  1.33100000E+00  1.20950000E+00  1.46560000E+00  1.42730000E+00  1.50880000E+00
  1.31410000E+00  1.34570000E+00  1.31850000E+00  1.41440000E+00  1.40010000E+00
  1.39670000E+00  1.33000000E+00  1.21900000E+00  1.37980000E+00  1.01320000E+00
  1.50560000E+00  1.74150000E+00  1.33790000E+00  1.33750000E+00
%FLAG ANGLE_FORCE_CONSTANT                                                      
%FORMAT(5E16.8)                                                                 
  7.67000000E+01  6.22400000E+01  1.14280000E+02  5.35800000E+01  6.33700000E+01
  7.89600000E+01  6.22200000E+01  9.09900000E+01  6.06000000E+01  6.11900000E+01
  7.80200000E+01  7.09900000E+01  6.37900000E+01  6.43200000E+01  6.44800000E+01
  6.37200000E+01  5.73200000E+01  1.47580000E+02  6.79500000E+01  7.86500000E+01
  6.81000000E+01  8.66800000E+01  7.40500000E+01  7.80000000E+01  6.96000000E+01
  7.72200000E+01  5.73700000E+01  5.79000000E+01  8.72100000E+01  6.81300000E+01
  7.58200000E+01  6.40800000E+01  8.14900000E+01  8.15000000E+01  7.08000000E+01
  6.88500000E+01  7.48600000E+01  8.13300000E+01
%FLAG ANGLE_EQUIL_VALUE                                                         
%FORMAT(5E16.8)                                                                 
  3.14159400E+00  2.55551219E+00  1.09659084E+00  3.11838111E+00  1.92614619E+00
  1.90398050E+00  1.93853803E+00  2.01219096E+00  2.19178541E+00  2.18009170E+00
  1.88862159E+00  3.13059842E+00  2.13802925E+00  2.26194768E+00  2.26561287E+00
  2.04517769E+00  3.14159400E+00  4.38775962E-01  2.18637489E+00  2.09771213E+00
  2.07484830E+00  2.13925098E+00  1.99613392E+00  3.09237569E+00  2.04273423E+00
  2.23489507E+00  2.04657396E+00  3.14159400E+00  2.14762857E+00  2.00887483E+00
  2.22843734E+00  2.14989749E+00  2.17503025E+00  2.14396337E+00  1.84079955E+00
  1.98636007E+00  2.02667720E+00  2.14012365E+00
%FLAG DIHEDRAL_FORCE_CONSTANT                                                   
%FORMAT(5E16.8)                                                                 
  0.00000000E+00  3.83333333E-01  0.00000000E+00  6.65000000E+00  6.50000000E-01
  2.50000000E+00  2.00000000E+00  1.05000000E+01  1.10000000E+00
%FLAG DIHEDRAL_PERIODICITY                                                      
%FORMAT(5E16.8)                                                                 
  2.00000000E+00  3.00000000E+00  2.00000000E+00  2.00000000E+00  2.00000000E+00
  2.00000000E+00  1.00000000E+00  2.00000000E+00  2.00000000E+00
%FLAG DIHEDRAL_PHASE                                                            
%FORMAT(5E16.8)                                                                 
  3.14159400E+00  0.00000000E+00  0.00000000E+00  3.14159400E+00  3.14159400E+00
  3.14159400E+00  0.00000000E+00  3.14159400E+00  3.14159400E+00
%FLAG SCEE_SCALE_FACTOR                                                         
%FORMAT(5E16.8)                                                                 
  1.20000000E+00  1.20000000E+00  1.20000000E+00  1.20000000E+00  1.20000000E+00
  1.20000000E+00  1.20000000E+00  0.00000000E+00  0.00000000E+00
%FLAG SCNB_SCALE_FACTOR                                                         
%FORMAT(5E16.8)                                                                 
  2.00000000E+00  2.00000000E+00  2.00000000E+00  2.00000000E+00  2.00000000E+00
  2.00000000E+00  2.00000000E+00  0.00000000E+00  0.00000000E+00
%FLAG SOLTY                                                                     
%FORMAT(5E16.8)                                                                 
  0.00000000E+00  0.00000000E+00  0.00000000E+00  0.00000000E+00  0.00000000E+00
  0.00000000E+00  0.00000000E+00  0.00000000E+00  0.00000000E+00  0.00000000E+00
  0.00000000E+00  0.00000000E+00  0.00000000E+00
%FLAG LENNARD_JONES_ACOEF                                                       
%FORMAT(5E16.8)                                                                 
  7.23647490E+05  1.20705609E+06  2.00671338E+06  8.59569453E+05  1.43239677E+06
  1.02073671E+06  4.55871651E+05  7.65280989E+05  5.42502534E+05  2.83662575E+05
  7.10207765E+05  1.18640578E+06  8.43969952E+05  4.46121722E+05  6.96551276E+05
  7.16178718E+05  1.20132739E+06  8.52084164E+05  4.46307018E+05  7.01106848E+05
  7.02078680E+05  5.29641935E+05  8.92208123E+05  6.30925504E+05  3.27367585E+05
  5.17507491E+05  5.15491878E+05  3.76435470E+05  7.13532671E+05  1.19359607E+06
  8.48258258E+05  4.47026838E+05  6.99381362E+05  7.02755693E+05  5.17814271E+05
  7.01825028E+05  1.82809059E+03  3.37137075E+03  2.23577481E+03  9.46795083E+02
  1.71458823E+03  1.52360475E+03  9.87857350E+02  1.65195713E+03  1.34728399E-01
  1.51682150E+06  2.52263692E+06  1.80018612E+06  9.60982218E+05  1.49062160E+06
  1.50866868E+06  1.11993097E+06  1.49942414E+06  4.18912581E+03  3.17107030E+06
  3.89148854E+05  6.55838634E+05  4.63627012E+05  2.40318810E+05  3.80155513E+05
  3.78460396E+05  2.76207447E+05  3.80309307E+05  7.15600927E+02  8.23189596E+05
  2.02652992E+05
%FLAG LENNARD_JONES_BCOEF                                                       
%FORMAT(5E16.8)                                                                 
  4.98353106E+02  7.51664026E+02  1.13185062E+03  5.75038595E+02  8.66911122E+02
  6.63431737E+02  3.79365004E+02  5.74027680E+02  4.38146883E+02  2.87011518E+02
  5.11427129E+02  7.71958727E+02  5.90251928E+02  3.88758656E+02  5.24668528E+02
  5.82583725E+02  8.81180204E+02  6.72777963E+02  4.41089616E+02  5.97113873E+02
  6.77820248E+02  4.87196412E+02  7.38469198E+02  5.62969425E+02  3.67361018E+02
  4.98871431E+02  5.64804067E+02  4.69350655E+02  5.35211915E+02  8.08414196E+02
  6.17825399E+02  4.06301077E+02  5.48900066E+02  6.24158704E+02  5.21008860E+02
  5.74088001E+02  1.46352678E+01  2.32108730E+01  1.71355763E+01  1.01016461E+01
  1.46824710E+01  1.57004457E+01  1.22938581E+01  1.50468782E+01  7.34107347E-02
  9.55405536E+02  1.43891218E+03  1.10195051E+03  7.29357620E+02  9.81118883E+02
  1.11967364E+03  9.38113535E+02  1.02737257E+03  2.93366416E+01  1.82923847E+03
  3.62652376E+02  5.49816220E+02  4.19082844E+02  2.73330984E+02  3.71304925E+02
  4.20258854E+02  3.49131956E+02  3.87745109E+02  9.08649254E+00  6.98440575E+02
  2.59697739E+02
%FLAG BONDS_INC_HYDROGEN                                                        
%FORMAT(10I8)                                                                   
      57      69      15
%FLAG BONDS_WITHOUT_HYDROGEN                                                    
%FORMAT(10I8)                                                                   
       0       3       1       0       6       1       0      72       1       3
       9       2       6      12       2       9      15       3      12      15
       3      15      18       4      15      21       5      18      24       6
      21      27       7      21      24       8      27      30       9      27
      33       9      30      36       2      33      39       2      36      42
       8      39      42       8      42      45      10      45      48      11
      45      51      12      48      54      13      48      57      14      51
      60       2      57      63      14      60      63      16      63      66
      13      72      90       9      75      78      17      78      81      18
      78      84       8      81      87      19      81      90       7      84
      93       2      90      96       9      93      96       2
%FLAG ANGLES_INC_HYDROGEN                                                       
%FORMAT(10I8)                                                                   
      48      57      69      27      63      57      69      27
%FLAG ANGLES_WITHOUT_HYDROGEN                                                   
%FORMAT(10I8)                                                                   
       0       3       9       1       0       6      12       1       0      72
      90       2       3       0       6       3       3       0      72       3
       3       9      15       4       6       0      72       3       6      12
      15       4       9      15      12       5       9      15      18       6
       9      15      21       7      12      15      18       6      12      15
      21       7      15      18      24       8      15      21      27       9
      15      21      24      10      18      15      21      11      18      24
      21      12      21      27      30      13      21      27      33      13
      24      21      27      14      27      30      36      15      27      33
      39      15      30      27      33      16      30      36      42      17
      33      39      42      17      36      42      39      18      36      42
      45      19      39      42      45      19      42      45      48      20
      42      45      51      21      45      48      54      22      45      48
      57      23      45      51      60      24      48      45      51      25
      48      57      63      26      51      60      63      28      54      48
      57      29      57      63      60      30      57      63      66      29
      60      63      66      31      72      90      81      13      72      90
      96      16      75      78      81      32      75      78      84      33
      78      81      87      34      78      81      90      35      78      84
      93      17      81      78      84      36      81      90      96      13
      84      93      96      37      87      81      90      38      90      96
      93      15
%FLAG DIHEDRALS_INC_HYDROGEN                                                    
%FORMAT(10I8)                                                                   
      45      48      57      69       6      54      48      57      69       7
      54      48     -57      69       6      60      63      57      69       6
      66      63      57      69       7      66      63     -57      69       6
      48      63     -57     -69       9
%FLAG DIHEDRALS_WITHOUT_HYDROGEN                                                
%FORMAT(10I8)                                                                   
       0       3       9      15       1       0       6     -12      15       1
       0      72      90      81       1       0      72      90      96       1
       3       0       6      12       1       3       0      72      90       1
       3       9     -15      12       1       3       9      15      18       1
       3       9      15      21       1       6       0       3       9       1
       6       0      72      90       1       6      12     -15       9       1
       6      12      15      18       1       6      12      15      21       1
      72       0       3       9       1       9      15      18      24       2
       9      15      21      27       3       9      15     -21      24       3
      72       0       6      12       1      12      15      18      24       2
      12      15      21      27       3      12      15     -21      24       3
      15      18     -24      21       1      15      21      27      30       4
      15      21      27      33       4      15      21     -24      18       1
      18      15      21      27       3      18      15     -21      24       3
      18      24     -21      27       1      21      15     -18      24       2
      21      27      30      36       1      21      27      33      39       1
      24      21      27      30       4      24      21      27      33       4
      27      30      36      42       1      27      33     -39      42       1
      30      27      33      39       1      30      36     -42      39       1
      30      36      42      45       1      33      27      30      36       1
      33      39     -42      36       1      33      39      42      45       1
      36      42      45      48       5      36      42      45      51       5
      39      42      45      48       5      39      42      45      51       5
      42      45      48      54       6      42      45      48      57       6
      42      45      51      60       1      45      48      57      63       6
      45      51     -60      63       1      48      45      51      60       1
      48      57     -63      60       6      48      57      63      66       6
      51      45      48      54       6      51      45      48      57       6
      51      60     -63      57       1      51      60      63      66       1
      54      48      57      63       6      72      90      81      78       4
      72      90      81      87       4      72      90      96      93       1
      75      78      81      87       4      75      78      81      90       4
      75      78      84      93       1      78      81      90      96       4
      78      84     -93      96       1      81      78      84      93       1
      81      90     -96      93       1      84      78      81      87       4
      84      78      81      90       4      84      93     -96      90       1
      87      81      90      96       4      24      15     -21     -27       8
      30      33     -27     -21       8      36      39     -42     -45       8
      48      51     -45     -42       9      45      57     -48     -54       8
      60      57     -63     -66       8      84      81     -78     -75       8
      78      90     -81     -87       8      72      96     -90     -81       8
%FLAG EXCLUDED_ATOMS_LIST                                                       
%FORMAT(10I8)                                                                   
       2       3       4       5       6      25      28      31      33       3
       4       5       6       7       8      25      31       4       5       6
       7       8      25      31       5       6       7       8       9      10
      25       6       7       8       9      10      25       7       8       9
      10      11      12       8       9      10       9      10      11      12
      13      14      10      11      12      11      12      13      14      15
      12      13      14      15      16      13      14      15      16      14
      15      16      17      18      15      16      17      18      16      17
      18      19      20      21      17      18      19      20      21      22
      24      18      19      20      21      22      23      24      19      20
      21      22      23      20      22      24      21      22      23      24
      22      23      24      23      24      24       0      27      28      30
      31      32      33      27      28      29      30      31      32      28
      29      30      31      32      33      29      30      31      32      33
      30      31      32      33      31      33      32      33      33       0
%FLAG HBOND_ACOEF                                                               
%FORMAT(5E16.8)                                                                 

%FLAG HBOND_BCOEF                                                               
%FORMAT(5E16.8)                                                                 

%FLAG HBCUT                                                                     
%FORMAT(5E16.8)                                                                 

%FLAG AMBER_ATOM_TYPE                                                           
%FORMAT(20a4)                                                                   
n3  c1  c1  c1  c1  c3  os  c2  c1  ce  c1  c1  c1  c1  c2  n   c   c1  o   ns  
c1  c   o   hn  c1  cl  c2  c2  c1  f   ce  c1  c1  
%FLAG TREE_CHAIN_CLASSIFICATION                                                 
%FORMAT(20a4)                                                                   
BLA BLA BLA BLA BLA BLA BLA BLA BLA BLA BLA BLA BLA BLA BLA BLA BLA BLA BLA BLA 
BLA BLA BLA BLA BLA BLA BLA BLA BLA BLA BLA BLA BLA 
%FLAG JOIN_ARRAY                                                                
%FORMAT(10I8)                                                                   
       0       0       0       0       0       0       0       0       0       0
       0       0       0       0       0       0       0       0       0       0
       0       0       0       0       0       0       0       0       0       0
       0       0       0
%FLAG IROTAT                                                                    
%FORMAT(10I8)                                                                   
       0       0       0       0       0       0       0       0       0       0
       0       0       0       0       0       0       0       0       0       0
       0       0       0       0       0       0       0       0       0       0
       0       0       0
%FLAG RADIUS_SET                                                                
%FORMAT(1a80)                                                                   
modified Bondi radii (mbondi)                                                   
%FLAG RADII                                                                     
%FORMAT(5E16.8)                                                                 
  1.55000000E+00  1.70000000E+00  1.70000000E+00  1.70000000E+00  1.70000000E+00
  1.70000000E+00  1.50000000E+00  1.70000000E+00  1.70000000E+00  1.70000000E+00
  1.70000000E+00  1.70000000E+00  1.70000000E+00  1.70000000E+00  1.70000000E+00
  1.55000000E+00  1.70000000E+00  1.70000000E+00  1.50000000E+00  1.55000000E+00
  1.70000000E+00  1.70000000E+00  1.50000000E+00  1.30000000E+00  1.70000000E+00
  1.70000000E+00  1.70000000E+00  1.70000000E+00  1.70000000E+00  1.50000000E+00
  1.70000000E+00  1.70000000E+00  1.70000000E+00
%FLAG SCREEN                                                                    
%FORMAT(5E16.8)                                                                 
  7.90000000E-01  7.20000000E-01  7.20000000E-01  7.20000000E-01  7.20000000E-01
  7.20000000E-01  8.50000000E-01  7.20000000E-01  7.20000000E-01  7.20000000E-01
  7.20000000E-01  7.20000000E-01  7.20000000E-01  7.20000000E-01  7.20000000E-01
  7.90000000E-01  7.20000000E-01  7.20000000E-01  8.50000000E-01  7.90000000E-01
  7.20000000E-01  7.20000000E-01  8.50000000E-01  8.50000000E-01  7.20000000E-01
  8.00000000E-01  7.20000000E-01  7.20000000E-01  7.20000000E-01  8.80000000E-01
  7.20000000E-01  7.20000000E-01  7.20000000E-01
%FLAG IPOL                                                                      
%FORMAT(1I8)                                                                    
       0
