%VERSION  VERSION_STAMP = V0001.000  DATE = 09/06/26  21:56:21                  
%FLAG TITLE                                                                     
%FORMAT(20a4)                                                                   
LIG                                                                             
%FLAG POINTERS                                                                  
%FORMAT(10I8)                                                                   
      30      11       3      29       5      40      12      61       0       0
     135       1      29      40      61      20      38      14      13       0
       0       0       0       0       0       0       0       0      30       0
       0
%FLAG ATOM_NAME                                                                 
%FORMAT(20a4)                                                                   
C1  C2  C3  C4  C5  C6  O1  C7  N1  N2  C8  C9  C10 O2  H1  O3  C11 C12 N3  C13 
C14 C15 C16 N4  C17 H2  C18 O4  O5  H3  
%FLAG CHARGE                                                                    
%FORMAT(5E16.8)                                                                 
  2.46520386E+00  3.17722201E+00 -1.20156024E+00 -5.62358400E-01  2.25767008E+00
 -7.47752081E-01 -4.59415161E+00  5.91381058E+00 -3.09624210E+00 -4.13587899E+00
  3.91360337E-01  5.40876131E+00  2.64751797E-01 -4.76706301E+00  2.94005877E+00
 -4.50101743E+00  1.66191020E+00 -3.76418051E-01 -2.20063428E+00  3.08973674E+00
  2.75083841E-01 -4.88412307E-01  1.51172201E-01 -3.30616300E+00  1.11994256E-01
  2.80206129E+00  5.69126163E+00 -4.71729791E+00 -5.94956273E+00  4.04239859E+00
%FLAG ATOMIC_NUMBER                                                             
%FORMAT(10I8)                                                                   
       6       6       6       6       6       6       8       6       7       7
       6       6       6       8       1       8       6       6       7       6
       6       6       6       7       6       1       6       8       8       1
%FLAG MASS                                                                      
%FORMAT(5E16.8)                                                                 
  1.20100000E+01  1.20100000E+01  1.20100000E+01  1.20100000E+01  1.20100000E+01
  1.20100000E+01  1.60000000E+01  1.20100000E+01  1.40100000E+01  1.40100000E+01
  1.20100000E+01  1.20100000E+01  1.20100000E+01  1.60000000E+01  1.00800000E+00
  1.60000000E+01  1.20100000E+01  1.20100000E+01  1.40100000E+01  1.20100000E+01
  1.20100000E+01  1.20100000E+01  1.20100000E+01  1.40100000E+01  1.20100000E+01
  1.00800000E+00  1.20100000E+01  1.60000000E+01  1.60000000E+01  1.00800000E+00
%FLAG ATOM_TYPE_INDEX                                                           
%FORMAT(10I8)                                                                   
       1       1       2       2       1       2       3       1       4       5
       2       1       2       3       6       7       2       2       8       1
       2       2       2       9       2       6       1       3      10      11
%FLAG NUMBER_EXCLUDED_ATOMS                                                     
%FORMAT(10I8)                                                                   
      14       9       9       6       6       3       6       7       6       5
       3       3       2       1       1       1       1       6       9      10
       5       7       3       3       1       1       3       2       1       1
%FLAG NONBONDED_PARM_INDEX                                                      
%FORMAT(10I8)                                                                   
       1       2       4       7      11      16      22      29      37      46
      56       2       3       5       8      12      17      23      30      38
      47      57       4       5       6       9      13      18      24      31
      39      48      58       7       8       9      10      14      19      25
      32      40      49      59      11      12      13      14      15      20
      26      33      41      50      60      16      17      18      19      20
      21      27      34      42      51      61      22      23      24      25
      26      27      28      35      43      52      62      29      30      31
      32      33      34      35      36      44      53      63      37      38
      39      40      41      42      43      44      45      54      64      46
      47      48      49      50      51      52      53      54      55      65
      56      57      58      59      60      61      62      63      64      65
      66
%FLAG RESIDUE_LABEL                                                             
%FORMAT(20a4)                                                                   
LIG 
%FLAG RESIDUE_POINTER                                                           
%FORMAT(10I8)                                                                   
       1
%FLAG BOND_FORCE_CONSTANT                                                       
%FORMAT(5E16.8)                                                                 
  3.13870000E+02  4.36000000E+02  4.66850000E+02  3.50470000E+02  3.36100000E+02
  6.99130000E+02  5.90600000E+02  3.17460000E+02  3.36070000E+02  4.28900000E+02
  4.73590000E+02  2.50880000E+02  4.15540000E+02  3.97760000E+02  2.93230000E+02
  3.08440000E+02  3.78090000E+02  4.60050000E+02  3.59270000E+02  5.35510000E+02
%FLAG BOND_EQUIL_VALUE                                                          
%FORMAT(5E16.8)                                                                 
  1.40010000E+00  1.33790000E+00  1.31850000E+00  1.36280000E+00  1.41440000E+00
  1.20950000E+00  1.21900000E+00  1.39670000E+00  1.37980000E+00  1.33000000E+00
  1.01320000E+00  1.50560000E+00  1.31410000E+00  1.33100000E+00  1.42060000E+00
  1.44060000E+00  1.34550000E+00  1.01950000E+00  1.35560000E+00  9.72500000E-01
%FLAG ANGLE_FORCE_CONSTANT                                                      
%FORMAT(5E16.8)                                                                 
  7.86500000E+01  6.81000000E+01  8.00400000E+01  6.88500000E+01  5.32200000E+01
  6.77900000E+01  9.26500000E+01  5.73200000E+01  6.79500000E+01  6.37200000E+01
  8.09800000E+01  6.44800000E+01  6.22400000E+01  8.66800000E+01  8.72100000E+01
  6.96000000E+01  7.72200000E+01  5.73700000E+01  7.40500000E+01  7.80000000E+01
  6.81300000E+01  5.79000000E+01  7.58200000E+01  8.08400000E+01  1.14280000E+02
  8.84000000E+01  6.77300000E+01  7.67000000E+01  8.00800000E+01  7.47800000E+01
  6.22400000E+01  7.48600000E+01  6.88500000E+01  1.14280000E+02  5.95100000E+01
  6.05100000E+01  6.84600000E+01  1.02030000E+02
%FLAG ANGLE_EQUIL_VALUE                                                         
%FORMAT(5E16.8)                                                                 
  2.09771213E+00  2.07484830E+00  2.12685914E+00  1.98636007E+00  3.12536243E+00
  2.16927066E+00  2.04674849E+00  3.14159400E+00  2.18637489E+00  2.04517769E+00
  2.10608971E+00  2.26561287E+00  2.55551219E+00  2.13925098E+00  2.14762857E+00
  2.04273423E+00  2.23489507E+00  2.04657396E+00  1.99613392E+00  3.09237569E+00
  2.00887483E+00  3.14159400E+00  2.22843734E+00  2.04238517E+00  1.09659084E+00
  2.17380852E+00  2.18183703E+00  3.14159400E+00  2.13122246E+00  2.26526381E+00
  2.55551219E+00  2.02667720E+00  1.98636007E+00  1.09659084E+00  1.98252035E+00
  3.09743715E+00  1.85947458E+00  2.13087340E+00
%FLAG DIHEDRAL_FORCE_CONSTANT                                                   
%FORMAT(5E16.8)                                                                 
  2.50000000E+00  0.00000000E+00  1.05000000E+00  1.53000000E+00  1.57000000E+00
  6.50000000E-01  6.65000000E+00  2.00000000E+00  3.00000000E-01  2.17500000E+00
  2.30000000E+00  1.90000000E+00  1.05000000E+01  1.10000000E+00
%FLAG DIHEDRAL_PERIODICITY                                                      
%FORMAT(5E16.8)                                                                 
  2.00000000E+00  2.00000000E+00  2.00000000E+00  1.00000000E+00  2.00000000E+00
  2.00000000E+00  2.00000000E+00  1.00000000E+00  2.00000000E+00  2.00000000E+00
  2.00000000E+00  1.00000000E+00  2.00000000E+00  2.00000000E+00
%FLAG DIHEDRAL_PHASE                                                            
%FORMAT(5E16.8)                                                                 
  3.14159400E+00  3.14159400E+00  3.14159400E+00  3.14159400E+00  3.14159400E+00
  3.14159400E+00  3.14159400E+00  0.00000000E+00  3.14159400E+00  3.14159400E+00
  3.14159400E+00  0.00000000E+00  3.14159400E+00  3.14159400E+00
%FLAG SCEE_SCALE_FACTOR                                                         
%FORMAT(5E16.8)                                                                 
  1.20000000E+00  1.20000000E+00  1.20000000E+00  1.20000000E+00  1.20000000E+00
  1.20000000E+00  1.20000000E+00  1.20000000E+00  1.20000000E+00  1.20000000E+00
  1.20000000E+00  1.20000000E+00  0.00000000E+00  0.00000000E+00
%FLAG SCNB_SCALE_FACTOR                                                         
%FORMAT(5E16.8)                                                                 
  2.00000000E+00  2.00000000E+00  2.00000000E+00  2.00000000E+00  2.00000000E+00
  2.00000000E+00  2.00000000E+00  2.00000000E+00  2.00000000E+00  2.00000000E+00
  2.00000000E+00  2.00000000E+00  0.00000000E+00  0.00000000E+00
%FLAG SOLTY                                                                     
%FORMAT(5E16.8)                                                                 
  0.00000000E+00  0.00000000E+00  0.00000000E+00  0.00000000E+00  0.00000000E+00
  0.00000000E+00  0.00000000E+00  0.00000000E+00  0.00000000E+00  0.00000000E+00
  0.00000000E+00  0.00000000E+00  0.00000000E+00
%FLAG LENNARD_JONES_ACOEF                                                       
%FORMAT(5E16.8)                                                                 
  6.96551276E+05  1.18640578E+06  2.00671338E+06  5.17507491E+05  8.92208123E+05
  3.76435470E+05  7.01106848E+05  1.20132739E+06  5.15491878E+05  7.02078680E+05
  6.99381362E+05  1.19359607E+06  5.17814271E+05  7.02755693E+05  7.01825028E+05
  1.71458823E+03  3.37137075E+03  9.87857350E+02  1.52360475E+03  1.65195713E+03
  1.34728399E-01  4.46121722E+05  7.65280989E+05  3.27367585E+05  4.46307018E+05
  4.47026838E+05  9.46795083E+02  2.83662575E+05  7.10207765E+05  1.20705609E+06
  5.29641935E+05  7.16178718E+05  7.13532671E+05  1.82809059E+03  4.55871651E+05
  7.23647490E+05  7.13691175E+05  1.20572069E+06  5.37823556E+05  7.23403259E+05
  7.18259517E+05  2.07791361E+03  4.60917758E+05  7.25846509E+05  7.24302894E+05
  5.92438683E+05  1.01229921E+06  4.37717034E+05  5.94682930E+05  5.94304835E+05
  1.36475542E+03  3.78207390E+05  6.04651377E+05  6.09286822E+05  5.03152404E+05
  2.25372434E+02  4.71994656E+02  1.15813907E+02  1.89434762E+02  2.13197010E+02
  2.61760843E-03  1.16469347E+02  2.45082140E+02  2.93996564E+02  1.74176419E+02
  1.10360882E-05
%FLAG LENNARD_JONES_BCOEF                                                       
%FORMAT(5E16.8)                                                                 
  5.24668528E+02  7.71958727E+02  1.13185062E+03  4.98871431E+02  7.38469198E+02
  4.69350655E+02  5.97113873E+02  8.81180204E+02  5.64804067E+02  6.77820248E+02
  5.48900066E+02  8.08414196E+02  5.21008860E+02  6.24158704E+02  5.74088001E+02
  1.46824710E+01  2.32108730E+01  1.22938581E+01  1.57004457E+01  1.50468782E+01
  7.34107347E-02  3.88758656E+02  5.74027680E+02  3.67361018E+02  4.41089616E+02
  4.06301077E+02  1.01016461E+01  2.87011518E+02  5.11427129E+02  7.51664026E+02
  4.87196412E+02  5.82583725E+02  5.35211915E+02  1.46352678E+01  3.79365004E+02
  4.98353106E+02  4.52784989E+02  6.63482084E+02  4.33589357E+02  5.17110882E+02
  4.74247817E+02  1.37803855E+01  3.36894171E+02  4.40800258E+02  3.88888730E+02
  4.76608379E+02  7.02365877E+02  4.51916854E+02  5.41675626E+02  4.98393522E+02
  1.29026271E+01  3.52573684E+02  4.64809588E+02  4.12077831E+02  4.32634597E+02
  4.40751799E+00  7.19086644E+00  3.48534600E+00  4.58384710E+00  4.47571103E+00
  8.47240681E-03  2.93355636E+00  4.43692527E+00  4.29183694E+00  3.81654050E+00
  4.55498033E-04
%FLAG BONDS_INC_HYDROGEN                                                        
%FORMAT(10I8)                                                                   
      27      42      11      69      75      18      84      87      20
%FLAG BONDS_WITHOUT_HYDROGEN                                                    
%FORMAT(10I8)                                                                   
       0      24       1       0       3       2       0       6       3       3
      45       4       3       9       3       6      12       5       9      15
       6      12      51       5      12      15       5      18      21       7
      21      24       8      21      27       9      24      30      10      27
      33       9      30      36       6      33      39       7      33      36
      12      45      48      13      51      54      14      54      57      15
      54      60      14      57      78      16      57      63       3      60
      66       6      63      69      17      66      72       6      69      72
      17      78      81       7      78      84      19
%FLAG ANGLES_INC_HYDROGEN                                                       
%FORMAT(10I8)                                                                   
      21      27      42      18      33      27      42      18      63      69
      75      35      72      69      75      35      78      84      87      37
%FLAG ANGLES_WITHOUT_HYDROGEN                                                   
%FORMAT(10I8)                                                                   
       0      24      21       1       0      24      30       2       0       3
      45       3       0       3       9       4       0       6      12       5
       3       0      24       6       3       0       6       4       3      45
      48       7       3       9      15       8       6       0      24       9
       6      12      51      10       6      12      15      10       9       3
      45      11       9      15      12      12      12      51      54      13
      15      12      51      10      18      21      24      14      18      21
      27      15      21      24      30      16      21      27      33      17
      24      21      27      19      24      30      36      20      27      33
      39      15      27      33      36      21      30      36      33      22
      36      33      39      23      51      54      57      24      51      54
      60      25      54      57      78      26      54      57      63      27
      54      60      66      28      57      54      60      24      57      78
      81      29      57      78      84      30      57      63      69      31
      60      66      72      32      63      57      78      33      63      69
      72      34      66      72      69      36      81      78      84      38
%FLAG DIHEDRALS_INC_HYDROGEN                                                    
%FORMAT(10I8)                                                                   
      18      21      27      42       8      18      21     -27      42       1
      24      21      27      42       1      36      33      27      42       1
      39      33      27      42       8      39      33     -27      42       1
      57      78      84      87      11      57      63      69      75       2
      66      72      69      75       2      81      78      84      87      12
      81      78     -84      87      11      21      33     -27     -42      14
%FLAG DIHEDRALS_WITHOUT_HYDROGEN                                                
%FORMAT(10I8)                                                                   
       0      24      21      18       1       0      24      21      27       1
       0      24      30      36       2       0       3      45      48       3
       0       3       9      15       2       0       6      12      51       2
       0       6     -12      15       2       3       0      24      21       4
       3       0     -24      21       5       3       0      24      30       6
       3       0       6      12       2       3       9     -15      12       2
       6       0      24      21       6       6       0      24      30       6
       6       0       3      45       7       6       0       3       9       7
       6      12      51      54       2       6      12     -15       9       2
      24       0       3       9       7       9       3      45      48       3
       9      15      12      51       2      24       0       6      12       2
      12      51      54      57       2      12      51      54      60       2
      15       9       3      45       2      15      12      51      54       2
      18      21      24      30       1      18      21      27      33       1
      21      24      30      36       2      21      27      33      39       1
      21      27     -33      36       1      24       0       3      45       7
      24      21      27      33       1      24      30     -36      33       2
      27      21      24      30       1      27      33     -36      30       2
      30      36      33      39       2      51      54      57      78       9
      51      54      57      63       9      51      54      60      66       2
      54      57      78      81      10      54      57      78      84      10
      54      57      63      69       2      54      60      66      72       2
      57      54      60      66       2      57      63      69      72       2
      60      54      57      78       9      60      54      57      63       9
      60      66      72      69       2      63      57      78      81      10
      63      57      78      84      10      63      69      72      66       2
      69      63      57      78       2      24       0      -3      -6      13
       9       0      -3     -45      13       6      15     -12     -51      13
      24      27     -21     -18      13       0      24     -30     -21      14
      36      27     -33     -39      13      78      63     -57     -54      13
      57      81     -78     -84      14
%FLAG EXCLUDED_ATOMS_LIST                                                       
%FORMAT(10I8)                                                                   
       2       3       4       5       6       7       8       9      10      11
      13      16      17      18       3       4       5       6       8       9
      11      16      17       4       5       6       8       9      11      16
      18      19       5       6       9      16      17      18       6       9
      18      19      20      21      16      18      19       8       9      10
      11      12      15       9      10      11      12      13      14      15
      10      11      12      13      15      16      11      12      13      14
      15      12      13      14      13      14      15      14      15      15
       0      17       0      19      20      21      22      23      27      20
      21      22      23      24      25      27      28      29      21      22
      23      24      25      26      27      28      29      30      22      23
      24      25      27      23      24      25      26      27      28      29
      24      25      26      25      26      27      26       0      28      29
      30      29      30      30       0
%FLAG HBOND_ACOEF                                                               
%FORMAT(5E16.8)                                                                 

%FLAG HBOND_BCOEF                                                               
%FORMAT(5E16.8)                                                                 

%FLAG HBCUT                                                                     
%FORMAT(5E16.8)                                                                 

%FLAG AMBER_ATOM_TYPE                                                           
%FORMAT(20a4)                                                                   
c2  c2  c1  c1  ce  c1  o   c   n   ns  c1  c   c1  o   hn  os  c1  c1  n3  c2  
c1  c1  c1  n7  c1  hn  c   o   oh  ho  
%FLAG TREE_CHAIN_CLASSIFICATION                                                 
%FORMAT(20a4)                                                                   
BLA BLA BLA BLA BLA BLA BLA BLA BLA BLA BLA BLA BLA BLA BLA BLA BLA BLA BLA BLA 
BLA BLA BLA BLA BLA BLA BLA BLA BLA BLA 
%FLAG JOIN_ARRAY                                                                
%FORMAT(10I8)                                                                   
       0       0       0       0       0       0       0       0       0       0
       0       0       0       0       0       0       0       0       0       0
       0       0       0       0       0       0       0       0       0       0
%FLAG IROTAT                                                                    
%FORMAT(10I8)                                                                   
       0       0       0       0       0       0       0       0       0       0
       0       0       0       0       0       0       0       0       0       0
       0       0       0       0       0       0       0       0       0       0
%FLAG RADIUS_SET                                                                
%FORMAT(1a80)                                                                   
modified Bondi radii (mbondi)                                                   
%FLAG RADII                                                                     
%FORMAT(5E16.8)                                                                 
  1.70000000E+00  1.70000000E+00  1.70000000E+00  1.70000000E+00  1.70000000E+00
  1.70000000E+00  1.50000000E+00  1.70000000E+00  1.55000000E+00  1.55000000E+00
  1.70000000E+00  1.70000000E+00  1.70000000E+00  1.50000000E+00  1.30000000E+00
  1.50000000E+00  1.70000000E+00  1.70000000E+00  1.55000000E+00  1.70000000E+00
  1.70000000E+00  1.70000000E+00  1.70000000E+00  1.55000000E+00  1.70000000E+00
  1.30000000E+00  1.70000000E+00  1.50000000E+00  1.50000000E+00  8.00000000E-01
%FLAG SCREEN                                                                    
%FORMAT(5E16.8)                                                                 
  7.20000000E-01  7.20000000E-01  7.20000000E-01  7.20000000E-01  7.20000000E-01
  7.20000000E-01  8.50000000E-01  7.20000000E-01  7.90000000E-01  7.90000000E-01
  7.20000000E-01  7.20000000E-01  7.20000000E-01  8.50000000E-01  8.50000000E-01
  8.50000000E-01  7.20000000E-01  7.20000000E-01  7.90000000E-01  7.20000000E-01
  7.20000000E-01  7.20000000E-01  7.20000000E-01  7.90000000E-01  7.20000000E-01
  8.50000000E-01  7.20000000E-01  8.50000000E-01  8.50000000E-01  8.50000000E-01
%FLAG IPOL                                                                      
%FORMAT(1I8)                                                                    
       0
