LIG
    39
  85.2410000 153.8860000  13.3400000  86.3530000 153.2970000  12.7040000
  84.2070000 153.0550000  13.8550000  86.3750000 151.9260000  12.5490000
  84.2550000 151.6600000  13.7160000  85.3410000 151.1150000  13.0620000
  87.4050000 151.0180000  11.9200000  85.6990000 149.6740000  12.7730000
  86.5690000 149.8590000  11.6140000  88.4370000 150.5410000  12.9970000
  86.6030000 149.1040000  13.9190000  87.0020000 148.8580000  10.7910000
  87.8010000 149.9570000  14.2220000  87.9810000 148.9600000  10.0650000
  84.7890000 155.6850000  11.1400000  85.0780000 156.0880000  12.2640000
  85.1500000 155.3090000  13.4120000  85.2550000 157.4360000  12.4700000
  85.5840000 155.9300000  14.6570000  84.9980000 158.0920000  13.6430000
  84.8500000 157.2350000  14.8690000  84.8150000 159.3070000  13.6670000
  85.5930000 157.9700000  11.7150000  87.4100000 154.0180000  12.2190000
  87.6040000 153.7480000  10.8280000  83.0750000 153.6540000  14.3630000
  82.1220000 152.7020000  14.8380000  86.2220000 147.7540000  10.9010000
  86.8080000 146.4450000  11.1170000  88.1030000 146.5450000  11.9310000
  87.0160000 145.7000000   9.7940000  85.7640000 145.6860000  11.9490000
  88.7880000 149.2700000  15.0610000  89.6920000 150.2200000  15.8170000
  90.8580000 150.7230000  15.2220000  89.3670000 150.6280000  17.1200000
  91.6830000 151.6080000  15.9190000  90.1930000 151.5110000  17.8150000
  91.3510000 152.0010000  17.2140000
