LIG
    37
  85.3750000 153.9860000  13.3060000  84.8360000 153.0360000  14.2030000
  86.2550000 153.5290000  12.2910000  85.2390000 151.7170000  14.1030000
  86.6410000 152.1860000  12.1800000  86.1320000 151.2960000  13.0980000
  84.9060000 150.5160000  14.9550000  86.3870000 149.8180000  13.2950000
  85.1630000 149.4430000  13.9950000  85.9690000 150.3520000  16.0930000
  87.5610000 149.6010000  14.3080000  84.8000000 148.1370000  14.1600000
  87.3850000 150.3360000  15.6060000  85.3090000 147.2130000  13.5400000
  85.4550000 155.9220000  11.1630000  85.1890000 156.2460000  12.3180000
  85.1060000 155.3930000  13.4180000  84.9340000 157.5700000  12.5840000
  84.5920000 155.9310000  14.6730000  85.0480000 158.1820000  13.8020000
  85.2290000 157.2710000  14.9770000  85.0800000 159.4050000  13.9040000
  84.6420000 158.1300000  11.8290000  83.9120000 153.3540000  15.1620000
  82.6040000 152.9960000  14.7040000  83.8280000 148.0060000  15.0970000
  82.4350000 147.8850000  14.7140000  82.0360000 146.4660000  15.1510000
  82.2650000 147.9930000  13.1950000  81.5580000 148.8920000  15.4660000
  88.3050000 149.8690000  16.6490000  89.5820000 150.6790000  16.7260000
  89.9650000 151.2890000  17.9300000  90.4080000 150.8200000  15.6020000
  91.1460000 152.0290000  18.0060000  91.5890000 151.5600000  15.6810000
  91.9570000 152.1640000  16.8820000
