LIG
    35
  84.5640000 154.7300000  14.1930000  85.0300000 153.9430000  15.2590000
  83.7660000 154.1090000  13.1940000  84.7000000 152.5990000  15.2940000
  83.4310000 152.7470000  13.2390000  83.9100000 152.0050000  14.2930000
  85.0230000 151.5350000  16.3190000  83.7160000 150.5510000  14.6590000
  84.8980000 150.3390000  15.4870000  83.8830000 151.4470000  17.3890000
  82.4780000 150.3870000  15.6040000  85.3130000 149.0880000  15.8420000
  82.5130000 151.2810000  16.8090000  84.9050000 148.0660000  15.3060000
  85.1400000 156.2400000  11.7680000  85.1680000 156.7540000  12.8830000
  84.8980000 156.1280000  14.1060000  85.5060000 158.0850000  12.9680000
  85.1830000 156.8760000  15.3270000  85.2000000 158.9360000  13.9920000
  84.6580000 158.2930000  15.2300000  85.2900000 160.1540000  13.8660000
  86.0190000 158.4610000  12.2160000  86.2090000 149.1310000  16.8590000
  87.6010000 148.7850000  16.6430000  88.2950000 150.1270000  16.3680000
  88.2190000 148.1630000  17.9000000  87.7690000 147.8860000  15.4140000
  81.5400000 150.8900000  17.8340000  82.0980000 149.9100000  18.8430000
  81.2420000 149.0380000  19.5340000  83.4730000 149.8630000  19.1130000
  81.7510000 148.1380000  20.4710000  83.9810000 148.9620000  20.0510000
  83.1200000 148.1010000  20.7300000
