LIG
    32
  85.3430000 148.4820000  14.5060000  84.8890000 149.3980000  13.8250000
  85.7240000 150.4020000  13.4340000  83.4630000 149.4610000  13.3000000
  85.3740000 151.4690000  12.5390000  82.6500000 150.6860000  13.7410000
  82.6130000 148.3100000  13.8350000  84.4590000 152.4610000  13.2020000
  83.2200000 152.0950000  13.7550000  82.0330000 150.2370000  15.0850000
  82.1570000 148.7790000  15.1430000  84.8740000 153.8140000  13.2420000
  82.4320000 153.1200000  14.3100000  84.1010000 154.8280000  13.8190000
  82.8650000 154.4520000  14.3490000  86.6400000 150.3950000  13.7940000
  84.5470000 156.1950000  13.8450000  84.6550000 156.9660000  12.6800000
  85.1320000 156.7390000  15.0680000  84.3660000 156.6200000  11.5370000
  85.1440000 158.2390000  12.8610000  84.7510000 158.1930000  15.2520000
  85.1190000 158.9590000  14.0210000  85.3060000 160.1730000  14.0300000
  85.5510000 158.6730000  12.0770000  80.9730000 148.0760000  15.6320000
  79.7010000 148.8900000  15.5080000  79.1790000 149.5700000  16.6190000
  79.0080000 148.9520000  14.2900000  77.9980000 150.3060000  16.5110000
  77.8260000 149.6880000  14.1850000  77.3220000 150.3650000  15.2940000
