LIG
    34
  82.6860000 148.6800000  12.9450000  83.4730000 149.2730000  13.6840000
  82.9770000 150.2090000  14.5340000  84.9440000 148.9200000  13.7070000
  83.7460000 151.1340000  15.3230000  86.0080000 150.0350000  13.6940000
  85.2900000 148.0470000  14.9120000  84.5640000 152.0360000  14.4400000
  85.6150000 151.4990000  13.6700000  86.9200000 149.7070000  14.8900000
  86.7310000 148.2680000  15.0880000  84.2800000 153.4190000  14.3550000
  86.3710000 152.3690000  12.8700000  85.0790000 154.3030000  13.5980000
  86.1110000 153.7420000  12.8380000  81.9970000 150.2590000  14.6180000
  84.9090000 155.7290000  13.6150000  85.0650000 156.5030000  12.4650000
  84.4350000 156.3860000  14.8290000  85.3180000 156.0860000  11.3380000
  84.9080000 157.8560000  12.6460000  85.1790000 157.6860000  15.0540000
  85.0760000 158.5320000  13.8220000  85.2160000 159.7520000  13.8470000
  84.6520000 158.3870000  11.8570000  83.1630000 153.8830000  15.0180000
  82.0080000 153.7200000  14.1850000  87.2320000 147.8190000  16.3910000
  88.3620000 148.6750000  16.9190000  89.1910000 148.2120000  17.9500000
  88.5910000 149.9540000  16.3890000  90.2280000 149.0100000  18.4380000
  89.6280000 150.7500000  16.8780000  90.4460000 150.2780000  17.9020000
