LIG
    36
  83.6890000 152.8000000  18.4410000  83.2950000 151.6940000  18.0670000
  82.6580000 150.9090000  18.9790000  83.6230000 151.1560000  16.6830000
  81.9250000 149.6950000  18.7090000  82.7330000 150.1180000  15.9860000
  83.7460000 152.3020000  15.6610000  80.8590000 149.9500000  17.6750000
  81.2520000 150.2100000  16.3400000  83.1400000 150.3370000  14.5200000
  83.1730000 151.7920000  14.4030000  79.4950000 150.0000000  18.0220000
  80.2590000 150.5060000  15.3930000  78.5010000 150.2570000  17.0580000
  78.9020000 150.5370000  15.7430000  82.7020000 151.1990000  19.9190000
  77.1240000 150.2000000  17.4260000  76.4210000 149.0010000  17.4300000
  76.5950000 151.3240000  18.1870000  76.7720000 147.9590000  16.8810000
  75.1840000 149.0610000  18.0260000  75.1220000 151.4980000  17.8940000
  74.4160000 150.1900000  18.1220000  73.2020000 150.1240000  18.2990000
  74.8230000 148.2300000  18.4130000  79.1480000 149.7820000  19.3380000
  79.1110000 148.3760000  19.6080000  77.9440000 150.6890000  14.7690000
  77.8960000 149.5740000  13.8770000  83.8680000 152.2570000  13.2020000
  84.2150000 153.7290000  13.2540000  85.4600000 154.1850000  12.7950000
  83.3060000 154.6600000  13.7780000  85.7870000 155.5410000  12.8530000
  83.6340000 156.0160000  13.8360000  84.8740000 156.4550000  13.3740000
