LIG
    33
  84.8550000 149.1550000  17.6080000  83.3910000 149.2340000  17.4590000
  85.5640000 149.0390000  16.3250000  83.0070000 150.0540000  16.2320000
  84.7080000 148.4390000  15.2120000  83.4780000 149.3220000  14.9660000
  82.3870000 148.4880000  14.4450000  83.4820000 150.1260000  13.6220000
  82.1050000 149.4750000  13.4210000  83.6760000 151.7020000  13.6380000
  84.8770000 152.2760000  13.1880000  82.7020000 152.6110000  14.0790000
  85.0980000 153.6620000  13.1840000  82.9170000 154.0000000  14.0820000
  84.1210000 154.5540000  13.6310000  84.3490000 155.9720000  13.6480000
  84.8020000 156.6650000  12.5190000  83.8960000 156.7610000  14.7900000
  85.0610000 156.1890000  11.4170000  84.9510000 158.0230000  12.6850000
  84.8750000 157.8730000  15.1040000  85.1070000 158.6870000  13.8690000
  85.4890000 159.8530000  13.9080000  84.9450000 158.5710000  11.8670000
  85.2140000 148.1160000  18.5840000  82.1500000 148.6660000  22.7910000
  82.5920000 147.8510000  21.3390000  83.6730000 148.2930000  20.5760000
  81.8520000 146.7440000  20.9260000  84.3690000 149.3730000  20.9660000
  84.0340000 147.6350000  19.3930000  82.1950000 146.0820000  19.7470000
  83.2780000 146.5250000  18.9830000
