Cpptraj Generated Restart                                                       
 6221  4.0000001E-01
  90.6172409 180.0343018  24.1231613  91.5075760 180.2508087  23.6982765
  90.7050323 179.0884399  24.4662743  90.5027695 180.5326233  24.9941826
  89.5038605 180.2817230  23.1361027  88.5726089 180.0465393  23.6514225
  89.2981262 181.7789001  22.6789169  90.0426178 181.9668121  21.9052734
  88.2975540 181.8894501  22.2609043  89.3618164 182.8585815  23.8160267
  88.5103455 182.7075195  24.4795589  90.2363434 182.6710052  24.4390163
  89.4873047 184.6246796  23.4786415  87.8301086 185.1203918  23.1428947
  87.5095444 185.5035095  24.1116867  87.7102661 186.0032959  22.5150318
  87.2241669 184.3535767  22.6602669  89.4612350 179.2118683  22.0468178
  90.4564056 178.7037201  21.5892715  88.2880630 178.7733002  21.6826897
  87.5260925 179.0772552  22.2718525  88.1227798 177.7292175  20.6258183
  88.7220993 176.9082489  21.0194130  86.6687927 177.2812347  20.4595356
  86.1151581 178.1706238  20.1585789  86.5431595 176.2035217  19.3627529
  87.0974426 175.3069153  19.6401730  85.4990845 175.9181976  19.2339783
  86.8427277 176.5813293  18.3851852  86.1335220 176.6429901  21.7806091
  85.6105194 175.6900177  21.7004757  86.9676361 176.5489655  22.4759655
  85.0502472 177.5211182  22.4129639  84.0546265 177.3450775  22.0057182
  85.0811462 177.2332306  23.4638081  85.2632217 178.5826721  22.2871437
  88.7217636 178.2754364  19.2751427  88.5168610 179.4034729  18.9381104
  89.4849091 177.4640808  18.5604019  89.6783829 176.5520172  18.9487591
  90.1217651 177.7934723  17.2447186  89.6745453 178.6458435  16.7332840
  91.5381927 178.2714844  17.4943733  91.9071503 178.6816254  16.5542965
  91.5880280 179.1224365  18.1736984  92.5753479 177.2029877  17.9758625
  92.3700485 176.0361938  17.7258530  93.6294479 177.5531616  18.6851559
  94.4124374 176.9151917  18.6901016  93.8226852 178.5249176  18.8812485
  89.9493866 176.6871033  16.2056599  90.2601852 177.0126190  15.0231791
  89.3638458 175.5529327  16.5123215  89.3104401 175.2632141  17.4784012
  88.7674713 174.7646942  15.4284554  89.5292130 174.3929138  14.7431698
  88.0473099 173.5428925  15.9980774  88.7261124 172.9670868  16.6271839
  87.1910019 173.9066010  16.5660248  87.5340958 172.5422058  15.0267372
  88.3722687 171.6382751  14.3619213  89.4486847 171.6709595  14.4435053
  87.8913803 170.6872864  13.4338198  88.5462646 169.9296417  13.0294476
  86.4968338 170.5794983  13.2573500  85.9508286 169.8343201  12.6978998
  85.6625748 171.4868317  13.9295425  84.5983505 171.3939514  13.7708254
  86.1313400 172.4914856  14.7671824  85.5198441 173.1973114  15.3096628
  87.7158661 175.5883636  14.5895090  86.8673553 176.3007965  15.0795727
  87.8608932 175.4852905  13.2771149  88.6663437 174.9738007  12.9458666
  86.9756241 176.1061401  12.2834587  86.6888428 177.1082306  12.6023540
  87.7229156 176.1823120  11.0240154  88.6607895 176.7290802  11.1216297
  88.0579681 175.1754761  10.7748089  87.0209274 176.7484436   9.7888126
  86.0948486 177.5885468   9.9685917  87.5278473 176.4694672   8.6668377
  85.6813126 175.3239746  12.0892429  85.6508560 174.2392426  11.5623827
  84.6481171 175.8755188  12.7314463  84.8150711 176.7400208  13.2262859
  83.3374939 175.2062225  12.8790359  83.4310684 174.3390045  13.5326977
  82.2521515 176.0857391  13.5053978  81.2519913 175.6636810  13.4071512
  82.5015182 176.3341980  15.0166254  83.4098282 176.9075012  15.2020369
  81.6892776 176.9761658  15.3575802  82.5468445 175.4018707  15.5794935
  82.1765213 177.3751526  12.9129410  82.6743546 178.0914307  13.3138189
  82.7009354 174.7576447  11.5402851  81.9013138 173.8356934  11.5475798
  83.0685959 175.2911987  10.3493214  83.6433334 176.1186371  10.2777166
  82.6425095 174.7068787   9.0683584  81.5728455 174.5371246   9.1912594
  82.8822174 175.6494141   7.9456949  82.5711288 175.2215424   6.9926696
  82.4126053 176.6178894   8.1177568  84.2673950 175.8836670   7.8247066
  84.4100647 176.8189240   7.6618252  83.2805710 173.3209839   8.7171011
  82.7184219 172.5924072   7.9031549  84.3531799 172.9074860   9.3927746
  84.7959976 173.5884247   9.9930563  85.1225815 171.5974579   9.0598803
  85.3063049 171.6395111   7.9862990  86.4209824 171.6212158   9.7901640
  86.3161163 171.8842621  10.8427343  86.9131470 170.6494293   9.7510967
  87.4021988 172.6602478   9.2077112  87.0568542 173.6645813   9.4530239
  88.7091904 172.4526978  10.0683594  88.8608627 171.3738403  10.0341711
  89.4991760 173.0296326   9.5875759  88.5690765 172.8565216  11.0710535
  87.6488113 172.5459900   7.7117081  86.7530289 172.6559143   7.1004949
  88.3256226 173.3004761   7.3107243  88.0204010 171.5271912   7.6018462
  84.4400864 170.1934204   9.2226763  84.8048553 169.2400208   8.5244980
  83.4476929 170.0696716  10.1713781  83.2893295 170.8367615  11.3861523
  82.5151749 171.5911102  11.2456245  84.2078934 171.3810883  11.6053619
  82.8817368 169.7962036  12.4194145  82.3356094 170.2094421  13.2674046
  83.7756577 169.2340240  12.6894989  81.9128189 168.8667297  11.5857954
  80.9657974 169.4011536  11.5106697  81.9071732 167.8727112  12.0329895
  82.5380783 168.9157104  10.1751947  83.2352219 168.0807648  10.1047220
  81.4411392 168.8633881   9.1016750  81.0838165 167.7732849   8.7606955
  80.9234161 170.0265045   8.6708755  81.3040085 170.9029541   8.9980974
  79.7439117 170.2444305   7.8673024  79.1006241 169.4311371   8.2032127
  78.9051895 171.5561218   7.9935403  78.1904678 171.6160126   7.1727571
  78.1212540 171.5649719   9.2763090  78.7081070 171.6302185  10.1925182
  77.3367996 172.3201599   9.2270412  77.5259399 170.6548157   9.3494205
  79.6450500 172.7470703   8.0725470  80.0317993 172.9732971   7.2235212
  80.0229492 170.1290283   6.3828464  79.1228714 169.8538666   5.6280160
  81.3008728 170.2551880   6.0334330  81.9394073 170.6565552   6.7052040
  81.7830734 169.8999176   4.6810946  81.0927505 170.3661957   3.9781404
  83.1066360 170.6592102   4.5379710  83.4593582 170.4811554   3.5221045
  82.9306641 171.7322235   4.6141682  84.0674667 170.2552643   5.4502435
  84.6852417 170.9701385   5.6202598  81.9502792 168.3874207   4.4506855
  81.7595062 167.8967133   3.3007405  82.0419922 167.5620422   5.5730925
  81.9928589 168.0123444   6.4758215  82.2203979 166.0494995   5.5625033
  82.4216766 165.8538208   6.6157341  80.8772049 165.3577576   5.2340436
  80.6110992 165.5583344   4.1962304  81.1147385 164.2988892   5.3363156
  79.7588654 165.7720032   6.1906919  79.3420563 164.9201050   7.1832223
  78.2691574 165.5424194   7.7064257  77.6715927 165.1131744   8.4970312
  77.9148865 166.6459961   7.0374269  77.0252457 167.1126404   7.1417356
  78.9415817 166.8585968   6.1205420  78.9464111 167.5372009   5.2803750
  83.3890228 165.5289001   4.7265673  83.3123169 164.5033417   4.0677204
  84.5275421 166.2003632   4.8281794  84.5100327 166.9759674   5.4749031
  85.8244858 165.8805389   4.1755829  85.7268143 166.0616150   3.1051750
  86.8865433 166.8194122   4.7976618  86.7849884 166.7617645   5.8813896
  87.8547897 166.4461975   4.4640465  86.7878952 168.3208008   4.3776875
  87.2092438 168.2917938   3.3728371  85.7134476 168.4954529   4.3214264
  87.5511627 169.5659332   5.4771271  89.2926178 169.1907806   5.3260808
  89.5144424 169.0901337   4.2636495  89.8732529 170.0090485   5.7519965
  89.5598450 168.2497253   5.8068342  86.2323608 164.3892365   4.3660407
  86.7689362 163.8292084   3.4045026  86.0008698 163.7991943   5.5410700
  85.6304855 164.3965149   6.2664194  86.3844910 162.3998718   5.8575597
  87.4575882 162.2256470   5.7786856  85.9324951 162.1341705   7.3136702
  86.4652939 161.2524719   7.6698365  86.3311539 162.9546509   7.9103155
  84.4177704 162.0068359   7.4694057  83.6100235 163.2094574   7.6723542
  84.0242844 164.1938324   7.8329401  82.2269745 163.0080872   7.7942939
  81.6509247 163.8691864   8.0993662  81.5660400 161.7301483   7.6333828
  80.2197266 161.6291046   7.7916293  79.7711258 162.4698944   7.6757264
  82.4115677 160.6365814   7.4663601  82.0015106 159.6486511   7.3171687
  83.8110046 160.7347260   7.3234444  84.3935318 159.8382416   7.1705079
  85.6852112 161.3779755   4.9258184  86.3094635 160.3326416   4.6762609
  84.4717636 161.6291504   4.3705292  83.9879913 162.4654541   4.6649127
  83.7077179 160.7116547   3.5260224  83.7958298 159.7048340   3.9342546
  82.2500153 161.2528229   3.4745944  81.9280930 161.3671265   4.5096798
  82.3871307 162.2349701   3.0221646  81.1616135 160.5639954   2.5462856
  81.5176697 160.3933411   1.5303143  80.5293198 159.2220459   3.1198323
  80.0613403 159.4284210   4.0823851  79.7815018 158.7734680   2.4658928
  81.3495407 158.5211182   3.2748909  80.0251083 161.5423126   2.3002746
  80.4356308 162.4101410   1.7840829  79.2336578 161.1466675   1.6637421
  79.5993500 161.9107361   3.2335968  84.3302612 160.6455841   2.1262126
  84.5557938 159.5847626   1.5876294  84.7512131 161.7918396   1.6385753
  84.6811523 162.5961456   2.2454309  85.4430466 161.9457245   0.2990357
  86.4480286 161.5237122   0.3027416  84.8519440 161.4026489  -0.4383627
  85.5199051 163.4455109  -0.1650435  84.6264725 164.2649536   0.1255960
  86.5993423 163.8654480  -0.8560806  87.3476868 163.2031097  -1.0023257
  86.5206223 165.1454926  -1.6943505  85.8076706 165.8341217  -1.2409238
  87.9243927 165.7656250  -1.6715212  87.7857437 166.8256531  -1.8841493
  88.3882294 165.6735229  -0.6894455  88.7448730 165.0826263  -2.5708416
  89.6476135 165.3589478  -2.3967717  86.0909882 164.9777069  -3.2065747
  85.9640961 163.8615265  -3.7128158  85.9214478 166.0150909  -4.0034032
  86.1061249 166.8994904  -3.5519109  85.6388779 165.9273834  -5.4494605
  85.2588959 166.9217224  -5.6839991  86.9924622 165.5765686  -6.2697802
  87.7674789 166.2826538  -5.9716263  87.3763046 164.6226959  -5.9079881
  86.8739395 165.5040588  -7.8589768  86.0886688 166.2742767  -8.5277166
  87.7091751 164.7352753  -8.4267807  84.3951645 165.0373688  -5.8735127
  84.4497070 164.1371460  -6.6934328  83.2821732 165.2853241  -5.2014174
  83.3742371 165.9865570  -4.4803767  81.9446640 164.7883148  -5.5630145
  82.0090866 163.7195435  -5.7671742  80.9474335 164.9017029  -4.3904052
  80.7229004 165.9491577  -4.1891212  80.0437012 164.3392944  -4.6250544
  81.5704575 164.3020172  -3.0952363  82.3147888 163.5496674  -3.3561089
  82.0848160 165.1260529  -2.6007636  80.4274826 163.6996307  -1.8488443
  79.6996155 162.2343140  -2.5110741  80.3953171 161.4241943  -2.2924256
  78.7865601 161.9759827  -1.9746979  79.3805542 162.2478180  -3.5532427
  81.3328018 165.4578857  -6.8311825  81.5525284 166.6243439  -7.2059731
  80.3594208 164.7966003  -7.4582357  80.1759491 163.8409729  -7.1876531
  79.3453903 165.4018707  -8.2915735  79.8051453 166.1580811  -8.9278622
  78.7734222 164.3082275  -9.2594795  79.5749054 163.8368835  -9.8282995
  78.2400818 163.5181274  -8.7308960  77.7108688 164.8565216 -10.2528839
  76.7623138 165.1901550  -9.8321543  78.1593323 165.7757721 -10.6296310
  77.4394913 163.8408051 -11.3791704  77.3689270 162.6124268 -11.0362329
  77.2917557 164.2907410 -12.5742569  78.2730026 166.1356049  -7.5108099
  77.3725510 165.4858704  -6.9504094  78.2345886 167.4783325  -7.6659536
  78.8549423 167.9334869  -8.3202524  77.1453323 168.2664795  -7.0785165
  76.7948074 167.7708435  -6.1732121  77.6740723 169.6594391  -6.6990762
  78.2525177 170.1666412  -7.4712386  76.8028488 170.2814789  -6.4938078
  78.4676208 169.6444397  -5.3974133  77.9304733 169.0556641  -4.6538277
  79.4319687 169.1666718  -5.5702462  78.7337341 171.0913239  -4.8481355
  77.8780975 172.0571442  -4.8809733  79.8542252 171.3013916  -4.3328381
  75.9608841 168.4335022  -8.0737314  76.1996918 168.7270813  -9.2415152
  74.7149658 168.4487610  -7.4961252  74.7077866 168.3854980  -6.4881339
  73.4759674 168.9441833  -8.1287384  73.6588287 169.1664124  -9.1800632
  72.3902435 167.8607330  -7.9346786  72.3826065 167.7524872  -6.8500938
  71.4178696 168.2826080  -8.1888475  72.6576843 166.5216675  -8.5790148
  72.0440750 166.2213593  -9.8301668  71.3712616 166.9201508 -10.3049526
  72.1984940 164.9367218 -10.3798304  71.6730499 164.6575623 -11.2811546
  73.0735245 164.0517426  -9.7255487  73.2476883 163.0586090 -10.1125212
  73.6418152 164.3652802  -8.4778957  74.1929855 163.6155701  -7.9296732
  73.5342407 165.6395874  -7.9677715  73.9630356 165.9063110  -7.0130997
  72.9487457 170.3064575  -7.6401238  73.0828629 170.6985474  -6.5058961
  72.3462219 171.0709991  -8.5583620  72.2209015 170.6964569  -9.4879446
  71.8168716 172.4160461  -8.3021507  72.0194626 172.7499084  -7.2845054
  72.5365448 173.4270172  -9.2280636  72.2863235 174.4539490  -8.9618111
  73.5956802 173.4219818  -8.9705334  72.3742218 173.2254333 -10.7239256
  73.2090454 172.5429688 -11.5769968  72.6901779 172.6755676 -12.8104725
  73.0572891 172.1495209 -13.6793327  71.4859238 173.3319702 -12.6893015
  70.8340988 173.4500275 -13.4517250  71.3286667 173.7913513 -11.3908653
  70.4982910 174.3058624 -10.9302731  70.2567444 172.5623627  -8.3856535
  69.6907578 173.5200195  -7.8185625  69.5212097 171.6881409  -9.0898552
  69.9587173 170.8655396  -9.4797440  68.0395203 171.7186432  -9.0434122
  67.6511383 172.7091217  -9.2805138  67.6683502 171.1631317  -9.9046650
  67.5075302 171.2028503  -7.6848392  67.9766083 170.1886292  -7.1615400
  66.5772400 171.9214478  -7.0711889  66.2350082 172.7509460  -7.5347881
  65.7851257 171.5715485  -5.9005151  66.3577881 170.8414764  -5.3285398
  65.5186844 172.8939209  -5.1140847  64.9090500 173.5523071  -5.7329330
  65.0099716 172.6737061  -4.1755633  66.8085785 173.6228180  -4.6590400
  67.5346756 173.6177063  -5.4719672  66.5623627 174.6584625  -4.4246750
  67.4692841 172.8940582  -3.4814725  66.7680664 172.7410431  -2.6611180
  67.7237701 171.9546051  -3.9721406  68.7070465 173.6399078  -3.0393667
  69.5485077 173.2857513  -3.4713731  68.8167496 174.6961212  -2.2047818
  67.8454437 175.4351807  -1.7934250  66.9059219 175.2023621  -2.0818484
  68.0895309 176.3456116  -1.4306099  69.9496078 175.0989532  -1.9064606
  70.7364197 174.5439148  -2.2113349  70.1208725 175.7682800  -1.1697205
  64.5034790 170.8564758  -6.2840753  63.7607346 171.3684387  -7.0945935
  64.2922440 169.7271729  -5.6285706  64.9991684 169.2395172  -5.0970082
  62.9840546 168.9776306  -5.7701674  62.5962601 169.1971588  -6.7649188
  63.2507362 167.3999023  -5.6598768  63.9212189 167.1660614  -4.8329120
  61.9771767 166.6033325  -5.6453166  61.4508095 166.8244781  -6.5738306
  62.1889229 165.5397034  -5.5359540  61.3844566 166.7184601  -4.7378325
  64.0233688 167.0268860  -6.7645845  64.0092468 166.0814056  -6.9303336
  61.9863319 169.4263916  -4.6806445  62.2537766 169.2745972  -3.4966075
  60.7816620 169.9244995  -5.0567179  60.7338104 170.1361237  -6.0431390
  59.6501045 170.1411896  -4.2051487  59.8373985 169.6508636  -3.2498512
  59.5270386 171.6204529  -3.9086261  59.5147896 172.1340942  -4.8699393
  58.5316353 171.8157349  -3.5097058  60.4803963 172.1423645  -2.9051766
  61.4370461 171.6638947  -3.1149268  60.5761032 173.6470947  -2.9478805
  59.6032372 174.1283569  -2.8478336  61.3200798 173.9592133  -2.2149575
  60.8773689 173.9524994  -3.9499106  60.0621986 171.7112122  -1.4528543
  59.7147560 170.6790161  -1.4968320  60.9799995 171.7599335  -0.8668795
  59.3915977 172.4528961  -1.0189049  58.3141632 169.6442108  -4.8355350
  57.9716034 170.1761475  -5.8864036  57.6235161 168.6882019  -4.1682153
  58.0444450 168.3301239  -3.3228128  56.1989021 168.2262268  -4.4081144
  56.0892906 168.2299500  -5.4925828  55.9873924 166.7661743  -3.9412518
  55.9553261 166.6379547  -2.8592947  55.0333710 166.5021515  -4.3975797
  57.0019188 165.7469177  -4.3867292  58.1354179 165.4171448  -3.7344759
  58.7783508 164.4813232  -4.4557962  59.6980782 163.9896698  -4.1751156
  58.0700722 164.2020416  -5.5384746  58.3004189 163.4252625  -6.1415172
  56.9193382 164.9393768  -5.4896302  56.1000175 164.9806671  -6.1920595
  55.1792526 169.1859436  -3.7649662  55.5606155 169.9252319  -2.8541703
  53.9637566 169.2410278  -4.3438721  53.7662086 168.6481323  -5.1373167
  52.8799286 170.1198578  -3.8651633  53.2585030 171.1395111  -3.7939205
  51.7705994 169.9928284  -4.9202471  51.3920670 168.9707489  -4.9340119
  50.9455528 170.6164398  -4.5759940  52.1871071 170.5602112  -6.2950864
  52.7696838 171.6968689  -6.4271417  51.8041534 169.9201202  -7.3155417
  52.3326836 169.7409515  -2.4629803  52.2673111 168.5600739  -2.1102011
  51.8105469 170.7624359  -1.7012010  51.7076492 171.6278992  -2.2115858
  51.3586388 170.4761047  -0.3451611  52.2017403 170.0081787   0.1630913
  51.0673981 171.7173004   0.3816975  50.2284050 172.1869354  -0.1317646
  50.6083069 171.5241394   1.3512431  52.3683395 172.5776215   0.4687274
  53.4483223 171.9840698   0.6199484  52.2688293 173.7886505   0.3904778
  50.1394958 169.5302124  -0.2836748  49.2277412 169.4887543  -1.0862073
  50.1829262 168.6451569   0.7436630  50.9962654 168.6311188   1.3423159
  49.3138428 167.4698639   1.0173013  49.7787094 166.8427429   1.7780336
  47.9077492 167.9117889   1.5759076  47.5434952 168.7246094   0.9476319
  47.2119675 167.0871582   1.4210279  47.9814682 168.2957001   3.0181761
  48.5824356 167.5503998   3.8145194  47.3320999 169.3221893   3.4212420
  49.1132202 166.4918213  -0.1705145  48.3275223 165.5475769  -0.0910654
  49.7731895 166.6748657  -1.3131483  50.1845741 167.5739441  -1.5193344
  49.7672920 165.6527405  -2.3641949  48.7469292 165.5994568  -2.7438202
  50.6133385 166.1368561  -3.5284975  50.4181976 165.5047760  -4.3948011
  50.3344116 167.1618347  -3.7728574  52.0256386 166.1036072  -3.2926407
  52.1664886 166.8631897  -2.7227321  50.2635345 164.2319031  -1.8984017
  51.1655960 164.1977844  -1.0021315  49.5779037 163.1860352  -2.3759086
  48.7373009 163.3893127  -2.8975992  49.8142433 161.7574921  -2.1525028
  50.2452736 161.6144714  -1.1616164  48.5277977 160.8650208  -2.1546781
  47.9061203 161.2154236  -1.3307648  47.9339752 160.8727417  -3.0686908
  48.9279327 159.1189117  -1.8960829  48.1441956 158.5669556  -2.8266733
  50.8374748 161.3427582  -3.2632344  50.7212105 161.7488861  -4.4198489
  51.9406128 160.6428070  -2.8607836  51.8601418 160.3773346  -1.8896252
  53.1786766 160.3976898  -3.5740497  53.0112228 160.4296722  -4.6506348
  54.2172966 161.4532928  -3.2270906  54.2837601 161.4281616  -2.1394093
  55.1719742 161.1049500  -3.6212413  53.9205742 162.8937378  -3.5623314
  53.0626945 163.2556152  -2.9956121  54.7528877 163.5612335  -3.3391814
  53.6176147 163.0757904  -5.0452557  54.0889931 162.3399506  -5.9019723
  52.9272079 164.1181183  -5.4825091  52.8156242 164.2901306  -6.4714828
  52.6683083 164.8647308  -4.8535085  53.8231506 158.9931183  -3.2501507
  53.7279549 158.5904388  -2.1085632  54.4713440 158.2746887  -4.2020998
  54.5908165 158.6130219  -5.1462212  55.3007927 157.1042633  -3.8622200
  54.9875793 156.8878784  -2.8408594  54.8432388 155.8586578  -4.7089496
  53.7713737 156.0550079  -4.7345352  55.1706047 155.7928314  -6.2413912
  56.2478294 155.7095184  -6.3854690  54.6722374 154.9448700  -6.7111726
  54.8444481 156.7539062  -6.6389623  55.2999611 154.5148621  -4.0470467
  54.8192062 154.3390503  -3.0847225  54.9435806 153.6837311  -4.6555738
  56.3841286 154.4246063  -3.9797378  56.7798843 157.3935089  -3.9105172
  57.2675056 157.8924713  -4.9307308  57.5463409 157.0553131  -2.8714221
  57.1439285 156.5288239  -2.1092055  59.0089264 157.3327026  -2.6808872
  59.3886833 157.4948273  -3.6896513  59.1770096 158.6818085  -1.8766910
  58.8990593 158.5361023  -0.8328447  60.6159325 159.1790619  -1.8441199
  60.9133415 159.6782379  -2.7663302  60.6936340 159.9056244  -1.0353066
  61.3271217 158.3765869  -1.6483307  58.2509918 159.8426819  -2.4020338
  58.5132027 160.0126801  -3.4462800  57.2180939 159.5412445  -2.2278159
  58.3257561 161.2224274  -1.7509857  59.2823906 161.7089996  -1.9412485
  57.5970764 161.9132690  -2.1750913  58.1198120 161.1930237  -0.6810217
  59.8589478 156.2230225  -2.0963480  59.4646416 155.6539917  -1.0718970
  61.0143242 155.8334198  -2.7548959  61.6648254 156.4418640  -3.9187725
  61.8846626 157.5006256  -3.7816808  60.9868317 156.4346619  -4.7722201
  62.8983650 155.6051483  -4.2041545  63.7735329 156.1014404  -3.7847884
  63.0334930 155.5057831  -5.2811718  62.7255859 154.3009644  -3.4436169
  63.6951561 153.9542236  -3.0861251  62.3638535 153.5069275  -4.0968852
  61.7612038 154.6221466  -2.3027985  60.9924355 153.8506927  -2.2586942
  62.5040779 154.9566345  -1.0095067  62.8276558 156.1174164  -0.7165802
  62.8469391 153.9338989  -0.2478558  62.6907234 153.0021515  -0.6049802
  63.5013237 154.0865173   1.0777971  63.8587189 155.0963440   1.2793581
  62.5658875 153.5799408   2.2415478  62.3436584 152.5187225   2.1295784
  63.2466888 153.5850677   3.6195493  63.6947289 154.5508881   3.8531053
  62.4673195 153.3955994   4.3576407  63.9977646 152.7951355   3.6219728
  61.1730804 154.2791748   2.2862988  60.6720314 154.1001282   1.3349860
  60.6239243 153.7650604   3.0751026  61.2810745 155.3448029   2.4885058
  64.7819672 153.2476349   1.0767155  64.6268539 152.0618286   0.9091938
  65.9890900 153.8165894   1.4757099  66.1228867 154.8072510   1.6199154
  67.1073380 152.8968506   1.7767348  67.1598663 152.2197571   0.9241646
  68.4642029 153.6231537   1.8890188  68.2926712 154.4394073   2.5907283
  69.2027130 152.9442444   2.3153884  69.0910034 154.2651215   0.6201164
  68.3569260 154.8655090   0.0827522  70.2109756 155.2604370   0.9613108
  71.0268173 154.6736908   1.3834959  70.6078949 155.7652130   0.0805447
  69.8773422 155.9820862   1.7069764  69.8235779 153.2059937  -0.2285714
  69.0723343 152.4762726  -0.5306427  70.3326111 153.6835785  -1.0657728
  70.5540161 152.5950928   0.3018583  66.8844910 152.0774384   3.1190753
  66.6950073 152.7027893   4.1547570  66.7929459 150.7454376   3.0735550
  66.8675079 149.9033966   1.9100063  67.8177872 150.1038818   1.4151518
  66.0169296 150.1764832   1.2854666  66.7886200 148.4617920   2.4370356
  67.7500992 148.0023651   2.6663623  66.2508316 147.7880859   1.7699560
  65.9124222 148.6152802   3.7335062  66.1374588 147.8652496   4.4917293
  64.8864441 148.5532074   3.3707194  66.2769852 150.0026245   4.2008982
  65.3099823 150.4021301   4.5065122  67.2227783 149.9071350   5.4238052
  66.7114868 149.7921753   6.5084043  68.5822906 149.8988495   5.2735124
  68.9613953 150.0126038   4.3442974  69.5554047 149.9403534   6.3949142
  69.1119843 149.2897797   7.1487303  70.8758087 149.2659149   5.8589325
  71.2919083 149.8369904   5.0289698  71.6696625 149.2997284   6.6050901
  70.7015839 147.8727264   5.4033942  70.1721725 147.4199829   4.1840401
  70.1769562 146.0611877   4.2501426  69.7933731 145.4248962   3.4663100
  70.5541000 145.7121735   5.5144238  70.7444916 144.7644043   5.8069577
  70.9243317 146.8256531   6.2153387  71.4201736 146.8976746   7.1720805
  69.7228546 151.2880707   7.1443915  70.3885193 151.3423157   8.1833096
  69.1378860 152.3543396   6.5879931  68.7177963 152.2457886   5.6759410
  69.1548996 153.7546082   7.1178460  70.1375198 154.0051575   7.5175629
  68.8595963 154.7911530   5.9726777  67.8761368 154.5865936   5.5495214
  68.7199554 156.1857300   6.5418277  69.6293030 156.4036865   7.1019149
  68.6719742 156.9657135   5.7819433  67.8570251 156.2342072   7.2059774
  69.9594574 154.7427826   4.9078054  70.0444031 153.7414551   4.4856362
  69.7340775 155.4330444   4.0948782  70.8768234 154.9106445   5.4720316
  68.0715408 153.8430634   8.2676897  66.8822632 153.9518433   7.9535289
  68.5149307 153.9809265   9.4890776  69.5043869 153.8140411   9.6040459
  67.6576462 153.8201752  10.6374798  66.6696625 153.4555054  10.3563652
  68.1704025 152.6379852  11.5753231  69.2530136 152.7646179  11.5770206
  67.6882629 152.5962830  12.5520048  67.8180389 151.3331757  10.9031801
  66.7365189 151.3272400  10.7676249  68.1516190 151.3272552   9.8654909
  68.2292709 149.7878265  11.7959776  69.2835617 148.9214020  10.5684214
  70.1647110 149.5453186  10.4187040  69.4827042 147.9058838  10.9107037
  68.8351974 148.8317261   9.5789595  67.3425674 155.0625000  11.4664049
  66.4122543 155.0613403  12.2633944  68.0988846 156.1546326  11.3250523
  68.8249817 156.1503448  10.6230040  67.9595718 157.3483429  12.1229267
  67.8361130 156.9937286  13.1462078  69.2018204 158.2487030  12.1199913
  68.8551025 159.0839233  12.7284985  70.4317093 157.5671692  12.8257704
  70.8075943 156.7112885  12.2651577  71.2704620 158.2387543  13.0089865
  70.1605301 157.1247864  13.7843418  69.6394730 158.7753143  10.7041903
  68.7631302 159.1819458  10.1994467  70.3382797 159.6092529  10.7698975
  70.0668182 157.9546051  10.1280613  66.7431641 158.1396484  11.6712589
  66.4781265 158.1516876  10.4973822  66.1171494 158.9227295  12.5817261
  66.4472046 158.9582825  13.5356131  65.1174316 159.9004669  12.1073637
  64.4540405 159.3713226  11.4232550  64.2725983 160.3184814  13.3366585
  63.8509140 159.3842621  13.7075033  65.0548172 160.6566315  14.0162849
  63.0886345 161.2446594  13.0489283  63.4486961 162.1278839  12.5213156
  62.4405708 160.7022247  12.3605433  62.2217751 161.8841553  14.4733839
  62.3689308 160.4109344  15.5509186  63.3709946 160.1452789  15.8876572
  61.7465477 160.6637878  16.4092884  61.9792747 159.5139160  15.0696745
  65.7678604 161.1057434  11.3829145  66.5489120 161.7821503  12.0139427
  65.5239639 161.3664093  10.1008015  64.9522095 160.7394867   9.5529137
  65.9661407 162.5843506   9.4507923  66.9712524 162.8087616   9.8078356
  65.9348450 162.3053436   7.8944035  66.5767975 161.4475708   7.6938629
  64.8951035 162.0686951   7.6684833  66.4092636 163.4656982   7.0840535
  65.8360672 164.3562622   7.3418221  67.9109268 163.7819977   7.3291593
  68.5594254 162.9548035   7.0405574  68.1655121 164.6574707   6.7317953
  68.0576706 164.0984802   8.3618269  66.3078537 163.1221008   5.5784578
  65.2359619 163.0775604   5.3856964  66.8509674 163.8237305   4.9453278
  66.7570648 162.1307526   5.5189033  64.9647980 163.7151337   9.8284807
  63.7651596 163.4347076   9.6447573  65.4299774 164.9081573  10.2519455
  66.4114380 164.9026642  10.4902582  64.7407913 166.2172699  10.4263630
  63.6752167 165.9933624  10.4765911  65.1120071 166.9308014  11.7250566
  66.1783218 167.1434784  11.6486225  64.3348312 168.2638397  11.8850803
  63.2820854 168.0749817  11.6749420  64.4576950 168.5293427  12.9350843
  64.7491455 168.9877014  11.1833258  64.8623810 165.9926147  12.9157219
  65.4190903 165.0660553  12.7755270  65.2989883 166.3977814  13.8285904
  63.4905357 165.4941101  13.2624254  63.0425491 164.9616699  12.4234247
  63.6066246 164.8700714  14.1485424  62.8389320 166.3371735  13.4921083
  64.9812775 167.1037445   9.1715918  66.1222000 167.1109467   8.7005033
  63.9941788 167.8010406   8.5704498  62.5748634 167.7579498   8.8054810
  62.3779106 168.3519745   9.6979160  62.2404366 166.7261810   8.9136906
  61.9262772 168.4648590   7.5961442  60.9307556 168.8600922   7.7982316
  61.8661156 167.6645660   6.8585820  62.9711571 169.5219879   7.1928701
  62.8869743 170.4352722   7.7818875  62.8926086 169.8001862   6.1419020
  64.3086395 168.8023987   7.4784632  64.4519882 168.2047272   6.5782771
  65.4663162 169.7446289   7.7144051  65.7628250 170.0769501   8.8442402
  66.1437378 170.1542358   6.6765366  65.6599274 170.1065979   5.7912374
  67.3933105 170.9373627   6.7189956  67.6169968 171.1707916   5.6780457
  67.2171249 171.8872833   7.2236924  68.6184158 170.2631378   7.3351817
  69.7255478 170.7332306   7.1011453  68.4802704 169.0919189   7.9779091
  67.5472107 168.7109375   8.0439243  69.6110611 168.2374115   8.4706964
  70.2348251 168.7057190   9.2320757  69.0075378 167.1043243   9.3469028
  68.4189682 167.5427399  10.1528044  68.3779297 166.4954681   8.6980705
  70.1025162 166.1914825  10.0039749  70.6072464 165.6516113   9.2027874
  70.7609329 166.8206787  10.6028948  69.4785538 165.1481476  10.9455633
  68.2901764 165.0296173  11.1729937  70.2908707 164.2131653  11.4490490
  69.8714981 163.5027008  12.0316925  71.2749023 164.2378235  11.2228079
  70.3749084 167.6560059   7.3373609  69.7532120 167.1763763   6.3757119
  71.7123337 167.6604767   7.3804603  72.1513062 168.0629578   8.1961851
  72.5431976 166.9793243   6.3272500  71.9570923 166.9468994   5.4088092
  73.7843781 167.8085938   6.0692959  74.2714233 167.9392700   7.0356393
  74.7895737 167.1736298   5.1144223  74.3194199 166.8411560   4.1889443
  75.4813538 167.9868317   4.8947668  75.4077911 166.4150238   5.5944371
  73.4880753 169.0452728   5.5059381  74.0412827 169.7066650   5.9279804
  72.8416061 165.5332794   6.7680664  73.0816650 165.2219391   7.9400473
  72.7535782 164.5088654   5.8443112  72.5674744 164.8047791   4.8967361
  72.8311462 163.1044464   6.0797563  73.1462326 162.9320679   7.1088853
  71.4211884 162.5425110   5.7116623  70.6107864 162.9561005   6.3119092
  71.2219009 162.7287292   4.6563387  71.4230499 161.0088654   5.9279361
  72.0711288 160.5580597   5.1763582  71.9253387 160.5357513   7.3044596
  71.8314056 161.3607941   8.0105753  71.4863358 159.5988159   7.6472998
  72.9949951 160.4074402   7.1387053  70.0054474 160.5451813   5.7066846
  69.5269394 160.8834534   4.7876062  69.9258347 159.4580841   5.7064528
  69.3723907 160.9744873   6.4832449  73.9894867 162.6112518   5.0932207
  73.6937027 162.3523102   3.9348674  75.2116776 162.4527435   5.5616155
  75.6560669 162.7004089   6.9496441  75.0029907 162.2441864   7.6935892
  75.6881485 163.7843323   7.0599041  77.0165024 162.0705414   7.0451860
  76.8745270 161.0452576   7.3868451  77.6166229 162.6609497   7.7375636
  77.5464401 161.9560547   5.5664382  78.2512436 161.1288910   5.4818521
  77.9382095 162.9281616   5.2670465  76.2243729 161.7752991   4.8704052
  76.2864685 162.0531921   3.8182552  75.9840546 160.3002472   4.8864889
  75.4816208 159.7475586   5.8692112  76.3094788 159.5628204   3.8293316
  76.4687195 160.0569611   2.9629743  76.1037292 158.0821381   3.7237606
  76.0705338 157.6258240   4.7130885  74.6886978 157.6802368   3.0951836
  74.6928406 158.1810608   2.1270566  74.6028366 156.6023712   2.9576292
  73.4143906 158.0307159   3.8635204  73.6435318 159.0117798   4.2795858
  72.2343521 158.0644531   2.8664873  72.1809998 157.1053619   2.3513355
  71.3740311 158.4197235   3.4337072  72.4024658 158.9005432   2.1876721
  73.0519257 157.1015778   5.0068383  73.7730408 157.3055115   5.7983623
  72.0964890 157.4456940   5.4028544  72.9935837 156.0591583   4.6936960
  77.1469116 157.3979492   2.8031142  77.5399246 157.8865967   1.7878667
  77.5987625 156.1553497   3.1074183  77.2077026 155.8430786   3.9847212
  78.3328934 155.2698975   2.2762415  78.4673004 155.7131958   1.2895725
  79.7773132 155.0423279   2.8654037  80.3354721 155.9767303   2.9242153
  79.6094131 154.7840118   3.9109604  80.7406082 153.9115143   2.3193679
  80.3494873 152.9754181   2.7179370  80.7799530 154.0155945   1.2350609
  82.2240829 154.0614166   2.7292335  82.5391159 154.9430389   3.5556483
  83.1942520 153.3059692   2.2136788  84.1585693 153.4055328   2.4970014
  82.8448105 152.6490631   1.5306903  77.6665497 153.9548645   2.0924437
  77.1930313 153.3745422   3.1014895  77.4283524 153.4785461   0.8637832
  77.9196091 153.9597626   0.1240559  76.4841919 152.4775848   0.4583033
  76.0021439 152.0632172   1.3437577  75.3945618 153.1447601  -0.4330887
  75.8153839 153.4403229  -1.3941541  74.6546631 152.3654633  -0.6156580
  74.6943970 154.3823090   0.1227625  75.4306030 155.1658020   0.3023155
  73.7453384 155.0187836  -0.8514758  72.9544144 154.3392487  -1.1689235
  73.3839111 155.9167786  -0.3503987  74.2371597 155.2773895  -1.7892083
  73.9281311 154.1208649   1.4043919  74.5480423 153.7425842   2.2172365
  73.5125427 155.0541077   1.7844474  73.1756897 153.3480225   1.2474291
  77.2507248 151.3952179  -0.3551431  77.8569183 151.7054596  -1.3806192
  77.2425385 150.1344604   0.1329677  76.7128754 150.0209656   0.9854211
  78.0857010 148.9498596  -0.3260386  78.3608322 149.1248779  -1.3661205
  79.3585968 148.8863068   0.5393934  80.0357819 148.1580658   0.0930953
  79.7837524 149.8850403   0.4399755  79.1091766 148.5592651   1.9980603
  78.5688858 149.5670929   2.8404169  78.5635757 150.5497589   2.3923531
  78.1941223 149.2474823   4.1273303  77.7017136 150.0329590   4.6813631
  78.2860718 147.9746857   4.6408572  78.0160370 147.7972107   5.6713853
  78.6938934 146.9279022   3.7381041  78.6282730 145.9348450   4.1575594
  79.1095200 147.2056885   2.4157109  79.2586441 146.4069672   1.7042357
  77.3638535 147.5567322  -0.2921637  78.0086517 146.5745697  -0.6253678
  76.0570450 147.4952545  -0.0685022  75.5679016 148.3422699   0.1833293
  75.2010193 146.3938141  -0.3819516  75.7047882 145.4308777  -0.4661668
  74.0706863 146.2978058   0.6048135  73.4498749 147.1928101   0.6453211
  73.4755325 145.4450684   0.2781057  74.5686417 145.9656372   2.0158055
  74.5992126 144.6301117   2.4716065  74.9509277 144.7265320   3.7706904
  75.1231384 143.8317413   4.3504300  75.2614365 145.9863281   4.0687985
  75.5000153 146.2518921   5.0136065  74.8938522 146.8009186   3.0398879
  74.7032852 147.8637238   3.0623548  74.5884628 146.6672211  -1.8565445
  73.9476700 147.7186890  -2.0069680  74.5895767 145.6933899  -2.8093984
  75.2092667 144.3437042  -2.7654023  75.2019882 143.8815918  -1.7782331
  76.2612305 144.4378815  -3.0348568  74.4884262 143.5240784  -3.8173492
  73.4840775 143.3362427  -3.4377341  74.9976501 142.6350555  -4.1894388
  74.3806381 144.5805359  -4.9295335  73.5017014 144.3582306  -5.5346379
  75.3217316 144.6411896  -5.4761300  74.2268372 145.9417267  -4.2693453
  74.9515152 146.6096954  -4.7349124  72.8458939 146.5130005  -4.5992718
  72.6986542 147.2399597  -5.5935631  71.8530426 146.2321777  -3.7818379
  72.0264664 145.6162415  -3.0004053  70.5161591 146.7272949  -3.8796151
  70.2557602 146.7299957  -4.9380546  69.5447922 145.7381439  -3.1566241
  68.5333023 145.9246521  -3.5174596  69.7995834 144.7340851  -3.4958141
  69.4357147 145.6559601  -1.6686677  69.3552856 146.6867371  -1.3235101
  68.5508347 145.0927277  -1.3722544  70.5727386 144.9311981  -0.9073713
  71.7413025 144.9232788  -1.2708435  70.2824173 144.4266663   0.3189074
  71.0291367 143.9357147   0.7895152  69.3224258 144.3510437   0.6235406
  70.5279694 148.1821442  -3.4376578  69.9307938 149.0422821  -4.0620346
  71.3322296 148.6227570  -2.4553528  71.9566040 147.9448090  -2.0422547
  71.5591583 150.0705261  -2.0944009  70.5822144 150.5335999  -1.9556975
  72.3167038 150.1768951  -0.7971306  73.3301697 149.7759399  -0.8114986
  72.4885483 151.2398376  -0.6276361  71.5371628 149.5660095   0.3993406
  70.5092392 149.9258270   0.3543497  71.5417023 148.4760437   0.3926321
  72.1652222 150.0750580   1.6860313  73.4065247 149.9145508   1.8200787
  71.4211578 150.4839325   2.6281459  72.3220444 150.8836823  -3.1403856
  72.0957108 152.0571899  -3.3992498  73.2908478 150.2321625  -3.7744434
  73.6294403 149.3472137  -3.4246807  73.9844437 150.7984009  -4.9915905
  74.3118515 151.7795410  -4.6476717  75.2306137 150.0297394  -5.4664135
  74.9339600 149.0667877  -5.8821416  76.0112076 150.8526611  -6.4638348
  76.3696518 151.7487640  -5.9572358  76.7830887 150.2132111  -6.8920918
  75.4254913 151.1811371  -7.3224044  76.1439972 149.6302185  -4.3416920
  75.6877441 148.9845581  -3.5913253  76.9577408 149.0567780  -4.7856250
  76.5615768 150.5124512  -3.8565037  73.0457611 150.9745026  -6.1780429
  73.0408783 152.0618591  -6.7769938  72.2644653 149.9425964  -6.5671887
  72.4070969 149.1051941  -6.0208240  71.3408890 149.9287567  -7.6940079
  71.9758911 150.2434845  -8.5221586  70.8262253 148.5348358  -7.9248829
  71.6874542 147.8782196  -7.8013811  70.0251694 148.3154602  -7.2189889
  70.4470367 148.3774261  -9.2397728  69.8881989 147.6043243  -9.3475113
  70.2374649 150.9462585  -7.6820922  69.9694214 151.5940552  -8.7156706
  69.6136932 151.0766602  -6.4787974  69.9686279 150.5491028  -5.6940703
  68.5620956 152.0584564  -6.1486845  67.7202072 151.8681793  -6.8143563
  68.1250534 151.7724457  -4.6681476  68.1565094 150.7102814  -4.4254265
  68.8692245 152.2142792  -4.0055017  66.6802750 152.1890259  -4.3173666
  66.0182648 151.9426880  -5.1475234  66.3907166 151.7476654  -3.3637104
  66.3920593 153.9397278  -4.1468363  67.2280502 154.3539734  -2.6113112
  68.2766724 154.0743713  -2.7128310  67.2059555 155.4205933  -2.3878317
  66.7625732 153.8208008  -1.7823629  69.0665512 153.4793854  -6.3538976
  68.4152222 154.2343903  -7.1419010  70.2081985 153.8833008  -5.7559524
  70.6688766 153.2848511  -5.0853271  70.6235123 155.2755890  -5.9110098
  69.7526703 155.9082031  -5.7391167  71.6350098 155.7497253  -4.8216047
  71.8060913 156.7988739  -5.0626869  71.1914520 155.6092834  -3.3966339
  71.5165482 154.6219940  -3.0684791  71.7198410 156.3813171  -2.8372989
  70.1090622 155.7045898  -3.3103702  72.9905014 155.0924072  -4.9644575
  73.4016953 155.1015320  -5.9738774  73.6326294 155.7053680  -4.3319554
  73.0353012 154.0349121  -4.7040849  71.1031036 155.4891663  -7.3695917
  70.7850876 156.5821991  -7.9113011  71.7379684 154.5478516  -8.0187283
  72.0816269 153.7465363  -7.5089412  72.0517502 154.5852966  -9.5027008
  72.7054062 155.4459076  -9.6447430  72.8159637 153.3546143  -9.9496202
  73.6390381 153.1719055  -9.2587824  72.1850357 152.4669800  -9.9033871
  73.3993530 153.5336456 -11.3309145  72.6466904 153.8700409 -12.0439653
  74.0661545 154.3906250 -11.4261665  74.1822357 152.2871246 -11.8053694
  73.4631729 151.4683685 -11.8317947  74.5228348 152.3853149 -12.8361216
  75.3252563 151.9565887 -10.8893318  75.7635574 152.7779388 -10.4976826
  75.9866943 150.8220062 -10.6337128  75.6172562 149.6425476 -11.0193834
  74.6515732 149.5266724 -11.2916498  76.2020111 148.8250275 -10.9202766
  77.1379700 150.9841309 -10.0514889  77.2893600 151.8808136  -9.6120234
  77.6589203 150.1545715  -9.8053923  70.8437500 154.9477234 -10.3836622
  70.9345322 155.9675140 -11.0204258  69.7320099 154.2030334 -10.4160748
  69.7389755 153.4135895  -9.7861214  68.5545044 154.4013367 -11.2678156
  68.8320465 154.6502991 -12.2920656  67.8389587 152.9996185 -11.3906517
  67.4606552 152.6741791 -10.4215870  66.9466400 153.1302948 -12.0028543
  68.6905594 151.8710938 -11.9818830  69.7933731 152.0699615 -12.5054207
  68.1578293 150.6488495 -12.0131588  68.6967545 149.9280243 -12.4714985
  67.2949295 150.4525604 -11.5263634  67.6279755 155.5033875 -10.7860956
  66.7135773 155.8685760 -11.5075836  67.8374023 156.0934601  -9.6319113
  68.6504364 155.7454529  -9.1440868  67.2167435 157.3327942  -9.0718431
  66.2099304 157.4158173  -9.4811544  67.1518097 157.1265259  -7.4909329
  66.5342789 156.2493134  -7.2979336  68.1554260 156.9118958  -7.1237755
  66.6527634 158.3532715  -6.6366587  67.3235168 159.2004852  -6.7796259
  65.1984406 158.6769257  -7.1188965  64.7792664 157.6712799  -7.0861721
  64.7824402 159.3462982  -6.3659034  65.2655716 159.1649933  -8.0912104
  66.6580200 158.0525665  -5.1188054  67.6780396 157.9166870  -4.7593493
  66.1528320 158.8417511  -4.5619607  66.0939636 157.1319275  -4.9692769
  67.9348145 158.5928955  -9.4995689  67.2863617 159.6091461  -9.7859421
  69.2610626 158.5669861  -9.6285610  69.7722702 157.7617493  -9.2963839
  70.0641556 159.7593079  -9.8882151  69.7169189 160.5227966  -9.1920738
  71.5749207 159.5681610  -9.4947062  71.6300812 158.6595306  -8.8951569
  72.4595261 159.1590424 -10.7081366  72.6048431 160.0730133 -11.2840042
  73.3853836 158.6982727 -10.3637819  71.8949127 158.3854523 -11.2286148
  72.2551193 160.7724152  -8.8000259  73.3253708 160.6344757  -8.9537373
  71.8566360 161.6822205  -9.2489910  71.9136200 160.7344055  -7.3128052
  72.1264648 159.7594757  -6.8742347  72.4885178 161.5072937  -6.8026791
  70.8870468 161.0085449  -7.0697479  69.8563461 160.3208160 -11.3170910
  70.1960907 161.4843292 -11.6240854  69.2559967 159.5668640 -12.2311563
  69.1261292 158.5821533 -12.0479727  68.8083572 160.0020905 -13.5816250
  69.3996124 160.8671265 -13.8820066  68.9797211 158.8854828 -14.6347408
  68.8689194 157.9277649 -14.1262102  68.1385803 158.9618835 -15.3237658
  70.3353882 159.1019135 -15.4066086  70.3198395 158.2456360 -16.0808849
  70.3667908 160.0259705 -15.9838753  71.5900040 158.9559479 -14.5503187
  72.3669586 159.8838959 -14.4091635  71.8822098 157.8125763 -14.0159883
  72.7032623 157.7812042 -13.4286327  71.3595657 156.9577332 -14.1432076
  67.3955765 160.6360016 -13.6375036  66.8585281 160.9018860 -14.7289572
  66.7223892 160.7241974 -12.4646339  67.1979065 160.4606018 -11.6134586
  65.4430389 161.3318481 -12.2158241  65.2063141 161.9780884 -13.0610790
  64.2733688 160.2147980 -12.2719574  63.3057365 160.6874084 -12.1033459
  64.2425385 159.8371429 -13.2939768  64.5119629 159.0052032 -11.3771076
  65.5498581 158.6993103 -11.5086708  64.3256760 159.3844604 -10.3723373
  63.4936562 157.8737335 -11.5943480  63.3141479 157.2419281 -10.7244635
  62.4904900 158.2926788 -11.6733093  63.8129005 156.9665985 -12.8137808
  63.4920387 157.4712830 -13.7250643  64.8848267 156.8247070 -12.9513760
  63.1300774 155.6129608 -12.7560043  62.1269684 155.7104340 -12.6898050
  63.3006439 155.0776062 -13.5952950  63.3254776 155.1183929 -11.8973284
  65.4070358 162.2710266 -10.9491072  66.1753998 163.2146912 -10.9539337
  64.3675537 162.1095734 -10.1156425  63.8146133 161.2691040 -10.2049685
  63.9322319 163.0038910  -8.9703684  63.7970047 164.0181122  -9.3461113
  62.6037979 162.4747467  -8.4816875  62.1127777 161.8081055  -9.1906319
  62.8917465 161.8307343  -7.6507583  61.5393295 163.5445862  -8.0907907
  61.8053703 164.7389679  -8.0765839  60.3838387 163.1797943  -7.8641791
  64.9108200 163.2172546  -7.7979107  64.8367233 164.2857666  -7.1777797
  65.8070374 162.2756195  -7.5315566  65.8931885 161.5702667  -8.2492886
  66.8344345 162.2658081  -6.4254413  67.2498932 161.2604370  -6.4940462
  67.9794083 163.3022766  -6.5997992  67.5330353 164.2855682  -6.4514618
  68.6944427 163.1340942  -5.7944818  68.6365128 163.2132111  -7.9933658
  69.1879807 162.2730713  -8.0044546  67.9458084 163.0823059  -8.8263731
  69.5707169 164.3592987  -8.1918488  70.1780090 164.4330292  -7.2897067
  70.2229996 164.1251526  -9.0331640  68.7687454 165.5877838  -8.4135056
  68.3560181 165.6698608  -9.3316660  68.6402969 166.6997986  -7.6684432
  69.3281860 166.8900299  -6.5924568  70.0859451 166.2905426  -6.2982945
  69.0944061 167.6996155  -6.0356507  67.7212143 167.5993042  -8.0034485
  67.1573715 167.4478149  -8.8276062  67.6700974 168.5220947  -7.5960755
  66.3360062 162.3261719  -4.9450326  67.1751099 162.3845978  -4.0298138
  64.9775467 162.3741150  -4.7359991  64.4053497 162.7214966  -5.4923162
  64.3886337 162.3080750  -3.3559206  65.1437073 162.7752533  -2.7236936
  63.0277481 163.0307770  -3.2149878  62.5177269 162.4922180  -2.4162815
  63.1525040 164.5223694  -2.8863080  63.6371498 165.0231171  -3.7244465
  62.1428375 164.8964691  -2.7168393  63.7161636 164.6207275  -1.9585643
  62.2730179 162.9192657  -4.3961515  62.2618027 161.9999237  -4.6723199
  64.2870941 160.8238068  -3.0419710  63.8657799 159.9463806  -3.8138978
  64.6330948 160.4912720  -1.7621775  65.0348969 161.2266846  -1.1984249
  64.4217072 159.2211151  -1.1976851  63.6839371 158.7209473  -1.8250895
  65.6712341 158.3384247  -1.1873505  65.4013214 157.2850189  -1.1127954
  66.0998230 158.3801575  -2.1886871  66.8129196 158.6195831  -0.2606261
  67.8452835 159.5017395  -0.6450652  67.7151108 159.9889679  -1.6000906
  68.8793793 159.7796326   0.2223974  69.6442337 160.4579010  -0.1259380
  68.9800797 159.1999969   1.4973810  69.6425095 159.4335785   2.3177626
  67.9907379 158.2589111   1.7959547  68.1383743 157.7122192   2.7155905
  66.9249725 157.9501343   0.9715542  66.2352829 157.1633759   1.2394110
  63.8832588 159.3814697   0.2110273  64.2284012 160.3508759   0.8780754
  62.8325157 158.5772095   0.5540208  62.6569557 157.7996063  -0.0661513
  62.2111320 158.7300568   1.8356582  62.1155472 159.8019409   2.0090373
  60.7427101 158.2019043   1.7254183  60.7635345 157.2317047   1.2290606
  60.3263550 158.0588379   2.7225554  60.1733665 158.9093323   1.1224940
  63.0655708 158.1829987   2.9799700  63.5919456 157.0679321   2.8635263
  63.0548515 158.8768158   4.1387372  62.5436554 159.7298431   4.3151317
  63.6861839 158.3090668   5.3854008  64.0968475 157.3133240   5.2181611
  64.9829865 159.1176758   5.7202950  64.7585373 160.1701202   5.8937068
  65.7381210 158.5478668   6.9585156  66.0559998 157.5137024   6.8259525
  66.6504517 159.1256104   7.1066918  65.0852890 158.6579132   7.8244262
  65.9539566 159.0528412   4.5898581  65.6796875 159.8001862   3.8453085
  66.8759766 159.5763245   4.8427262  66.2224960 158.0574036   4.2361550
  62.6735687 158.2738342   6.5773025  62.0476379 159.2719269   6.9229207
  62.3221931 157.0697327   7.0032516  62.8506088 156.2525635   6.7328753
  61.1998253 156.8319855   7.8889437  60.3541145 157.4163971   7.5265346
  60.7907295 155.3760376   7.8392596  61.6321754 154.7017822   7.9987383
  60.0536194 155.1026917   8.5942745  60.1196060 154.9469147   6.4859614
  60.7320099 155.2105103   5.6236544  59.9842491 153.4064178   6.5506945
  59.2401619 153.0419922   7.2589469  59.6274414 153.0526276   5.5834217
  60.9785347 153.0108185   6.7580628  58.7004471 155.5379028   6.2356563
  58.7982063 156.5934906   5.9820943  58.2753563 155.0491791   5.3589897
  58.1166115 155.3926086   7.1445680  61.6036110 157.1814423   9.3467960
  62.7699890 156.9316254   9.7107658  60.7086830 157.6978455  10.1191502
  59.8123856 157.8453522   9.6775732  60.7361450 157.5546570  11.5780840
  61.8134270 157.5520935  11.7440958  60.2394791 158.8562469  12.2333698
  59.1718292 158.7945099  12.4441004  60.7222900 158.7934875  13.2085924
  60.5923920 159.7138977  11.6606655  60.2297821 156.2025604  12.0849180
  59.0023270 155.9561462  12.1992931  61.1653404 155.3128815  12.3664427
  62.1143227 155.6129761  12.1947241  60.9131393 153.9981384  12.9201641
  60.0877419 153.5502777  12.3667850  62.1417122 153.0931702  12.7274914
  62.9375381 153.6040802  13.2694769  61.8860168 152.1355438  13.1810017
  62.4954147 152.7885284  11.2738209  61.6610909 151.9199982  10.4658747
  60.9793930 151.2633209  10.9859419  61.8740311 151.6952057   9.1371136
  61.2786484 150.9261322   8.6676064  62.9654121 152.3313904   8.5453558
  63.2869263 152.1153870   7.2232971  62.9742050 151.2674408   6.8995957
  63.7125587 153.3348236   9.2169027  64.4680710 153.9496155   8.7504053
  63.4481621 153.4965668  10.6132030  64.0287552 154.2848206  11.0692511
  60.4938049 154.0306244  14.3300953  61.3908005 154.1663818  15.2311926
  59.1540565 153.8257599  14.6702480  58.6467323 153.4922028  13.8631134
  58.5117798 153.9571075  15.9471951  58.9043655 154.8639679  16.4071922
  57.0636711 154.2280426  15.6739712  56.5909996 154.2641296  16.6554909
  56.8770332 155.2143402  15.2491531  56.4563141 153.2010345  14.8713112
  55.5113640 153.2147980  15.0400839  58.6962471 152.7500305  16.8145885
  58.7652588 152.7891388  18.0569725  58.9686661 151.6220398  16.1525879
  58.9486160 151.6773987  15.1443062  59.5715103 150.3680878  16.6753464
  59.9685631 150.5243225  17.6783619  58.3934517 149.3959656  16.9237003
  57.7202988 149.8723297  17.6364708  57.8458290 149.2481384  15.9929171
  58.7782555 148.0864410  17.5147038  59.9601173 147.7245331  17.6670494
  57.7993164 147.3535004  17.8745785  58.0099411 146.5314331  18.4222603
  56.8310852 147.5914001  17.7132397  60.5481110 149.8849487  15.6495409
  60.2254944 149.4444427  14.5409784  61.7984848 149.9778900  16.0826664
  62.0054855 150.2933960  17.0195255  62.9071083 149.8275757  15.0644913
  62.5695992 150.2176056  14.1042423  64.1485291 150.6611176  15.4254551
  63.7648735 151.5780334  15.8728447  65.0316391 149.9886475  16.4303665
  65.2465820 148.9645538  16.1251793  65.9892578 150.4964447  16.5453110
  64.5105286 149.9488983  17.3869133  65.0048676 151.0220947  14.1860733
  64.4031830 151.6817932  13.5608730  65.8724823 151.5759735  14.5446053
  65.4128265 150.1509857  13.6733847  63.1930008 148.3108826  14.7978621
  63.5928497 147.9127045  13.7429686  62.8137016 147.4065247  15.7624540
  62.4994049 147.7925262  16.6412735  62.8764610 145.9857025  15.6655664
  63.8540459 145.6562042  15.3136196  62.8871078 145.4315186  17.1096916
  63.5244637 146.0456085  17.7459126  61.9021873 145.4887085  17.5731087
  63.3609695 143.9485626  17.0881195  62.7658577 143.3595123  16.3902912
  64.4180756 143.9323425  16.8228455  63.1669197 143.3659058  18.4757710
  63.7396774 143.9661102  19.1827450  62.0866013 143.3959656  18.6175900
  63.7064018 141.9724426  18.4612999  64.6776199 141.8609467  18.7151108
  63.0180779 140.8672638  18.4508781  61.7791557 140.8210602  17.9718189
  61.3712692 141.6253204  17.5169735  61.2359734 139.9931488  18.1708889
  63.4639473 139.7648010  18.9303169  64.4141388 139.6999817  19.2665215
  62.9290886 138.9095154  18.8801079  61.7682114 145.3915863  14.7863407
  62.0491867 144.4356995  14.0551214  60.5359993 145.9077301  14.8410187
  60.2634354 146.4112244  15.6730661  59.4723473 145.5317078  13.9230385
  59.6033401 144.4783020  13.6754513  58.0953255 145.5656433  14.7344007
  58.0123940 146.5784454  15.1286507  57.3470459 145.3475037  13.9724350
  58.0461578 144.5457001  15.8602991  58.7864456 144.8043518  16.6173801
  57.0933723 144.6115417  16.3856239  58.3232346 143.0614014  15.4357224
  57.6337471 142.4975739  14.5673094  59.2671356 142.4439087  16.0421314
  59.3396873 146.4249268  12.7227497  58.6783867 146.0227814  11.7697153
  60.1000786 147.4936218  12.6726866  60.4905472 147.8136444  13.5474529
  60.1695938 148.4367523  11.5644321  60.8085480 149.2385254  11.9345608
  60.8960953 147.8640747  10.3150711  60.1784172 147.2638855   9.7557802
  61.2486382 148.5719910   9.5649576  62.0597343 146.8755493  10.5651464
  62.5714836 147.1922455  11.4739456  61.6036835 145.8946991  10.6994591
  63.0597687 146.6911621   9.4485941  63.7286720 145.8354187   9.5401497
  62.5063133 146.4001923   8.5557737  63.7287521 147.9996185   9.4314241
  63.6040001 148.5296478  10.2820797  64.5712204 148.3909149   8.5428362
  64.9081268 147.6077118   7.5793772  64.4703522 146.6982574   7.6157846
  65.4353943 148.0080566   6.8166099  65.2060776 149.5286407   8.6781225
  65.0783768 150.1155548   9.4901133  65.9088593 149.7610321   7.9909587
  58.8678741 149.1510468  11.2667599  58.6221466 149.4976196  10.1116095
  57.9822617 149.3836517  12.2029285  58.1508751 148.9066467  13.0770779
  56.8528023 150.3028412  12.1837158  56.2399216 150.0388184  11.3218737
  55.9615669 150.0870667  13.4149456  56.6431580 150.1223145  14.2648201
  55.1971359 150.8627472  13.4603291  55.2977524 148.6927338  13.4600077
  54.9251328 148.3735046  12.4866886  56.0505409 147.9476318  13.7173386
  54.2079010 148.6422119  14.5115547  54.5529060 148.5169525  15.7148676
  52.9813538 148.5973969  14.1717386  57.1979179 151.7235870  12.0687866
  58.1271133 152.2164459  12.7161798  56.4611053 152.4182129  11.1479702
  55.6670799 151.9406586  10.7460127  56.6552544 153.8156433  10.8724470
  56.8402519 154.2989807  11.8317575  57.9259491 154.0248413  10.0096474
  57.8181343 153.5157318   9.0518980  57.9860535 155.1020813   9.8545618
  58.7725639 153.6611938  10.5919704  55.4042702 154.4402313  10.1895161
  55.0568504 154.0079346   9.1048727  54.8421936 155.4235382  10.8780975
  55.2308960 155.6178741  11.7898264  53.6493149 156.1360626  10.3625784
  53.1825714 155.4830780   9.6251049  52.6322365 156.4020233  11.5182257
  53.0047874 157.2000275  12.1604748  51.6494827 156.6431122  11.1130486
  52.3704453 155.2358551  12.4065208  51.9839211 153.9270782  12.0650816
  52.0335732 153.2175598  13.1592388  51.7716331 152.1700287  13.1805544
  52.3481445 153.9822693  14.2102098  52.5063934 153.6709747  15.1579170
  52.5211792 155.2524414  13.7614069  52.7563972 156.1181641  14.3627262
  54.0869827 157.5066681   9.7282381  53.2357979 158.2402496   9.1878090
  55.3946342 157.9421692   9.8504953  56.0250893 157.3879547  10.4121685
  55.8178329 159.2880707   9.3665962  55.2754669 159.5430756   8.4561510
  55.5395393 160.4225311  10.4231195  55.9103394 160.0397644  11.3739595
  56.0467491 161.3583527  10.1884346  54.0263481 160.6835785  10.7450953
  53.2544975 161.6738586  10.1135311  53.6866226 162.2676086   9.3216181
  51.9016457 161.8636627  10.4640312  51.3975830 162.6696930   9.9515352
  51.3374405 161.2177429  11.5932312  50.2970085 161.3434906  11.8541613
  52.1642609 160.2812653  12.3100128  51.7162094 159.7836456  13.1573753
  53.4631004 160.0632782  11.8887739  53.9931641 159.3816071  12.5374384
  57.3387032 159.2782745   9.0484085  58.0400238 158.2989044   9.2702808
  57.8486977 160.4666595   8.5887251  57.1445847 161.1617737   8.3858948
  59.2300301 160.6344452   8.0899353  59.8943329 160.6087341   8.9537354
  59.4451523 159.8232422   7.3944082  59.4811783 161.9530334   7.4303188
  58.6605759 162.8337860   7.4326787  60.6113243 161.9726105   6.7370024
  61.1739349 161.1396484   6.8356543  61.1028824 163.1206207   5.9020820
  60.2254562 163.7533417   5.7683244  62.1115265 163.9221954   6.7197995
  62.8383179 163.1763306   7.0415950  62.8389206 165.0138702   5.9789438
  62.0218582 165.6027069   5.5620732  63.3554153 165.6303864   6.7146339
  63.4877625 164.6442719   5.1849051  61.5934219 164.5083618   7.8886642
  62.0726471 164.1558838   8.6421318  61.7180901 162.6386566   4.5885243
  62.3668861 161.6047668   4.5770712  61.4926987 163.3674469   3.4398453
  60.8625946 164.1564941   3.4177372  62.1982918 163.0850830   2.1233325
  62.2921867 162.0101166   1.9693577  61.4531937 163.7285309   0.9095502
  61.9078445 163.6775360  -0.0797883  60.0445175 163.2300262   0.7272854
  59.4105148 163.6212769   1.5229337  59.6485367 163.4409180  -0.2661061
  59.9871674 162.1449432   0.8133377  61.1986122 165.0570679   1.2817032
  62.0467453 165.4722900   1.1089139  63.6122055 163.7329559   2.1475568
  63.7850609 164.9618835   2.1921413  64.6492386 162.9060059   2.0494039
  64.4581146 161.9227295   1.9200890  66.0539932 163.2957611   1.7136222
  66.3241501 164.1986084   2.2613180  67.0099792 162.1316223   2.2301185
  66.7596436 161.1329193   1.8723242  68.0694427 162.2581940   2.0073609
  66.9173813 162.0385895   3.3121858  66.1864166 163.4696503   0.1689585
  65.8232269 162.6195984  -0.6353906  66.9075012 164.5177917  -0.2499466
  67.2171173 165.2390137   0.3857192  67.3322296 164.6975403  -1.6355923
  66.9225998 163.9442902  -2.3085859  66.8282242 166.0485077  -2.1248298
  65.7542038 166.1634674  -1.9786748  67.2948990 166.7861633  -1.4720082
  67.0158844 166.4115753  -3.5942941  67.8519135 165.8064117  -3.9449039
  66.1297073 166.0873413  -4.1398783  67.2827606 167.9058990  -3.9360757
  66.3893661 168.7675476  -3.6712368  68.2615433 168.1611786  -4.6356010
  68.8597183 164.6005096  -1.6942632  69.5610275 165.1401062  -0.8563618
  69.4239807 163.8444519  -2.6326489  68.8034439 163.4326019  -3.3148694
  70.8459473 163.6652832  -2.7966912  71.3389282 163.7017670  -1.8252267
  71.2083130 162.3034973  -3.4321184  70.7436371 162.3611298  -4.4164233
  72.6956024 162.1994934  -3.6844132  73.2621307 162.3383331  -2.7636123
  73.0015411 161.2293701  -4.0759954  73.0151672 162.9401550  -4.4175038
  70.5572662 161.1117859  -2.7124496  70.9562302 161.0122986  -1.7029793
  69.4998474 161.3371887  -2.5740082  70.7279739 159.7667084  -3.4314137
  71.8051147 159.5997925  -3.4272516  70.3452606 158.9586029  -2.8080328
  70.2736359 159.8290710  -4.4202466  71.3914719 164.8536377  -3.5783799
  71.1302261 165.0409088  -4.7626166  72.1497879 165.7243195  -2.8478644
  72.4761810 165.3895111  -1.9526147  72.7784805 166.9599609  -3.4071736
  72.1684799 167.2164154  -4.2733440  72.6239624 168.1166229  -2.3697913
  72.7384109 169.0943604  -2.8377717  71.5737762 168.1005249  -2.0783277
  73.5752487 168.1751556  -1.2049292  74.7296677 168.9300690  -1.1427602
  75.0280380 169.4792023  -2.0235715  75.5019302 168.9676208   0.0124105
  76.3884888 169.5818176  -0.0439884  75.0799408 168.2900391   1.1857836
  75.8331985 168.3658447   2.3479214  76.3864746 169.1502991   2.3576667
  73.8725357 167.5625916   1.1799680  73.4830399 167.1800232   2.1118150
  73.1277924 167.5669861  -0.0006231  72.1584549 167.0910492   0.0158294
  74.2413788 166.7756653  -3.9459851  74.6398697 167.5361938  -4.8551764
  74.9754868 165.7317200  -3.4310300  74.6147614 165.3086395  -2.5878363
  76.3000946 165.3460236  -3.8448529  76.4042587 165.8037720  -4.8285828
  77.3594360 165.9126434  -2.9171333  77.4993668 165.2095947  -2.0960090
  78.2885590 166.1401215  -3.4397228  77.2192917 166.9030609  -2.4840953
  76.4239044 163.8154755  -3.8751714  75.8395004 163.1110535  -3.0353029
  77.1608658 163.3423920  -4.8766813  77.5278473 164.0684509  -5.4752355
  77.2389374 161.9680176  -5.2733312  77.1313477 161.3896942  -4.3556871
  76.0284195 161.7177582  -6.1566424  75.0986404 161.9570160  -5.6405373
  75.8452377 162.4074097  -6.9806132  75.8373871 160.3989105  -6.8523703
  74.8839111 159.5023499  -6.3795371  74.2789688 159.7124939  -5.5098896
  74.7934875 158.2132568  -6.9776630  73.9513550 157.5721283  -6.7628126
  75.6001129 157.8429260  -8.1140947  75.3275070 156.7281189  -8.9196377
  74.7712784 156.0952606  -8.4595289  76.5743408 158.7637634  -8.5364208
  77.1226425 158.4470062  -9.4113073  76.7051239 160.0364838  -7.9231129
  77.2990417 160.8271332  -8.3573160  78.5235825 161.5400391  -5.9148397
  79.1408768 162.3262177  -6.6726999  78.9477539 160.2996674  -5.6102719
  78.3594818 159.7862854  -4.9695921  80.1552963 159.6933441  -6.1845469
  80.2961731 160.0049591  -7.2195120  81.3218231 160.2570038  -5.3303523
  81.2482758 161.3436584  -5.2874050  81.1463852 159.9834442  -4.2899237
  82.7854004 159.9954681  -5.7752013  82.9736404 158.9218597  -5.7687950
  82.8588715 160.4823151  -6.7476621  83.8519821 160.5670929  -4.8750601
  83.4926529 161.4626007  -4.3680434  84.0584564 159.8704987  -4.0625219
  84.9643250 161.0328522  -5.6673760  84.7853546 161.8384857  -6.2496305
  86.0574341 160.3738098  -5.9462671  86.5095215 159.2649536  -5.3825397
  85.8790054 158.6820374  -4.8507786  87.4079437 158.8786011  -5.6348577
  86.9053650 160.9118042  -6.7952595  86.6343079 161.8147583  -7.1576099
  87.8135071 160.4867401  -6.9164658  80.2083130 158.1129913  -6.1481853
  80.0537109 157.4762115  -5.0965114  80.2962341 157.4442139  -7.2705994
  80.1361847 158.0034332  -8.0962820  80.5556717 155.9743805  -7.3751073
  80.1114349 155.4744263  -6.5144019  79.8728638 155.4188690  -8.6022549
  80.2795258 155.9014130  -9.4910059  80.1750488 154.3727722  -8.5528603
  78.3283081 155.5577698  -8.6177559  77.8793335 155.4503632  -7.6303406
  78.0957565 156.5063934  -9.1016474  77.6807404 154.5380096  -9.5813522
  76.8619537 153.7104492  -9.1727982  78.0405045 154.5487671 -10.7876806
  82.0551224 155.6191101  -7.5065670  82.7845459 156.4098969  -8.1323843
  82.4479904 154.5270538  -6.9533501  81.7464371 153.8981476  -6.5894876
  83.7958298 153.9756165  -6.8354411  84.4700470 154.4470673  -7.5504813
  84.5833054 154.3153992  -5.5508780  84.0713043 153.8918304  -4.6868458
  85.6017914 153.9273529  -5.5367255  84.6892090 155.8624725  -5.4054675
  85.2073746 156.2397919  -6.2870736  83.6847229 156.2816467  -5.3473520
  85.5295486 156.3243408  -4.2245212  86.5623856 155.7295532  -3.8046587
  85.2277527 157.4096832  -3.6823194  83.6943817 152.4479675  -7.1196675
  82.6423035 151.8833923  -6.8599620  84.7458725 151.7228088  -7.5301867
  85.5759583 152.1463013  -7.9196787  84.7546997 150.2581787  -7.5939651
  83.9360809 149.8916779  -6.9745798  84.5097504 149.8662720  -9.0898972
  83.5156784 150.1935425  -9.3945684  85.1827087 150.4749756  -9.6937962
  84.6608582 148.3437042  -9.3324060  85.6686401 148.0327454  -9.0571260
  83.9103012 147.6815338  -8.9007950  84.6139832 148.0539246 -10.8494034
  85.6246109 147.6409149 -11.4257498  83.4386978 148.2937317 -11.4768934
  83.3258133 148.0741730 -12.4562559  82.8316193 148.9287720 -10.9786243
  86.0446320 149.7205811  -6.9464188  87.1545410 149.8272095  -7.5179935
  85.9812317 149.0759430  -5.7714419  85.0708923 148.8150482  -5.4202757
  87.2071075 148.5025330  -5.0827632  87.9960327 148.2163239  -5.7783074
  87.8454971 149.5291443  -4.0640645  87.0983505 149.8594666  -3.3424253
  88.6865540 149.0629883  -3.5508182  88.5432739 150.6160889  -4.8292933
  89.2822876 150.1222229  -5.4602118  87.7824326 151.1757355  -5.3733730
  89.2857895 151.6605225  -3.9970672  89.3968964 151.6239777  -2.7287641
  89.9299011 152.4642181  -4.7223001  86.8934708 147.2229919  -4.2878103
  85.7195740 146.9859314  -4.0384092  87.9114838 146.3261719  -3.9950902
  88.8265457 146.6620636  -4.2595649  87.8451157 144.9917755  -3.2988057
  88.8716660 144.6548920  -3.4430337  87.7026901 145.2237701  -1.8289545
  86.6652069 145.4555206  -1.5880711  87.8680954 144.3153534  -1.2497168
  88.5262222 146.3254242  -1.1187046  89.8558960 146.0735779  -0.6753385
  90.2561340 145.1218262  -0.9921454  90.6808167 147.0568848  -0.0882697
  91.7005615 146.8142548   0.1718392  90.0950165 148.3210297   0.0894441
  90.8104019 149.3508301   0.5712526  91.7529221 149.1696167   0.5507332
  88.7621613 148.6398621  -0.3296391  88.3354263 149.6127319  -0.1351368
  87.9305649 147.6302338  -0.9178518  86.9277878 147.8898621  -1.2235247
  86.8243637 144.0351715  -3.8652139  86.3395462 143.2070465  -3.0991633
  86.6032181 143.9828339  -5.1786060  87.1543121 144.6320343  -5.7216873
  85.7653351 143.0756226  -5.8891320  85.9926071 143.1103058  -6.9546118
  85.9503250 142.0662231  -5.5217042  84.2459564 143.3849335  -5.8067055
  83.4652023 142.4267120  -6.0748901  83.8487091 144.5789337  -5.3995075
  84.5926285 145.2522888  -5.2842646  82.4641495 145.0679626  -5.2446499
  81.7713318 144.4308472  -5.7943668  82.0664673 145.0798035  -3.7447464
  81.0167236 145.3656311  -3.8113317  82.2120743 143.7395477  -3.0185392
  83.2218552 143.3552856  -2.8743474  81.8721924 143.8235779  -1.9862988
  81.5768280 143.0235443  -3.5399904  82.8642197 146.1411285  -2.9424753
  83.8407745 145.6706085  -2.8282168  83.0477142 147.0473175  -3.5197525
  82.2537308 146.7150116  -1.6148580  82.2981949 145.9523010  -0.8374155
  82.8548737 147.5297546  -1.2112390  81.2524338 147.1101074  -1.7863082
  82.2844772 146.4443207  -5.8830962  83.2637177 147.1426392  -6.0063882
  81.0377121 146.8273621  -6.1954737  80.2856522 146.1704254  -6.0439606
  80.7269669 148.2153931  -6.4922962  81.5694733 148.7250366  -6.9597764
  79.5867538 148.2767029  -7.4903874  78.7046051 147.8831635  -6.9853601
  79.3795853 149.3218842  -7.7201624  79.8236237 147.5204773  -8.7875252
  80.8561554 147.6598511  -9.1077576  79.6772766 146.4503326  -8.6409893
  78.9171066 148.0617981  -9.8763227  77.7175140 148.3141479  -9.5721207
  79.3385544 148.2046814 -11.0438976  80.2647324 148.9573822  -5.2291570
  79.8596649 148.3917389  -4.2147865  80.3785553 150.2730865  -5.1921749
  80.8795166 150.7804718  -5.9075084  79.9833527 151.0632935  -3.9588346
  79.0728989 150.6018219  -3.5764458  81.1406631 150.9167938  -2.9322045
  81.2960205 149.8443756  -2.8143528  82.4920120 151.5030365  -3.3692038
  82.3079147 152.5478973  -3.6191761  83.1889954 151.5046692  -2.5311625
  82.9272537 150.8821106  -4.1522212  80.8742371 151.6389771  -1.7685198
  81.2621994 151.2071533  -1.0039158  79.7726364 152.5152893  -4.3266673
  80.1978378 152.9805756  -5.4139757  79.1437607 153.2941437  -3.5136900
  78.8813553 152.8740082  -2.6334980  78.7971878 154.6979065  -3.7343967
  79.6727219 155.0814972  -4.2582278  77.4891891 154.7496796  -4.6490827
  77.6611023 154.2779388  -5.6165571  76.2403183 154.1015320  -4.0574389
  75.7861023 154.7375183  -3.2976398  75.5263138 153.9163971  -4.8599448
  76.4785767 153.1582031  -3.5660458  77.0778275 156.1485596  -5.0056605
  77.9531631 156.5923004  -5.4799967  76.2729950 156.0666809  -5.7361674
  76.7489929 156.7185364  -4.1367011  78.7165451 155.4868469  -2.4461570
  78.2703171 155.0456238  -1.4134126  79.1970367 156.7551727  -2.5442572
  79.6658783 157.0197906  -3.3988113  79.2179108 157.7760315  -1.4634328
  78.8023453 157.3293304  -0.5601786  80.6109543 158.1641235  -1.2384124
  81.0180817 158.7495422  -2.0628023  80.6805420 158.9213867  -0.4575195
  81.4995041 157.0211639  -0.7625270  81.1364212 156.5485535   0.1501189
  81.3865585 156.1489563  -1.4064189  82.9392548 157.5195160  -0.7257352
  83.2271194 157.9318848  -1.6927817  83.0056152 158.3543396  -0.0280416
  83.9414978 156.5017090  -0.3275290  83.9301376 156.3759003   0.7551289
  83.8755722 155.5329742  -0.8228225  85.3107300 156.8964691  -0.7629580
  85.6915741 157.5672150  -0.1109109  85.9348450 156.1027069  -0.7398156
  85.3384094 157.2638550  -1.7033645  78.3087463 158.9030914  -1.7960944
  78.3279190 159.3746033  -2.9063404  77.4394379 159.2719727  -0.8164167
  77.4687195 158.9691315   0.1466657  76.4435425 160.3917236  -0.9905021
  76.7631836 161.0180664  -1.8233382  75.0830917 159.8099213  -1.3628832
  74.5322113 160.7288208  -1.5635420  75.1644211 159.0181732  -2.6242926
  75.7662582 158.1397858  -2.3911669  74.1509552 158.6693420  -2.8225696
  75.4330444 159.6673889  -3.4576302  74.2503967 158.9623871  -0.3847782
  74.1968384 159.5633545   0.5230150  73.2046890 158.8518219  -0.6717958
  74.8089142 158.0278168  -0.3324670  76.2241135 161.3123932   0.2283335
  76.2432404 160.9014740   1.3641934  75.9048080 162.5755157  -0.0492447
  75.9077682 162.8819580  -1.0116309  75.4225693 163.5920563   0.8925431
  75.3144073 163.2539978   1.9231342  76.4689102 164.7480927   0.9277424
  76.7600555 164.9163055  -0.1090976  75.9791031 165.6302490   1.3400230
  77.6084518 164.4630890   1.8572470  77.3336792 164.6540070   2.8946218
  77.8808136 163.4196930   1.6983515  78.8189468 165.2802277   1.5296910
  79.5650253 165.1157990   2.3071456  79.2136917 164.9554749   0.5669780
  78.7231445 166.7943878   1.4450229  78.0073547 167.0411987   0.6609135
  78.3516617 167.0731201   2.4311280  80.0357971 167.4281616   1.1096010
  80.3085327 167.0358429   0.2197677  79.9666214 168.4329529   1.0340058
  80.7987366 167.1933594   1.7283894  74.0385742 163.9977722   0.4590801
  73.8190842 164.2889099  -0.7026677  73.0575714 163.9670105   1.3563267
  73.3241119 163.6670074   2.2831786  71.6393509 164.2346954   1.1705513
  71.5486298 164.7197266   0.1986451  70.9078064 162.8484039   1.0530864
  70.8359909 162.3071594   1.9964890  69.9246521 163.1061096   0.6592780
  71.4434814 162.2697601   0.3005277  71.1117172 165.1234131   2.2216139
  71.7120590 165.2608643   3.2890921  69.9814682 165.7780762   1.9968042
  69.5805283 165.7176361   1.0717671  69.4849930 166.8850708   2.8509672
  69.8352203 166.7082062   3.8679044  70.0820847 168.2151184   2.4584620
  71.1527328 168.0490875   2.3390889  69.4633789 168.7762451   1.1759497
  68.4240341 169.0617523   1.3382524  70.0379105 169.6761627   0.9564971
  69.7059860 168.0908356   0.3638736  69.9671173 169.2698364   3.5188224
  68.9298401 169.6039276   3.4956040  70.2317429 168.7565308   4.4432688
  70.9232330 170.4753876   3.4460981  70.5522690 171.1677246   2.6903527
  70.9587708 170.9768982   4.4132161  71.9066086 170.0758667   3.1981955
  67.9980392 166.8533936   2.9321611  67.3364258 166.4355164   1.9651786
  67.4081345 167.0877991   4.0946507  67.9680252 167.2961121   4.9090405
  65.9255142 166.8803711   4.1711097  65.6829147 165.9089661   3.7402618
  65.7573318 166.9082184   5.2476954  65.0058746 167.9518585   3.6699691
  65.0310822 169.0757294   4.2698550  64.2798157 167.7223816   2.5941136
  64.2369995 166.7606659   2.2885754  63.3606834 168.7118073   1.9559749
  63.8393173 169.6871490   2.0438619  63.2796059 168.3938599   0.4796116
  63.0970764 167.3375702   0.2821009  62.4146614 168.8515472  -0.0005062
  64.4637833 168.7736359  -0.4279448  65.4010849 168.6054230   0.1023990
  64.4551849 168.1249084  -1.3038352  64.5395126 170.1683350  -0.9940102
  65.1881485 170.1002960  -1.8673648  63.6096001 170.4740448  -1.4734961
  65.0293045 171.1039429   0.0853906  64.2996826 171.6168671   0.5593808
  66.2880936 171.5198669   0.3921106  67.2330704 170.9887085  -0.3242746
  66.9821014 170.3130341  -1.0317903  68.1634369 171.3701324  -0.2292518
  66.5747070 172.3874207   1.3492017  65.8483887 172.8234711   1.8991342
  67.5463638 172.6388092   1.4622366  62.0068550 168.9020996   2.6883664
  61.6364670 170.0053558   3.0127025  61.2815552 167.7720795   2.9581709
  61.5853348 166.8449402   2.6969597  59.7738953 167.8013153   3.4023931
  59.5982895 168.8086395   3.7799654  58.9517403 167.5078278   2.1268084
  59.0972023 166.4480438   1.9175713  57.9407616 167.7726288   2.4365008
  59.2237816 168.3722076   0.8672520  58.6651917 169.3050232   0.9444268
  60.2611275 168.7068329   0.8616084  59.0033913 167.6948700  -0.5190480
  58.6059532 168.3164520  -1.4943354  59.1632690 166.4077759  -0.6458016
  58.9924965 166.0064545  -1.5567822  59.6177139 165.9177094   0.1114393
  59.5263214 166.7758484   4.4354172  60.0294876 165.6583252   4.3174152
  58.5892754 167.0448608   5.3641648  58.1570091 167.9537811   5.2798753
  57.9413681 165.9652863   6.1520767  58.6929283 165.2108765   6.3847485
  57.3801346 166.5643463   7.4240289  56.7622566 167.4486084   7.2678413
  56.7227859 165.8584900   7.9317403  58.3872528 167.0085144   8.5050182
  58.8791122 166.1232758   8.9081640  59.0830040 167.7423096   8.0980959
  57.6067009 167.4409180   9.7449636  56.8127670 166.7132874   9.9132128
  58.3107948 167.4829102  10.5759840  57.0387764 168.7958221   9.5695601
  57.6408081 169.4957275   9.1599340  55.8298454 169.1517487   9.8650818
  54.8590775 168.3910675  10.2546024  55.0888329 167.5681152  10.7931662
  53.9570427 168.8453217  10.2448788  55.3954391 170.3651123   9.5829573
  56.1055603 171.0664825   9.4283352  54.4140778 170.5880737   9.4974022
  56.7973557 165.1689758   5.4841461  56.1577225 165.7013702   4.5336976
  56.5034714 163.9275208   5.9596505  57.0786018 163.5293427   6.6881957
  55.2767105 163.1648254   5.5827451  54.5779915 163.9500427   5.2940469
  55.6141624 162.4246674   4.2855110  54.6695595 161.9992371   3.9466410
  55.9110527 163.1016235   3.4844577  56.7035027 161.3516693   4.4330382
  56.5709076 160.2123260   5.2560768  55.7192993 159.9405975   5.8621516
  57.6230507 159.3197021   5.4547567  57.4025650 158.4125824   5.9978456
  58.8372574 159.5232849   4.8623567  59.6186638 158.7935638   5.0150909
  59.0135269 160.5961609   3.9357476  59.9893265 160.6374359   3.4747524
  57.9650803 161.5090637   3.7410553  58.0793495 162.2819214   2.9953766
  54.7218056 162.2346497   6.6686678  55.3914757 161.8837585   7.6414375
  53.4190903 161.8554840   6.3816156  53.1207085 162.2982483   5.5242767
  52.6161385 160.7460022   6.8437638  52.8452568 160.4497070   7.8673921
  51.1266441 161.1758423   6.9392223  51.1662979 162.1287079   7.4670300
  50.6375427 161.2990570   5.9729419  50.2799263 160.1711578   7.7402520
  50.5228767 159.1964111   7.3172359  50.5651512 160.2393188   8.7900667
  48.7570763 160.2873230   7.7111955  48.4203835 160.5301514   6.7033372
  48.4131470 159.3162537   8.0673237  48.1761017 161.3169403   8.6415606
  48.5464897 161.1151276   9.6466408  48.4689636 162.3430328   8.4191494
  46.6716614 161.2606354   8.6074419  46.3901787 160.3188171   8.8394985
  46.3001060 161.8888092   9.3056059  46.2943878 161.4681091   7.6938143
  52.7513924 159.5200043   5.9397006  52.7105141 159.7445526   4.7455454
  52.9352875 158.3152313   6.4808054  52.9417915 158.2053986   7.4847941
  52.8653641 157.0382385   5.7258034  53.1989784 157.2514191   4.7102461
  53.8451805 156.0525970   6.4511585  53.4785271 155.9021606   7.4665589
  53.9136581 154.6994934   5.7555032  54.0123901 154.7664032   4.6720452
  54.6649704 154.0812378   6.2468181  52.9851341 154.1497498   5.9095168
  55.2433548 156.6068420   6.3933091  55.4217720 157.5048218   6.9848342
  55.8362694 155.9191742   6.9963646  55.6106186 156.6387177   5.3675399
  51.4586220 156.4563446   5.5705519  50.7359314 156.4138947   6.5938468
  51.1614761 155.9270172   4.3919120  51.8711090 156.0460968   3.6831524
  49.8668289 155.3153534   4.0428567  49.1082573 155.3848267   4.8225002
  49.3439255 155.9737854   2.7810583  50.0717926 155.8229980   1.9838316
  48.4194870 155.4145355   2.6369693  49.0092316 157.4925385   2.7618976
  49.8563271 158.1295776   3.0163112  48.5290489 157.8004303   1.4064022
  47.7185287 157.1376038   1.1033750  48.1522484 158.8207703   1.3354743
  49.3553123 157.6889954   0.7042822  47.9249802 157.9019318   3.6789122
  48.2963371 157.7144928   4.6864200  47.7092285 158.9675598   3.6014872
  47.0922012 157.2449951   3.4279056  49.8872757 153.8090820   3.6791844
  48.9011574 153.0936279   3.8486948  51.0357361 153.4234161   3.1763189
  51.8188820 154.0582886   3.1152229  51.3660240 151.9955292   2.8482451
  51.0565567 151.3614349   3.6790650  50.7732887 151.5156403   1.5057279
  49.7049484 151.3265839   1.6106684  51.0952072 152.2314301   0.7493573
  51.4204712 150.2006836   0.9313716  52.4145889 150.4412384   0.5545877
  51.4266014 149.4741516   1.7439064  50.5468140 149.7044067  -0.2382246
  50.4702301 150.4752197  -1.2012739  49.9990005 148.5772400  -0.2614688
  52.9002838 151.8609314   2.8926144  53.5026016 152.8031616   2.3725333
  53.4502258 150.6663666   3.2756951  52.8509483 149.9055481   3.5622878
  54.8188896 150.2653046   2.9442842  55.3631516 151.0011444   2.3523300
  55.6924210 150.0734863   4.2327042  55.1857872 149.3240051   4.8407211
  57.1040955 149.4966736   3.8528938  57.5720596 150.2759552   3.2513559
  57.7354851 149.3668518   4.7318678  56.9717140 148.5899658   3.2625861
  55.8118515 151.4129639   4.9444141  56.4436188 152.0876770   4.3667183
  54.8020439 151.8078461   5.0560508  56.4463158 151.4953613   6.3528371
  57.4474678 151.0724792   6.4362898  56.4373474 152.5306396   6.6937203
  55.8419380 150.9481201   7.0762796  54.7030449 148.9960480   2.0936253
  53.9116440 148.1219635   2.4233541  55.4939194 148.7981720   1.0558859
  56.0791893 149.5504456   0.7217506  55.5833473 147.5832520   0.1475300
  55.1285744 146.6740723   0.5408270  54.8333740 147.7787933  -1.1734643
  53.8405418 148.1290894  -0.8911907  55.2006798 148.6038208  -1.7838125
  54.6716766 146.5145721  -2.0177779  54.8756981 145.6474609  -1.3895987
  53.6280289 146.4466705  -2.3248458  55.6247292 146.4902954  -3.2163856
  55.6327667 147.5010681  -3.6242449  56.6324158 146.2946014  -2.8498127
  55.1739769 145.5089264  -4.2969189  55.2022247 144.5094910  -4.1540017
  54.6784782 145.7498322  -5.4944382  54.7165909 146.8792419  -6.1633406
  55.0894051 147.7076416  -5.7219052  54.0584183 146.9771423  -6.9231610
  54.0802879 144.7795410  -6.2080560  53.9084511 143.8836517  -5.7745314
  53.8065948 144.9816284  -7.1590300  57.0597076 147.2156677  -0.1587033
  57.8181419 148.0643158  -0.5711656  57.4367790 145.9274597  -0.1316489
  56.7240143 145.2437744   0.0796274  58.7915649 145.4917603  -0.4792710
  59.4697342 146.3451080  -0.4824966  59.3222656 144.5438385   0.5815205
  58.8386421 143.5680847   0.5356195  60.8321915 144.3830566   0.4404015
  61.3624840 145.2813568   0.1242576  61.2793274 144.0211029   1.3662378
  61.0242767 143.6225586  -0.3164775  59.1634102 145.1185150   1.9226532
  58.3781815 144.7349701   2.3200266  58.8730125 144.8887024  -1.8736411
  58.2053070 143.8982391  -2.2077062  59.7587090 145.4876251  -2.7152333
  60.2627220 146.3000183  -2.3895271  60.1461906 144.8697510  -3.9765689
  59.3044128 144.4717102  -4.5431991  60.7741089 145.9253235  -4.9359221
  61.6094551 146.4361877  -4.4570603  61.1267471 145.3106079  -5.7641053
  59.6840248 146.8446808  -5.5340762  58.9717903 146.1975098  -6.0459232
  59.3347931 147.4846497  -4.7237816  60.3219872 147.8142853  -6.5112376
  60.4803314 148.9835510  -6.2078032  60.7044067 147.4002533  -7.6923404
  61.1032257 148.1125183  -8.2870760  60.4692650 146.5224152  -8.1330366
  61.0547409 143.6752014  -3.6281490  61.7582054 143.5991669  -2.6070492
  60.9281921 142.7430573  -4.5226035  60.3280182 142.8913727  -5.3212852
  61.5772438 141.4266968  -4.4114046  61.2613525 141.0835571  -3.4262316
  61.1613579 140.4685211  -5.5190516  61.4369698 140.8320312  -6.5090013
  61.6652069 139.5042267  -5.4528437  59.7337761 140.2586670  -5.5072498
  59.5159607 139.5301361  -4.9212584  63.1119537 141.4444580  -4.4811854
  63.7479515 140.4654846  -4.0673418  63.7815971 142.5482941  -4.8368969
  63.2177124 143.2993469  -5.2084813  65.2185593 142.7171021  -4.6519756
  65.8451691 141.8356781  -4.7882571  65.7080383 143.6700134  -5.7999806
  66.7616043 143.4791565  -6.0041285  65.3291397 143.3585358  -6.7733846
  65.4205856 145.1280060  -5.6045966  64.5157089 145.4497070  -4.8077650
  66.0087280 145.9994507  -6.2645674  65.6052475 143.2437439  -3.2211134
  66.7978134 143.2311249  -2.8954346  64.6651535 143.5382385  -2.3048439
  63.6972046 143.5108948  -2.5919373  64.8952713 143.7932434  -0.8786532
  64.1902008 143.1260376  -0.3828747  65.9051285 143.5027618  -0.5889955
  64.6527328 145.2680817  -0.4597715  64.4440994 145.4845734   0.6965788
  64.6805038 146.2782288  -1.3547112  64.7761688 145.9883118  -2.3174665
  64.2832642 147.6521454  -1.0311058  64.7294006 147.8728027  -0.0613747
  64.8511276 148.7515106  -1.9603078  64.7152328 149.7341766  -1.5086372
  66.3559036 148.6051788  -2.0122797  66.6469040 147.6598053  -2.4701991
  66.8982849 149.4232788  -2.4862483  66.8644562 148.5386353  -1.0504857
  64.2352295 148.7979126  -3.4571960  65.0410538 149.0564880  -4.1441417
  63.9835129 147.7661438  -3.7025335  63.0274467 149.7524109  -3.6733270
  63.2911644 150.7239227  -3.2553394  62.8644028 149.7757263  -4.7508159
  62.1263390 149.2780457  -3.2846169  62.7628670 147.8522491  -0.8102224
  61.9755821 147.2183228  -1.5105220  62.3313103 148.7852173   0.0391724
  63.0456505 149.1772614   0.6359280  60.9660263 149.1488495   0.3623396
  60.2609978 148.3955994   0.0106892  60.7607460 149.3210754   1.8979540
  61.4101143 150.1220398   2.2513313  59.7069206 149.4504242   2.1445785
  61.2627182 148.0076599   2.5954859  61.0601006 147.1094513   2.0121553
  62.3138199 148.1027527   2.8679531  60.6822777 147.8492432   4.0542364
  61.1938782 148.4261932   5.0134311  59.7763176 146.9266663   4.2975554
  59.7299271 146.6730347   5.2740960  59.5342979 146.2051544   3.6335104
  60.5762558 150.4283600  -0.3957501  61.2793465 151.4956512  -0.3300973
  59.3431549 150.3741760  -0.9621168  58.8608131 149.5023651  -0.7966161
  58.6209068 151.4862061  -1.4936785  59.3535690 152.2834320  -1.6191748
  57.9040756 151.1976318  -2.8204601  57.2920914 150.3218842  -2.6045234
  57.1236725 151.9285736  -3.0320828  58.8639565 150.9799347  -4.0142665
  59.7244987 150.3423157  -3.8117921  58.2447929 150.4818726  -4.7603693
  59.4973412 152.2490692  -4.5894480  59.2555809 153.3512421  -4.0883183
  60.1569519 152.1119843  -5.6764359  60.5974464 152.9445648  -6.0409427
  60.3371010 151.1710205  -5.9961648  57.6418343 151.9279175  -0.3844090
  57.2156181 151.0831604   0.4234485  57.3160095 153.2301178  -0.3400611
  57.8767242 153.8586121  -0.8974528  56.4026108 153.7860718   0.6800569
  55.8554611 152.9601288   1.1345322  57.3294106 154.4915771   1.7811567
  57.9804840 155.1974030   1.2653840  56.8502197 155.0314484   2.5978715
  58.0360870 153.7487640   2.1512127  55.4615631 154.7572021   0.0000421
  55.9563637 155.6888428  -0.6233399  54.1118584 154.6520233   0.1793893
  53.7367630 153.8743286   0.7034208  53.2378769 155.7316589  -0.2499337
  53.6753044 156.3226776  -1.0545839  51.9206085 155.1376343  -0.6285259
  51.6428986 154.4387665   0.1604893  51.1988602 155.9430542  -0.7645297
  51.9525948 154.4050751  -1.9761943  52.2553825 155.0757904  -2.7802894
  52.5539703 153.4961700  -1.9578003  50.4533691 153.9543915  -2.3063033
  50.0373497 153.3821106  -1.4771340  49.8833847 154.8796082  -2.3911965
  50.3449516 153.0793152  -3.6076734  49.3001976 153.0068817  -3.9099076
  50.8980179 153.6479492  -4.3552513  50.9367867 151.6867828  -3.4614527
  50.5692635 151.1944427  -2.6598079  50.6660080 151.1763763  -4.2898693
  51.9461708 151.6653748  -3.4333227  53.0546913 156.6707611   0.9650269
  52.8489456 156.2382965   2.1121216  53.1902351 157.9516144   0.7401894
  53.5273476 158.2296448  -0.1703914  53.1443558 159.0124359   1.7812111
  52.6858444 158.5668182   2.6639934  54.6329994 159.4454498   2.0579677
  54.6698837 160.0521698   2.9627419  55.5406227 158.2215118   2.5051885
  55.6803093 157.5380402   1.6676607  56.5223732 158.6071777   2.7800064
  55.0247307 157.6976013   3.3098538  55.3848457 160.1390991   0.9293355
  54.8251381 160.9750977   0.5098957  56.3583603 160.4913483   1.2703568
  55.6955032 159.4042969   0.1865975  52.3661003 160.2111664   1.3576684
  52.0841179 160.3692932   0.1904978  52.0355759 161.1595001   2.2599773
  52.3060341 160.8742676   3.1903505  51.5177460 162.4703522   2.0122967
  51.3917389 162.5879669   0.9360117  50.0600281 162.4981689   2.6746986
  49.4995804 161.6390991   2.3059182  50.1718864 162.4683380   3.7585335
  49.3350563 163.7714691   2.3507779  49.9054756 164.6212616   2.7257128
  49.3778687 163.8907776   1.2681738  47.8649063 163.8868866   2.8069699
  47.0750618 162.9195862   2.8301389  47.3706627 165.0260162   3.2190108
  46.4551964 165.0626221   3.6440892  47.9787827 165.8318176   3.1878514
  52.4346352 163.5208588   2.5775006  52.6587868 163.3887177   3.8025413
  52.9144936 164.4318085   1.6679265  52.6762238 164.2934418   0.6962360
  53.6177330 165.6399536   2.0766034  54.5345993 165.2938690   2.5537653
  54.2000008 166.4360504   0.8734777  53.3925743 166.5538635   0.1507895
  54.6583252 167.8907623   1.2169647  55.5065193 167.8724976   1.9013202
  54.9998970 168.3739319   0.3015482  53.8309669 168.4960632   1.5873609
  55.5036583 165.7487488   0.2248788  55.8737183 166.3400879  -0.6126587
  56.2252045 165.6543579   1.0364034  55.2995911 164.3617096  -0.3966467
  54.5032349 164.3125916  -1.1392783  56.2222366 163.9926453  -0.8445524
  55.0593300 163.6640167   0.4056149  52.9035873 166.5013275   3.1223824
  51.9573936 167.2421570   2.8025990  53.3204536 166.4031372   4.4196734
  54.2073822 165.9504089   4.5884824  52.9005547 167.3698730   5.3955460
  51.8215294 167.4678192   5.2763152  53.2072182 166.7485046   6.7933407
  54.2711182 166.5175323   6.8468838  53.0565948 167.4720001   7.5945663
  52.3711205 165.4892120   7.0415449  52.4014015 164.7150269   6.2748528
  52.8741417 164.7387238   8.3352003  52.7132187 165.3378448   9.2314396
  52.3823242 163.7686920   8.4077482  53.9349670 164.4917297   8.2934370
  50.9112320 165.8772583   7.2277317  50.5833778 166.5353851   6.4230628
  50.2922440 164.9819031   7.2849946  50.7327499 166.4169312   8.1577864
  53.5810432 168.7461090   5.1973047  54.8218956 168.8740234   5.2166491
  52.8363152 169.8266907   5.1162395  51.4032364 169.8568115   4.8856955
  50.9371872 169.5189209   5.8112965  51.1508522 169.2552948   4.0124331
  51.0069427 171.3382263   4.6764274  50.5516052 171.7575684   5.5736012
  50.3050728 171.4967041   3.8576643  52.3527756 172.0347595   4.4333377
  52.3028145 173.0864258   4.7154956  52.6193962 172.0272980   3.3764758
  53.4106369 171.1677856   5.2429600  54.3733253 171.2352753   4.7362218
  53.4345245 171.7188263   6.6923876  52.9419937 171.1848145   7.7014494
  54.1104889 172.9007263   6.7870011  54.6317253 173.1516418   5.9590721
  54.0460739 173.9354706   7.7528100  54.2025528 173.4317322   8.7066851
  55.2050133 174.9392700   7.4246287  55.0470428 175.2296906   6.3859749
  55.2218094 175.8048706   8.0868597  56.5787163 174.2643890   7.4654722
  56.5387001 173.3590851   6.8597331  57.3467369 174.9295197   7.0707107
  56.8049660 173.8067932   8.9173059  57.3965416 174.5974579   9.7192869
  56.5863266 172.6182709   9.3234663  52.6770439 174.7150421   7.6713133
  52.3407097 175.2231903   6.5842099  51.9774742 174.8632050   8.8076906
  52.2855263 174.4850922   9.6921272  50.8484116 175.8132324   8.8701773
  50.3971367 175.8386078   7.8783069  49.8217125 175.2313843   9.8830013
  50.4288368 175.0701447  10.7737894  48.9531784 175.8742371  10.0261335
  49.2967033 173.8480835   9.2620869  48.9086685 174.0486298   8.2634287
  50.1225395 173.1571808   9.0925283  48.2743073 173.1483002  10.2017870
  48.1795807 172.1494904   9.7757492  48.5713844 173.0160675  11.2421513
  46.9932709 173.8889313  10.2100735  46.6145325 174.0277863   9.2841282
  46.1676292 174.0017700  11.2428799  46.3982735 173.8308411  12.4796677
  47.3325958 173.7119446  12.8443632  45.6739578 173.9528351  13.1729107
  44.9977646 174.3850708  10.9162416  44.8746490 174.5538177   9.9280758
  44.2064476 174.3093872  11.5392904  51.3059082 177.2128296   9.3103409
  51.1027870 177.4995422  10.4474392  51.8529625 178.0417328   8.4005022
  51.9762688 177.6373444   7.4832411  52.5563469 179.2809143   8.7736959
  53.3218231 179.0242615   9.5060024  53.3602409 179.7051392   7.4947047
  52.7245941 179.8735962   6.6254077  54.1608620 181.0391998   7.7066674
  54.7962799 180.9757233   8.5900278  54.8016510 181.1937714   6.8385649
  53.4958992 181.8991394   7.7868710  54.4178467 178.6309814   7.1364565
  53.9248047 177.8315887   6.5832934  55.1579819 179.0235596   6.4391966
  54.9757462 178.3271942   8.0222158  51.5780334 180.4069977   9.2565031
  50.9553757 181.1486206   8.4578981  51.4446220 180.5321350  10.5940990
  51.8111572 179.7954559  11.1798210  50.6008377 181.5379486  11.2082348
  49.6047821 181.4472504  10.7749262  50.2809258 181.1378479  12.6655836
  51.1894798 181.2559967  13.2560673  49.5088158 181.8584290  12.9352102
  49.7950974 179.7161713  13.0022240  50.5149307 178.9982147  12.6092014
  49.7266006 179.6649933  14.5578079  49.5953293 180.6148529  15.0761080
  49.0316734 178.9102631  14.9259872  50.7268486 179.3329773  14.8359518
  48.4458351 179.4406281  12.2861090  48.5698967 179.4923401  11.2044277
  48.3274651 178.3812866  12.5138893  47.6581116 180.1152191  12.6215553
  50.9949684 183.0233154  10.9269991  52.1354523 183.3586578  11.2433929
  50.0686569 183.8734741  10.4335909  48.7773781 183.5385895   9.8561182
  48.2104034 182.9945679  10.6115427  48.8784943 182.9835663   8.9234743
  48.0758858 184.8402252   9.5802631  47.4839783 185.0021362  10.4811115
  47.4885254 184.9006042   8.6640425  49.2306976 185.8340912   9.5111742
  48.9351234 186.8010101   9.9183674  49.6401062 185.9146729   8.5042038
  50.3435555 185.3153992  10.3753357  51.3011856 185.5273743   9.8998222
  50.4013748 185.9205475  11.8078289  50.2830200 185.2337952  12.8085165
  50.5501709 187.2114258  12.0043125  50.5836716 187.8221436  11.2005787
  50.7904167 187.7871399  13.3203640  51.6491203 187.2815247  13.7620420
  51.2574806 189.2546387  13.1332846  51.9901085 189.3967743  12.3388329
  50.4074211 189.8271942  12.7622366  51.6580620 189.8624115  14.3536177
  51.6113243 190.8209839  14.3772030  49.5760536 187.6819458  14.3182192
  48.4183044 187.8303223  13.8522062  49.7624359 187.5282898  15.6340494
  50.6811523 187.4170074  16.0386200  48.6600533 187.2780609  16.5682507
  48.0739403 186.4124146  16.2596321  49.1802177 187.1210480  17.9808865
  48.4294243 187.2280731  18.7638016  49.8391724 185.7531586  18.2013283
  50.6233330 185.5456848  17.4732170  50.3720245 185.6649017  19.1481018
  49.0846138 184.9697418  18.1305771  50.1325226 188.1642914  18.2277031
  50.6445732 188.0000000  19.0229473  47.5945625 188.3526764  16.5483475
  46.4051285 188.0979919  16.7128239  48.0629845 189.6137543  16.4868755
  49.0470085 189.7837677  16.3355694  47.2092018 190.8508759  16.4768200
  46.3705559 190.7541504  17.1663303  48.0444527 192.0638885  17.0184097
  48.7461319 192.3444061  16.2328777  47.3368950 192.8829651  17.1471424
  48.7615356 191.9754028  18.3652134  49.4528160 191.1367645  18.2820873
  49.3049812 192.8968201  18.5744267  47.6750183 191.7814331  19.8308258
  47.8121376 190.0288391  20.1998062  48.7405548 189.7966614  20.7215767
  46.9296761 189.8086243  20.8005314  47.7970810 189.3464203  19.3499966
  46.6039276 191.1810455  15.0761471  45.6489372 191.9443817  15.0066452
  47.1230125 190.7368164  13.9013100  47.8344879 190.0271606  14.0026875
  46.7104149 191.2004547  12.5679340  47.0742722 192.2221680  12.4593220
  47.4808083 190.3105927  11.5350723  47.3885841 190.7291870  10.5328856
  48.5441513 190.2858429  11.7733727  46.9321213 188.9682007  11.4923658
  47.2551765 188.4611359  10.7439547  45.2298584 191.3053894  12.2671766
  44.8096199 192.2647552  11.5642118  44.4721947 190.3343964  12.6785297
  44.8647766 189.5416718  13.1659384  43.0275459 190.1925201  12.5381861
  42.7710762 190.4049377  11.5003033  42.7015839 188.7912598  12.9335985
  42.9843178 188.7524261  13.9855738  41.6425171 188.5919037  12.7701197
  43.2155113 188.0222168  12.3569365  42.1972694 191.1426392  13.4440346
  41.0198708 191.3731689  13.1770668  42.7851105 191.7137451  14.5254850
  43.7565308 191.5113373  14.7138376  42.1962166 192.7000122  15.4835577
  41.1265755 192.6581726  15.2780867  42.3906364 192.2044220  16.9996433
  42.5549469 191.1280060  16.9501781  43.6019440 192.8100433  17.6470108
  43.5196495 193.8926544  17.7433758  43.8219833 192.4261322  18.6431522
  44.5339355 192.6097260  17.1184635  41.1146507 192.3640137  17.8215809
  40.2696152 191.8071289  17.4167480  41.3820877 191.9415436  18.7901344
  40.8707123 193.4104919  18.0045376  42.6038361 194.2011871  15.3065615
  41.7584419 195.0928497  15.4251785  43.8724899 194.4623718  14.9049492
  44.5354919 193.7004547  14.9087400  44.4365540 195.8264160  14.7390938
  43.9507256 196.4882355  15.4560785  45.8445930 195.8325348  15.2232504
  46.0353317 196.8921967  15.3930855  46.0027466 195.3970032  16.2098598
  46.9017334 195.1216583  14.2969294  46.9599991 194.0698395  14.5768652
  46.6180649 195.1887054  13.2466249  48.3030434 195.6595306  14.2738457
  48.6993904 196.4652557  15.1127539  49.2065392 195.2188721  13.4394503
  50.1177139 195.6419678  13.3352423  48.9138756 194.4482880  12.8558054
  44.1441498 196.5437469  13.4087572  45.0772400 197.2439270  12.9693537
  42.9838028 196.3152924  12.7481947  42.3303719 195.6452484  13.1278963
  42.6438026 197.0746155  11.5617304  43.5772057 197.2790527  11.0372658
  41.6314507 196.2879028  10.6893387  40.7198601 195.9899597  11.2073460
  41.3005104 196.9367981   9.8784723  42.3741074 195.0479736  10.1174507
  43.4581413 195.1115417  10.2119312  41.9463921 193.7358551  10.8443546
  40.8902397 193.5375977  10.6618013  42.5388985 192.9081421  10.4545612
  42.0907860 193.7259216  11.9247026  41.9334793 194.7292023   8.6771727
  41.9771996 195.6278076   8.0617914  42.7343216 194.0959473   8.2954054
  40.9226570 194.3214569   8.6681709  42.1779480 198.4930725  12.0134029
  40.9757385 198.8123169  11.9409704  43.1317673 199.3142700  12.4924603
  44.0808640 198.9761810  12.4217024  42.9991112 200.7377319  12.8327513
  42.2538338 201.1690674  12.1644650  42.4837799 200.8544922  14.2433624
  42.0958023 201.8523865  14.4477558  41.6029358 200.2139130  14.2867212
  43.4897804 200.4603424  15.3449402  44.0478287 199.5837250  15.0159683
  44.2385216 201.2193909  15.5714750  42.7082977 200.0727997  16.5986729
  42.5894699 198.9243774  16.8921509  42.1609497 201.0579224  17.2768402
  41.3991890 200.8748016  17.9142475  42.3523750 201.9602509  16.8654327
  44.3301468 201.3949890  12.5540791  45.3431091 200.7503815  12.2740602
  44.3690987 202.7242889  12.7370396  43.5224876 203.2405548  12.9289207
  45.5546341 203.5742493  12.4713392  45.8421059 203.3105774  11.4535294
  45.2344284 205.0653687  12.3526707  46.0865822 205.6312561  11.9762440
  44.4046440 205.1431427  11.6501703  45.0156517 205.4202576  13.7089148
  44.6182289 206.2875214  13.8162413  46.7949944 203.2236786  13.2459736
  47.8696671 203.7829285  12.9770145  46.7443275 202.3575439  14.3045053
  45.8306160 201.9705963  14.4929361  47.9465561 201.8659363  15.0794573
  48.6858521 202.6634979  15.1531792  47.5197754 201.5810852  16.5545368
  46.5955505 201.0042114  16.5879784  48.3231392 200.9972992  17.0038738
  47.4488754 202.8042297  17.4675732  48.4536972 203.2201996  17.3940716
  46.4048996 203.9363403  17.3135090  45.4083138 203.5138397  17.1853867
  46.4128838 204.6756287  18.1144409  46.6880989 204.4878235  16.4169731
  47.2845039 202.1955566  18.8780403  48.1085930 201.4881134  18.9702587
  47.3556938 202.9192352  19.6900234  46.3469543 201.6559296  19.0118885
  48.7483330 200.6924133  14.3745079  49.8065720 200.2693176  14.8531952
  48.2972641 200.1790771  13.2704525  47.5239868 200.6536560  12.8266973
  48.9174194 199.0137482  12.5702629  48.9150162 198.2440338  13.3420219
  48.0397682 198.5480652  11.4386082  48.4430008 197.6228638  11.0268717
  47.0320091 198.4414673  11.8400707  48.1615829 199.4585724  10.2733450
  47.4073830 199.3254547   9.6945009  50.3549652 199.1717987  12.0075350
  51.1712646 198.2514648  11.8736343  50.6766014 200.4833679  11.7585011
  49.9612999 201.1653595  11.9666672  51.9975319 200.9461975  11.1915035
  52.3678284 200.1433563  10.5539894  51.7684746 202.1611481  10.2356138
  52.6757774 202.5210571   9.7504673  51.1259537 201.7511597   9.4563942
  51.0831947 203.3116760  10.9690094  50.1135330 203.1624756  11.4439831
  51.7400208 203.7004242  11.7471800  50.7617836 204.4993591  10.0169334
  51.6408844 204.8693390   9.4892941  50.0776978 204.1161957   9.2597570
  50.0176048 205.5538177  10.7235346  49.2390747 205.2900391  11.3104010
  50.1853676 206.8282318  10.7162113  51.2467651 207.3826599  10.2052288
  51.7282104 206.8378296   9.5041857  51.2223358 208.3902283  10.2710581
  49.4464302 207.6258698  11.3880844  48.6487007 207.3378601  11.9365206
  49.6579285 208.6132050  11.4109440  53.0728493 201.3377380  12.2544966
  54.0738144 201.9883728  11.8613968  52.8404922 201.0171509  13.5538158
  52.0262337 200.4755859  13.8063831  53.8953667 201.1229401  14.6440611
  54.2780724 202.1435394  14.6492777  53.1447487 200.9885406  15.9602985
  52.5068207 200.1083832  15.8799276  53.8125420 200.7780151  16.7956600
  52.1970253 202.2021637  16.1914330  52.7003937 203.1238251  15.8994064
  51.3043098 202.1537781  15.5678768  51.7526741 202.4192810  17.6320839
  50.8046379 202.9427643  17.5084457  51.5649147 201.4874420  18.1654892
  52.6202354 203.2618866  18.4659462  53.4345932 203.6428986  18.0057926
  52.4931335 203.5360107  19.7300797  51.4938812 203.0779572  20.4372234
  50.8765450 202.4174500  19.9869728  51.4657211 203.1923828  21.4403248
  53.3325272 204.4001312  20.2788696  54.2089653 204.6348419  19.8351650
  53.2025032 204.7535858  21.2160320  55.0832596 200.0871124  14.5201950
  55.1811714 199.1824036  15.3274736  55.7606163 200.1762543  13.4045019
  55.4902954 200.9323120  12.7918034  56.6040306 199.1677704  12.7504644
  56.0764198 198.2353973  12.9514904  56.4692841 199.4933929  11.2552691
  55.4432297 199.7959442  11.0460596  57.1348228 200.3545837  11.1960144
  56.8794708 198.5093231  10.2035227  57.9860306 198.6228333   9.3938713
  57.9739685 197.5738220   8.5234327  58.6954422 197.3411255   7.7541947
  56.8971977 196.8138275   8.7984991  56.6923218 195.9459534   8.3242388
  56.2088242 197.3498535   9.8558264  55.2147408 197.0247498  10.1251049
  58.0190353 198.9782104  13.3159122  58.5151978 199.6809692  14.2323027
  58.7696877 197.9924469  12.7392588  58.3816528 197.4671936  11.9687853
  60.0165176 197.3985901  13.2870903  60.0868073 197.5195160  14.3680782
  59.9083557 195.9084473  12.8433504  60.8040695 195.4162903  13.2222691
  58.7821236 195.3095551  13.6573629  57.7916069 195.6044769  13.3109341
  58.8693390 194.2230530  13.6592817  58.7946281 195.7355194  14.6606092
  59.7549629 195.6927338  11.3074732  58.6869965 195.8285217  11.1368322
  60.4222031 196.3703766  10.7748556  60.0863037 194.3444672  10.7661486
  59.4872246 193.5392456  11.1913986  59.8062630 194.4412537   9.7171917
  61.1466866 194.0948792  10.8034363  61.4387398 198.0310974  12.8768854
  61.5108719 198.7994690  11.9185877  62.6587219 197.8256378  13.4901829
  63.4064827 198.2878265  12.9928436  63.2093277 196.7776642  14.3333578
  64.2248154 197.0937500  14.5720444  62.5250092 196.6139832  15.6539421
  61.6339684 196.0141296  15.4686861  63.2048836 196.0818329  16.3192883
  61.9942894 197.8627930  16.4203320  62.8058395 199.0132294  16.5847645
  63.8146248 198.9947815  16.1995029  62.3809853 200.1241760  17.3359756
  63.0258064 200.9789276  17.4773960  61.0795555 200.1401825  17.8798885
  60.7666779 200.9586334  18.5112705  60.2517662 199.0250549  17.6703320
  59.3348541 198.9615631  18.2374725  60.6736107 197.9324341  16.9167137
  60.1011047 197.0175781  16.8760223  63.5613594 195.4600983  13.5734148
  63.6856384 195.4895477  12.3400030  63.7374039 194.3292694  14.3110065
  62.7908440 193.6186218  15.0864639  61.7677040 193.6830750  14.7161531
  62.7619057 193.9487915  16.1248531  63.2458305 192.1648560  15.0042124
  63.2159729 191.7515411  13.9960546  62.7728310 191.5461273  15.7668114
  64.7280579 192.3303375  15.3175755  65.2956314 191.4704895  14.9617224
  64.8233795 192.4762573  16.3935490  64.9870453 193.6152802  14.5739164
  65.6013412 194.2563324  15.2061939  65.6847916 193.3603210  13.2125769
  65.0229263 192.8470001  12.2802935  67.0166626 193.4556885  12.9740133
  67.3442383 193.1425629  12.0713778  68.0337448 193.8950806  13.9345360
  69.0230713 193.9568787  13.4811993  68.1655884 192.9188385  15.1339273
  69.1700439 193.0576630  15.5337849  67.3948212 193.1256409  15.8763943
  68.0815506 191.5639954  14.7162542  68.6628189 191.4307251  13.9639511
  67.8678207 195.3031006  14.5054550  66.9280090 196.0063629  14.1001596
  68.7008514 195.7674103  15.4437504  69.2885284 195.0667267  15.8724432
  68.4041214 196.9563904  16.2557468  67.5537262 197.3755035  15.7178946
  67.8025284 196.4468231  17.5279903  67.4011917 195.4441681  17.3806210
  68.6560440 196.3359985  18.1968098  66.7438660 197.3169403  17.9810772
  66.8848495 197.7468567  18.8277817  69.3390350 198.1651154  16.4634686
  69.1183701 198.8853149  17.4108982  70.4860611 198.3467407  15.8141623
  70.9708939 199.1946869  16.0711288  70.9421463 197.7015533  14.5879869
  71.8519440 198.2891235  14.4649792  69.9209595 198.0771027  13.3968344
  68.9559631 197.5708923  13.4218798  69.6118317 199.1183472  13.4882011
  70.3369141 197.7783966  11.9262896  70.5305023 196.7090454  11.8420200
  69.4493637 197.9969940  11.3325071  71.6213226 198.5433960  11.6076450
  72.4350052 198.4402924  12.3255558  71.9565887 198.1298981  10.6564732
  71.3703461 200.0472870  11.2985907  70.2886887 200.1784515  11.2683640
  71.7620468 200.6855011  12.0906448  71.9182053 200.3732910   9.9453926
  71.4952927 199.7936401   9.2345734  71.6930466 201.3228912   9.6852875
  72.9082870 200.2541962   9.7852392  71.6840286 196.3204346  14.6599970
  71.7226105 195.5723267  13.6986799  72.4008331 196.0575714  15.7450857
  72.0623856 196.3860474  17.1303902  70.9940872 196.2268066  17.2769947
  72.3069687 197.4180756  17.3817940  72.6695786 195.2758636  17.9658642
  71.8818588 194.7166748  18.4707451  73.3889694 195.7658997  18.6219501
  73.3371429 194.3639984  16.9889469  74.2446136 193.9096222  17.3866177
  72.5907211 193.6361542  16.6708279  73.5534134 195.1770477  15.7000732
  73.5599442 194.4086761  14.9269819  74.9282990 195.9231415  15.6239338
  75.9231567 195.2807312  15.3638039  74.9598694 197.2273254  15.9723606
  74.0632095 197.6910553  16.0047283  76.1608124 198.1307373  16.1049213
  76.8554459 197.9652252  15.2813940  75.7233353 199.5518494  16.0696259
  75.0139923 199.7180939  15.2588854  75.2630920 199.9020538  16.9935474
  76.9144516 200.4633789  15.8579741  77.7664566 200.0740967  16.4153366
  77.1696701 200.4428253  14.7984724  76.7624283 202.0244446  16.2364807
  76.6198959 202.1503448  17.3097610  77.6011124 202.6438141  15.9185457
  75.5438690 202.5149994  15.4135904  75.5130768 201.8464508  14.5532389
  74.6612473 202.2778931  16.0076141  75.6916962 203.9398651  14.9588299
  76.5692825 204.0090637  14.4637003  74.8562469 204.2795410  14.5041342
  75.6858902 204.5640411  15.7528534  76.8787766 197.7490540  17.3874722
  78.0963058 197.5700531  17.3331242  76.1194382 197.6082916  18.5208073
  75.1331177 197.5883942  18.3042793  76.7080154 197.5056152  19.9162903
  77.5386047 198.2104492  19.9539471  75.7359543 197.7877502  21.0420513
  76.3606033 197.9164734  21.9259892  75.0992813 199.1069641  20.7813301
  74.3604050 199.0840302  19.9803085  74.6496887 199.3583679  21.7419319
  75.7689743 199.9453583  20.5897388  74.6693802 196.6671753  21.3933887
  75.2123871 195.7869873  21.7376366  73.9063644 196.9699402  22.1104946
  74.1013336 196.5143280  20.4757500  77.4579926 196.1546783  20.1339149
  77.9749146 195.9721985  21.2821293  77.5623398 195.2336884  19.2059212
  77.2578659 195.4880524  18.2771111  77.7786255 193.7980347  19.4801044
  77.7169266 193.2297668  18.5520039  79.2211685 193.5748444  20.0830269
  79.2142868 193.9463501  21.1077404  79.3742142 192.4965973  20.0378342
  80.4069672 194.2420807  19.3888302  81.2675858 195.1367493  19.9574337
  81.2020035 195.6107788  20.9256248  82.2316284 195.4423523  19.0021553
  82.9681015 196.1107025  19.1782227  82.0621414 194.7519531  17.8314171
  82.7077866 194.7980499  16.6005096  83.5613785 195.4347687  16.4205856
  82.2301865 194.0971832  15.5022211  82.7617340 194.1800690  14.5657473
  81.0895996 193.2153168  15.6959057  80.7057724 192.6095123  14.8883915
  80.4688721 193.1872559  16.9914513  79.5631790 192.6313629  17.1840820
  80.9321289 193.9575043  18.0550404  76.6837540 193.1292877  20.4200783
  75.5424423 193.6116943  20.3674717  77.1196289 192.1108551  21.2121315
  78.0414352 191.7564087  21.0006180  76.5818329 191.4794312  22.4076176
  77.4512787 190.9103241  22.7366695  75.5327301 190.3993683  22.0433426
  75.0193710 190.1222534  22.9640903  74.8116913 190.8577271  21.3664989
  76.1389389 189.1214447  21.4088364  75.3773651 188.5814972  20.8462143
  76.7987137 189.4262695  20.5965023  76.7866058 188.2090912  22.4873505
  77.6685715 188.5763397  23.1713181  76.3134079 186.9768219  22.6787148
  76.6727448 186.3522491  23.3864536  75.6326065 186.5529633  22.0647488
  76.2300262 192.4268341  23.5973969  76.0290146 193.6174469  23.4136963
  76.0726700 191.8016815  24.7604599  76.2009964 190.7998810  24.7656307
  75.8859863 192.3376617  26.1597176  75.3654709 191.4961853  26.6169815
  77.2338028 192.3974152  26.9931316  77.1489487 192.8962250  27.9585800
  77.4514542 191.3400726  27.1440258  78.4545364 192.9148102  26.3088303
  78.5546341 194.1786499  26.2728329  79.4305878 192.2091675  25.9166470
  74.9580994 193.5444946  26.3964996  75.0760193 194.5944366  25.8095818
  74.0845413 193.3852997  27.4217072  74.0167084 192.4492340  27.7949142
  73.2396240 194.5242157  28.0228367  72.3680344 194.0559692  28.4801846
  74.0027924 195.2282104  29.2381630  73.2779007 195.8618927  29.7491302
  74.2579346 194.3910828  29.8879395  75.3357620 195.8857269  28.9707260
  75.9412308 195.7762146  29.8704529  75.8779755 195.4101715  28.1534405
  75.4046783 197.4531860  28.7423515  74.6141815 197.9759674  29.2808018
  76.3315125 197.8568878  29.1499233  75.3261261 197.7884369  27.2684917
  74.4131699 198.0141449  26.9001637  76.3767319 197.8959808  26.4800606
  77.5722122 197.5882874  26.9091187  77.7314453 197.2458344  27.8458576
  78.3640213 197.5388641  26.2840614  76.1565475 198.3204193  25.2353020
  76.9758301 198.4410858  24.6571026  75.2651596 198.6756592  24.9201221
  72.4916458 195.5201569  27.0660954  72.0970154 195.1424255  25.9557590
  72.1743698 196.7272186  27.5339146  72.4255829 196.9179840  28.4933968
  71.2525711 197.7113495  26.9917698  71.0896835 198.4701080  27.7571774
  71.9737930 198.3739929  25.8151855  72.3972931 197.6620941  25.1066914
  71.3382263 199.0898895  25.2939968  72.8881226 198.8724213  26.1371784
  69.8043594 197.3222961  26.6739998  68.8437881 197.8478546  27.1858006
  69.5847855 196.4661407  25.6639061  70.3384933 195.9340210  25.2529659
  68.3136139 196.2853241  24.9542007  67.8701324 197.2730865  24.8286839
  68.4900360 195.8400269  23.4987030  67.5180435 195.5967560  23.0695667
  68.7529755 196.7231293  22.9163876  69.5450363 194.7743073  23.3178558
  69.1031265 193.4330597  23.2588100  68.0677414 193.1259613  23.2671757
  69.9901123 192.4227448  22.9745731  69.7792282 191.3661652  22.9000645
  71.3511429 192.7163544  22.7467937  71.9987564 191.9285889  22.3912468
  71.7748032 194.0809021  22.8261662  72.8026810 194.3038177  22.5808449
  70.8919067 195.1377869  23.1264629  71.1683578 196.1777649  23.2181015
  67.2706528 195.4497986  25.7693539  66.1542358 195.2563324  25.3053322
  67.5594635 195.0758514  27.0739098  68.5062027 195.1934204  27.4055099
  66.5791092 194.5906982  28.0784378  66.1374817 193.6779938  27.6783924
  67.1605530 194.3190765  29.5111217  66.8143921 195.0667725  30.2247105
  66.6422272 193.3976135  29.7764034  68.7045670 194.1169891  29.6044674
  68.8214264 193.2485352  30.2527351  69.0712204 193.8140869  28.6236897
  69.5010071 195.4016724  30.1180439  70.5560837 195.1299896  30.1512356
  69.3890305 196.1163788  29.3027134  69.0528870 195.8914032  31.4230270
  68.8595123 195.1812897  32.1147308  69.0510254 197.0915527  31.8713589
  69.3869781 198.1701050  31.2191963  69.9219360 198.1115570  30.3645096
  69.1572876 199.0694122  31.6174374  68.5962601 197.2331696  33.0620155
  68.3286514 196.4718933  33.6694107  68.4916763 198.1406860  33.4928055
  65.3288193 195.4777679  28.1719551  64.2309341 194.9863586  28.4028206
  65.4759369 196.8407440  28.1199646  66.4252014 197.1739197  28.0305958
  64.3574066 197.7993469  28.0007877  63.6916389 197.5415497  28.8244362
  64.8959045 199.2374725  28.2691097  65.6701584 199.5116730  27.5525570
  64.0550461 199.9213867  28.1536636  65.5967712 199.4136963  29.6578827
  64.8077545 199.3395386  30.4062500  66.2401428 198.6156006  30.0283260
  66.2672958 200.8014679  29.8607388  67.4330597 200.9789886  29.5031433
  65.5685043 201.8138123  30.3216705  65.8994064 202.7422333  30.1011658
  64.6085052 201.6985168  30.6135769  63.5690994 197.7285156  26.6922817
  62.3527756 197.7887726  26.6399174  64.2473297 197.4324493  25.5832253
  65.2554550 197.3996124  25.6352043  63.6206970 197.3071899  24.2822838
  62.9249268 198.1307068  24.1215916  64.6173706 197.4449005  23.2178478
  64.9766006 198.4738922  23.2322922  65.4870453 196.8005219  23.3464851
  64.0460358 197.2629089  21.8285217  63.5717430 198.2751465  21.0190563
  63.5161934 199.2884369  21.3886127  63.0787048 197.7038727  19.8728695
  62.6830597 198.2729797  19.1382389  63.2131233 196.2837524  19.8950977
  62.7227745 195.2803497  19.0212307  62.2049065 195.5539398  18.1138382
  62.9729805 193.9547119  19.3680725  62.7611084 193.1738281  18.6527290
  63.7090607 193.6726227  20.5323887  63.9210968 192.6264496  20.6966419
  64.1571732 194.6109314  21.4484959  64.6541748 194.2783661  22.3478222
  63.8836174 195.9873352  21.1403236  62.7470627 196.0583038  24.1332054
  61.6891479 196.1186066  23.5520210  63.1206703 194.9287720  24.7822189
  64.0585938 194.8860626  25.1544724  62.2811890 193.7140656  24.7425041
  62.0520020 193.5436096  23.6905918  63.0170288 192.4407501  25.2921658
  63.5651436 192.6656342  26.2070980  62.2365761 191.7213287  25.5399933
  63.8482590 191.7753448  24.2685394  65.1834717 191.9496613  24.0216770
  65.8724823 192.6710968  24.4354362  65.5294418 191.1977692  22.8974686
  66.4340591 191.2288361  22.4493599  64.4529572 190.6862793  22.2584553
  64.2757339 190.1001129  20.9586163  65.0588303 189.9821930  20.2242737
  62.9383049 189.8006592  20.5632572  62.6435242 189.2984161  19.6537266
  61.9002228 190.0972290  21.3903580  60.8982353 189.8662109  21.0601330
  62.0577736 190.7078552  22.6810055  61.1639977 191.0447845  23.1850319
  63.3800240 190.9950409  23.1098232  60.8802605 193.9625244  25.4036026
  59.8570366 193.6882324  24.7751408  60.8044930 194.6314240  26.5683002
  61.6863022 195.0015869  26.8930817  59.5398026 195.1732788  27.1649628
  58.8704185 194.3267059  27.3177319  59.8276787 195.7472382  28.5556755
  60.6179886 196.4944305  28.4834766  58.9438286 196.1710968  29.0323830
  60.3849525 194.7345276  29.5359173  59.6854439 193.8985901  29.5349693
  61.4064064 194.4266663  29.3124332  60.4087029 195.3887024  30.9565926
  60.8412552 196.5408478  31.1530418  59.8593750 194.7304382  31.9972382
  60.0111465 195.1284027  32.9130402  59.6450005 193.7468567  31.9153309
  58.8654976 196.1691284  26.2706013  57.6553116 196.0432129  26.1973305
  59.6079407 196.9654694  25.4888649  60.6006355 196.8565521  25.6398354
  59.1363068 198.0318909  24.6492977  58.3416405 198.5292969  25.2053452
  60.2314796 198.9662018  24.2916832  60.9392128 199.0307465  25.1181507
  60.8208618 198.6621094  23.4266586  59.8024406 200.3789062  23.9992161
  59.2776985 200.3654938  23.0439339  59.1884575 200.8262329  24.7808971
  61.0088158 201.3070831  23.6748581  61.7264061 201.4993896  24.4724693
  61.5916786 200.7109375  22.9727230  60.7807884 202.7014313  23.0374317
  61.6516571 202.9439240  22.4284306  59.8422623 202.6997986  22.4831200
  60.6389351 203.7689667  24.0865555  61.4896011 203.9818268  24.5877094
  60.4045448 204.6510010  23.6539192  59.9473991 203.4898224  24.7677002
  58.5330734 197.5108795  23.3253994  57.4737854 198.0148315  22.9339314
  59.1230202 196.4772186  22.7711887  59.9764442 196.1564941  23.2058182
  58.6972771 195.7815094  21.5404911  58.4534836 196.5039825  20.7615738
  59.7938118 194.8786621  21.0699596  60.6449776 195.5176086  20.8346691
  60.1060905 194.2665100  21.9160461  59.5125046 193.9166260  19.9086800
  59.6488571 194.3793030  18.6159477  60.0211906 195.3725433  18.4128513
  59.3258438 193.4830322  17.5461540  59.3973579 193.8490601  16.5325871
  58.8793297 192.1311493  17.8395729  58.5013313 191.2774811  16.8641968
  58.3585625 191.6745148  16.0018845  58.7269402 191.7268066  19.1694069
  58.3950996 190.7184296  19.3680115  58.9803810 192.6122437  20.2106533
  58.7755280 192.2886658  21.2204704  57.3982620 195.0357666  21.9251289
  56.3937454 195.3330994  21.2785568  57.4322815 194.2892761  23.0623989
  58.3312416 194.2764740  23.5226250  56.2227135 193.6959839  23.6190853
  55.8579483 192.9092407  22.9587135  56.7459259 192.9551849  24.9299030
  57.4258423 192.1594696  24.6255398  57.3137932 193.6115265  25.5893269
  55.6466637 192.3266449  25.7849007  54.9917679 193.1620483  26.0324879
  55.0608292 191.5908051  25.2340374  56.1727600 191.6844482  27.0826950
  56.1689606 190.4512177  27.1871376  56.6099052 192.4907227  28.0405083
  56.8083534 192.0135498  28.9082756  56.2438431 193.4320526  28.0397549
  55.1497917 194.7327881  23.8985920  53.9950447 194.4688110  23.5454884
  55.4461823 195.8585052  24.5458469  56.4213257 195.9969788  24.7695007
  54.4612846 196.8873749  24.8757267  53.6284637 196.3623047  25.3435001
  54.9659729 197.8724365  25.9428425  55.4961624 197.2726135  26.6825771
  55.6921425 198.5217896  25.4538479  53.9583054 198.7689667  26.6643047
  53.3444977 199.3061066  25.9412422  53.2790413 198.2291107  27.3240471
  54.6597672 199.8620300  27.5136700  55.2376404 199.3226013  28.2641239
  55.2504120 200.4453583  26.8072910  53.5823631 200.6694641  28.2215366
  53.0414810 201.3410187  27.5547791  53.0106926 200.0123749  28.8769207
  54.1723557 201.6212006  29.2328491  54.9595146 202.1343842  28.8625355
  53.4879227 202.1551819  29.7490978  54.6855278 201.1191254  29.9432487
  53.9257545 197.6437073  23.6072311  52.7426186 198.0600739  23.6203747
  54.7178955 197.7701569  22.5190411  55.6995544 197.5333557  22.5382710
  54.3291588 198.4315491  21.2303486  53.6213188 199.2264862  21.4651546
  55.5981712 199.1362000  20.6949673  55.9200211 199.7063141  21.5664539
  56.3260651 198.3601990  20.4581165  55.3331146 200.0370789  19.4436131
  54.7540588 199.5227356  18.6766434  54.7454796 200.9269714  19.6692200
  56.6311264 200.6053772  18.8041649  57.4183426 199.8516846  18.8222847
  56.3806953 200.7776794  17.7574100  57.1517105 201.8924713  19.3889923
  56.6990089 202.1187439  20.2630444  58.0473671 202.6730804  18.7977161
  58.5284615 202.3536224  17.6122379  58.1443939 201.5734711  17.0984917
  59.0476532 203.0324860  17.0739937  58.4327621 203.8471832  19.3322868
  58.1465149 204.1003876  20.2671928  59.0627251 204.4437561  18.8152428
  53.6144371 197.5647430  20.1848869  52.5331306 197.9984436  19.6562614
  54.0287819 196.3121185  19.9705200  54.8712234 195.9973297  20.4301853
  53.3303146 195.2724304  19.1870079  53.1352844 195.7039337  18.2052422
  54.4368248 194.1983643  18.9929962  55.2724495 194.7548370  18.5685310
  54.7014809 193.7507935  19.9509830  54.0218315 193.1114502  18.0285969
  53.1455765 192.5897217  18.4134045  53.7715874 193.5946503  17.0841389
  55.1632156 192.1259918  17.8127556  55.9942627 192.6262970  17.3156052
  55.5039139 191.7077789  18.7599239  54.6389465 190.9664001  16.9239826
  55.2532120 190.0745239  17.0477867  53.6344833 190.6525726  17.2080021
  54.6645279 191.2599030  15.4803810  55.6057320 191.4252472  15.1534243
  54.3070869 190.4591370  14.9792776  54.0724602 192.0461731  15.2537966
  52.0378990 194.7700653  19.7550163  51.0013046 194.9208984  19.0907898
  52.0450401 194.2298279  20.9448071  52.9443970 194.1993561  21.4034290
  50.8624458 193.6069183  21.5967770  50.2290916 193.2489319  20.7851086
  51.1679878 192.3443756  22.4487877  51.5438461 192.6540222  23.4239578
  50.2711411 191.7337952  22.5534687  52.2956810 191.4906616  21.8432560
  52.0678177 190.6472931  20.7251186  51.0650826 190.6478119  20.3239613
  53.1583061 189.8076782  20.2553158  53.0156670 189.1078491  19.4451962
  54.4160957 189.8055420  20.8856049  55.2528458 189.2349701  20.5104942
  54.5573082 190.5994415  22.0420113  55.4962654 190.5743103  22.5750580
  53.5421677 191.4431915  22.4896297  53.6725922 192.0561371  23.3692303
  49.9485703 194.5659485  22.3849430  49.0310745 194.0940857  23.0326614
  50.1622200 195.8530731  22.2316647  50.9379807 196.2316284  21.7072697
  49.2687149 196.8597107  22.7922878  49.4931984 196.9384613  23.8560123
  49.5653381 198.2224121  22.0894871  50.6090050 198.4746399  22.2772121
  49.4494820 198.1321869  21.0094223  48.8252220 199.4868927  22.5684261
  49.0768852 200.2129211  23.7477627  48.1995735 201.1866455  23.7754364
  48.0316963 201.8690491  24.5955315  47.4016342 201.0831451  22.6498795
  46.6438103 201.7039490  22.4041157  47.8503418 200.0768738  21.8475304
  47.4963226 199.7474365  20.8818493  47.7603378 196.6308594  22.5496960
  46.9196320 196.6928406  23.4978065  47.3877029 196.2296295  21.3371010
  48.1500816 196.0010681  20.7152977  46.0441551 195.8638153  20.8815536
  45.3633423 196.6562500  21.1924152  46.0339394 195.8875275  19.3428116
  46.8215256 195.2433319  18.9518795  45.0380211 195.5486145  19.0575352
  46.3204765 197.6445923  18.8964710  46.9732285 197.4097290  17.7546978
  45.4987411 194.5387726  21.3993797  44.3638344 194.1579285  21.1398849
  46.1019707 193.8683319  22.3164482  47.0577583 194.1054382  22.5408516
  45.6269493 192.7430725  23.1513519  45.2967796 191.9534454  22.4763851
  46.8359718 192.1361389  23.9163284  47.2907181 192.8811188  24.5692635
  46.5470963 191.3285980  24.5890388  47.4196396 191.6464233  23.1368351
  44.4855537 193.2412262  24.1342258  43.5636330 192.4754333  24.4274292
  44.4915047 194.5193634  24.4624367  45.2223892 195.1435089  24.1520271
  43.3809090 195.2060852  25.0996666  43.1939812 194.6942596  26.0436954
  43.8314629 196.7060699  25.3086090  43.0798492 197.2643585  25.8667336
  44.7465401 196.6909180  25.9006481  44.0284462 197.3541870  24.0985756
  44.6457253 198.0777588  24.2289982  41.9863548 195.1903839  24.4632206
  40.9943848 195.5082092  25.1307144  41.9260750 194.7936554  23.1783485
  42.8146629 194.6371613  22.7244606  40.6561813 194.4700470  22.5115986
  39.8170662 194.9837799  22.9807186  40.6991272 194.6826172  20.9867535
  41.3442230 193.9077606  20.5725632  39.7218208 194.6132965  20.5090809
  41.2794456 196.0394135  20.6545334  42.3024025 196.0926208  21.0271282
  41.2303734 196.2627258  19.1049614  40.2046089 196.3591309  18.7491436
  41.7977715 197.1777191  18.9347954  41.7087860 195.4166870  18.6115665
  40.4311981 197.1375732  21.2215366  40.5431290 197.1105042  22.3054390
  40.7825813 198.1183167  20.9009666  39.3731422 196.9728241  21.0178871
  40.1397667 193.0436859  22.9454861  38.8874702 192.8053741  23.0181961
  40.9536285 192.1078186  23.3494892  41.9385796 192.3282776  23.3124752
  40.6916428 190.7664185  23.8768444  39.6491127 190.5111389  23.6869450
  41.5383911 189.5784149  23.2548847  40.9506264 188.6869507  23.4738369
  41.7684021 189.6892853  21.7080212  42.3799591 190.5379333  21.4016190
  42.2289162 188.7682495  21.3506145  40.7991333 189.6843262  21.2094326
  42.7673416 189.4899292  23.7992401  43.3136787 188.8529968  23.3329372
  40.8253059 190.6906738  25.4487743  41.1588707 191.6479492  26.1692753
  40.4256172 189.5445099  26.0111732  40.1950645 188.7704620  25.4047012
  40.5157204 189.3123322  27.4605980  40.2167702 190.2001495  28.0178337
  39.6011581 188.1446075  27.8385086  39.7306595 188.0679626  28.9180698
  38.5735779 188.3884583  27.5688381  39.9687767 186.9345093  27.2192993
  39.2457657 186.3195190  27.0756683  41.9194260 188.9787750  28.0613060
  42.2720680 189.6553650  29.0225697  42.6687393 188.0626373  27.4455738
  42.2640343 187.4944153  26.7152119  44.1263199 187.8878021  27.7382641
  44.1827316 187.4573059  28.7380638  44.6916008 186.9171143  26.7238483
  44.7137642 187.4179535  25.7559834  45.7328300 186.6550903  26.9116974
  43.9300423 185.6398163  26.5305595  43.2972603 185.2875061  25.4118423
  43.4315605 185.7848206  24.4626045  42.7053108 184.1062317  25.5107594
  42.4240150 183.5796509  24.6960869  42.7399330 183.6412354  26.8104649
  42.2454033 182.4797058  27.4090405  41.7380905 181.7832642  26.7578850
  42.5893555 182.2332306  28.7396545  42.2577438 181.2864380  29.1396847
  43.3889618 183.1317139  29.4203854  43.6191597 182.9393158  30.4578819
  43.7744789 184.3677521  28.8573666  44.2895699 185.0815735  29.4830952
  43.5734100 184.6101074  27.5156288  45.0330620 189.1622009  27.8189335
  44.8172989 190.1029053  27.0065136  46.0310173 189.1658783  28.7069778
  46.3619118 188.1656494  29.7291622  46.4455757 187.1827545  29.2654610
  45.5742340 188.1501923  30.4824390  47.6356773 188.5601196  30.3678818
  48.4744034 188.1238708  29.8253651  47.6363640 188.3103180  31.4288731
  47.5459099 190.0637360  30.1771469  48.5400314 190.5106812  30.1697273
  46.9616394 190.5648499  30.9489079  46.9646759 190.2927856  28.8120747
  46.3778725 191.2093964  28.7522640  48.0284424 190.2987518  27.6573219
  48.2361565 189.2891693  26.9473686  48.9107399 191.3537598  27.5206623
  48.5256691 192.6618347  28.0978336  48.9998856 192.7202759  29.0775299
  47.4503784 192.8350220  28.0546989  49.1724167 193.7395477  27.2544270
  49.4499931 194.5648956  27.9100647  48.4903679 194.1418304  26.5053711
  50.2929497 192.9794312  26.5661793  51.1757965 192.9033356  27.2009125
  50.4763641 193.4514313  25.6009407  49.8441391 191.5051727  26.4194832
  49.3336105 191.3726959  25.4655895  51.0086708 190.4391785  26.4262371
  51.4821548 190.0979156  25.3648777  51.3792801 189.9036102  27.6053181
  51.0264626 190.2513275  28.4855003  52.5014572 189.0360718  27.7829666
  53.3586578 189.4310303  27.2377052  53.0000000 189.0612793  29.2434139
  53.7906990 188.3223419  29.3733082  53.5515251 189.9943695  29.3586178
  52.0126991 188.8342133  30.4004002  51.4725533 189.7395477  31.2902679
  51.6693840 190.8005829  31.2472649  50.5467377 189.0991211  32.0983009
  49.9818573 189.6295471  32.7461166  50.5072212 187.7346954  31.9031448
  49.7626877 186.7163391  32.5228958  48.9901161 187.0056763  33.2199059
  50.0979614 185.3960571  32.2316933  49.5592613 184.5479584  32.6278343
  51.1594353 185.1347198  31.3735409  51.3071518 184.1079865  31.0729046
  51.7662659 186.1317749  30.6103649  52.3452263 185.8489380  29.7436409
  51.4558830 187.5116882  30.8711624  52.2051201 187.6100006  27.2466850
  53.1284714 186.8597870  26.8705750  50.9392319 187.1710052  27.2353649
  50.2320747 187.7378845  27.6811047  50.6124878 185.8254395  26.7972984
  51.1822701 185.1342010  27.4182949  49.0806656 185.4726410  27.0419025
  48.8150291 185.6976776  28.0748119  48.5945282 186.1061401  26.2999802
  48.6736221 183.9823456  26.8066635  49.1020851 183.6824799  25.8503189
  49.0921707 183.0232697  27.9377995  48.5541954 183.1454315  28.8778839
  48.8679123 181.9984436  27.6419277  50.1708450 183.0732269  28.0863380
  47.1323090 183.8794708  26.6279545  46.7208824 184.3687286  25.7450867
  46.7388725 182.8633423  26.5999260  46.6470070 184.3255920  27.4960384
  51.0218010 185.6189728  25.2902069  51.5853691 184.6458282  24.8491020
  50.7799835 186.6219330  24.4765778  50.3084259 187.4300232  24.8570080
  51.1092720 186.5979004  23.0524235  50.6858139 185.6653748  22.6793480
  50.3520775 187.6825409  22.2826920  50.7639618 188.6586609  22.5389271
  50.6289902 187.4570770  21.2528400  48.8668861 187.6051025  22.3782310
  48.0747757 186.7245941  21.6261330  48.5950737 186.0395660  20.9731159
  46.6653900 186.6541748  21.7315903  46.1741409 185.9452972  21.0815411
  46.0580406 187.4830170  22.6799431  44.7024841 187.5490723  22.7672005
  44.3115425 187.1758728  21.9737968  46.8417091 188.3264465  23.5232830
  46.4242554 188.9518280  24.2985458  48.2375793 188.4205780  23.3361492
  48.7947006 189.0841370  23.9808979  52.6051064 186.5347748  22.7714310
  52.9474068 185.8291626  21.8477325  53.4865913 187.0318146  23.6810818
  53.1130791 187.6921234  24.3478642  54.9088669 186.8517914  23.4526768
  55.1586418 187.2788086  22.4814014  55.6361809 187.5701141  24.6093864
  55.4503593 187.0573273  25.5531197  56.6882133 187.6311035  24.3308125
  55.1230888 188.9235382  24.7740726  55.3860168 189.2849579  25.6236877
  55.3571205 185.3709259  23.5415936  56.2154121 184.9436798  22.7953911
  54.6990356 184.5466003  24.3493786  53.8972054 184.9592896  24.8041973
  54.8633652 183.0890961  24.4785080  55.9452209 182.9611511  24.5147972
  54.3315010 182.5179443  25.8238087  53.2549515 182.4590149  25.6635857
  54.7176132 181.5200348  26.0316563  54.6343193 183.3489075  27.1108665
  54.3713188 184.3816223  26.8818913  53.7243309 182.9696808  28.2904491
  53.9457245 181.9733276  28.6730633  53.9616699 183.6636353  29.0967960
  52.6885529 183.0831451  27.9704704  56.0570679 183.3152313  27.6296101
  56.6801796 183.6794891  26.8128185  56.2700615 183.9860992  28.4618759
  56.3373795 182.3196259  27.9735775  54.3356018 182.3418274  23.2554588
  54.3956413 181.1285095  23.1774120  53.9497833 183.0368042  22.2389679
  53.8292274 184.0128174  22.4691162  53.5893250 182.5184021  20.8920975
  53.8989601 181.4744720  20.8426762  52.0452690 182.4343872  20.7528000
  51.5369415 183.3939056  20.8478050  51.7686119 181.9927673  19.7954407
  51.3644180 181.4404449  21.6751957  51.0484047 181.8951721  22.9683514
  51.2317581 182.9449158  23.1438751  50.5264664 181.0062256  23.9254951
  50.3846359 181.3760986  24.9302216  50.1681023 179.6424561  23.5258293
  49.6022949 178.7739563  24.3821163  49.4688454 179.2099762  25.2269135
  50.5389442 179.2298431  22.2339478  50.2487717 178.2738495  21.8237419
  51.1103821 180.1045227  21.2764683  51.3116798 179.7562561  20.2741737
  54.2460175 183.3449097  19.7764645  54.2559471 182.8599548  18.6447887
  54.7549858 184.5182190  20.0154018  54.8829231 184.8098602  20.9738770
  55.4870872 185.2412720  19.0117226  54.8542442 185.3543091  18.1314716
  55.8097076 186.6127472  19.6694889  54.8618736 187.1231995  19.8402233
  56.3136063 186.5099640  20.6305428  56.7086563 187.3432159  18.6853542
  56.5229721 187.2258148  17.4348507  57.6873322 187.9902954  19.1749496
  56.7304344 184.5061493  18.5100880  57.6374397 184.2080994  19.2886200
  56.7048836 184.1648712  17.1911526  55.9211807 184.3439941  16.5797424
  57.8557549 183.5693817  16.5411854  58.0047798 182.5714874  16.9536152
  57.6861610 183.4329681  15.0274467  57.6667137 184.3878326  14.5021448
  58.4490128 182.7698822  14.6194172  56.7807274 182.8402100  14.8973188
  59.2189445 184.2741852  16.7592087  60.1713142 183.5378571  16.9788170
  59.3922195 185.6037598  16.6475010  58.5420570 186.1451111  16.5821629
  60.6118813 186.3038940  16.8229733  61.4433403 185.9113464  16.2375889
  60.3641434 187.7383728  16.4027920  59.4196396 188.1064148  16.8034763
  61.1362305 188.4093475  16.7793255  60.2315559 187.9688568  14.9054937
  59.3377762 187.3776855  14.7060785  60.1674538 189.0412750  14.7213345
  61.3846054 187.4349060  14.0611877  62.5131683 187.0662994  14.5081940
  61.0605659 187.1577148  12.8595104  60.9781532 186.2311859  18.2926426
  62.1474190 185.8887024  18.6302338  60.1112976 186.4843750  19.3181515
  59.1733208 186.7430725  19.0472946  60.4547195 186.2429810  20.7869892
  61.3197975 186.8714142  20.9986668  59.2733383 186.5136566  21.7012386
  58.4195213 185.9064484  21.4005814  59.5658607 186.1814423  23.1944294
  60.5312767 186.5994720  23.4795837  58.7077370 186.3410187  23.8473148
  59.6026764 185.0938110  23.2562733  58.8822937 187.8893433  21.6258240
  58.7591629 188.0164032  20.6822701  60.9523315 184.7873993  21.0299854
  61.9998894 184.5675201  21.5618076  60.2121277 183.8237762  20.4630184
  59.3753738 184.1026306  19.9708920  60.5232735 182.3664093  20.5608158
  60.5567245 182.1605682  21.6306801  59.3584671 181.5221100  19.9936409
  59.1187477 181.9573822  19.0235043  59.8045502 180.5280609  20.0249138
  58.0750084 181.5479126  20.8762417  57.6941910 182.5097961  21.2195587
  56.9089241 180.8834839  20.1663437  57.2125206 179.8686676  19.9092751
  56.0316315 180.8713684  20.8131142  56.6797829 181.2651520  19.1713943
  58.3093643 180.7365112  22.1380501  59.1646805 181.0767670  22.7218018
  57.4749794 180.7733002  22.8384399  58.4299660 179.6740265  21.9266472
  61.9053040 182.0423431  19.8966351  62.6021309 181.1329193  20.3924046
  62.2085876 182.7877960  18.8092270  61.5697823 183.4266510  18.3576794
  63.5667496 182.7305450  18.2664833  63.7462769 181.6562042  18.2258415
  63.7915154 183.4381409  16.9238300  63.4124374 184.4562836  17.0121136
  64.8710098 183.5199280  16.7969189  63.1317940 182.6476898  15.7839184
  63.4749222 181.6134186  15.7586679  62.0544319 182.6335297  15.9488029
  63.3630981 183.3389740  14.1202097  65.0429916 182.7500000  13.9485025
  65.3761444 182.0306702  14.6966085  65.1066818 182.3720551  12.9281082
  65.7716675 183.5552216  14.0419960  64.6000977 183.2088776  19.2391071
  65.5221176 182.4619598  19.5541840  64.4325714 184.4477081  19.7605686
  63.6385269 185.0282745  19.5313492  65.4315872 184.9999390  20.6763115
  66.3908539 185.0344238  20.1598759  65.1153336 186.4440765  20.9979076
  64.6018829 186.8986359  20.1506462  64.4339600 186.3446045  21.8428555
  66.3018646 187.3641205  21.4995079  65.8987732 188.1708832  22.1116772
  66.9395828 186.7584229  22.1433640  67.2906799 187.8231049  20.3717690
  67.1623001 187.3829651  19.2247925  68.2010040 188.6067963  20.6981163
  65.6766891 184.2053528  21.9430294  66.8498535 184.1006012  22.3830128
  64.6551743 183.6092682  22.5769882  63.7819099 183.7121124  22.0800648
  64.7921295 182.7279053  23.7329445  65.2164459 183.1737061  24.6325626
  63.3711815 182.2895813  24.1899853  62.7213364 182.0120850  23.3600483
  63.4320908 181.4890442  24.9272308  62.6734505 183.5009766  24.9019299
  63.2058754 183.9572906  25.7364349  62.5445213 184.3195343  24.1937923
  61.3573685 183.0200958  25.3784180  60.7518539 183.8748932  25.6796913
  60.7866516 182.6186066  24.5410404  61.4959869 182.0374603  26.5212975
  62.3634224 182.0626831  27.0380363  60.5220070 181.4280243  27.1300983
  59.3195610 181.3728638  26.6945076  59.1079636 181.7723083  25.7913055
  58.6741028 180.7955475  27.2143154  60.7224731 180.7066956  28.1915073
  61.6736755 180.6502075  28.5263577  59.9675179 180.6506805  28.8600960
  65.6853027 181.5195160  23.3550644  66.6093063 181.1927948  24.0847511
  65.4892349 180.8513336  22.2000370  64.5863419 180.8860779  21.7487202
  66.3836441 179.7722473  21.7195187  66.5669174 179.1175842  22.5715370
  65.6606140 178.9962463  20.5377331  65.2929688 179.7334290  19.8239422
  66.6114807 177.9751282  19.9171047  66.7980118 177.1736145  20.6318569
  66.2692184 177.4996033  18.9979553  67.5817719 178.4315796  19.7214317
  64.4370422 178.0667725  20.8929787  63.5771141 178.7048950  21.0965366
  64.2172623 177.4720764  20.0063400  64.7038803 177.4735260  21.7675858
  67.7567444 180.3629913  21.4353962  68.6790237 179.7162781  21.9039440
  67.8991928 181.5179291  20.7080498  67.0527802 181.9284363  20.3403950
  69.2260208 182.1566620  20.3538284  69.8227158 181.5377808  19.6837196
  69.0777435 183.5497589  19.7205830  68.1970062 184.1175385  20.0206146
  69.9882202 184.1093140  19.9351311  69.0166092 183.4577332  18.1976185
  69.9095078 182.9388428  17.8489475  68.0574341 183.0593109  17.8669510
  69.0479584 184.8804932  17.6397877  68.0692596 185.3292694  17.8096504
  69.8673172 185.4947968  18.0131340  69.0752640 184.8260956  16.0960045
  69.9108582 184.1843262  15.8167143  68.1434708 184.4174652  15.7050304
  69.2700806 186.2021332  15.4729452  70.2121048 186.5257568  15.6401529
  69.1948166 186.1999664  14.4657536  68.7333679 186.9511871  15.8864050
  70.0770264 182.3112640  21.6412125  71.2282715 181.9240112  21.7212257
  69.4752426 182.9089355  22.7004700  68.5650024 183.2978363  22.4996643
  70.1795731 183.1454010  23.9939556  71.0763092 183.7051392  23.7281151
  69.2369995 184.0394287  24.8498421  68.8861465 184.8096466  24.1629829
  68.3694077 183.4429626  25.1319942  69.9538498 184.5787506  26.0493107
  70.3752365 183.7339478  26.5941505  70.7923431 185.1983337  25.7312756
  69.0895538 185.4295197  26.9177055  69.6707077 185.7290802  27.7898445
  68.8692627 186.4108887  26.4975967  67.8255920 184.7717285  27.3643894
  67.8176575 183.7620544  27.3402786  66.8034363 185.3038330  27.9344139
  66.7150879 186.6365204  28.1839542  67.5649872 187.1487732  27.9958801
  65.8126907 187.0512390  28.3677750  65.8143539 184.5207520  28.3007336
  65.9999084 183.5281525  28.3209438  64.9431076 184.9201965  28.6192818
  70.5997543 181.9142761  24.6990204  71.6259232 181.9289551  25.3155212
  69.8781586 180.7504272  24.5558701  69.0262299 180.7160187  24.0144558
  70.4526672 179.4230957  24.8730621  70.8581696 179.4449768  25.8845921
  69.2881775 178.3630829  24.8982582  68.5058746 178.4984894  25.6451035
  68.8727341 178.4246063  23.8924122  69.8052750 176.9181519  25.1064396
  69.0161591 176.1763763  24.9833279  70.5032730 176.6689301  24.3072033
  70.3116913 176.8075256  26.5164356  69.4992981 176.5911865  27.4429531
  71.6315918 176.8491974  26.6227264  72.1089630 176.8286591  27.5125542
  72.2137451 176.8290100  25.7976303  71.6436691 179.0537109  23.9269543
  72.7449417 178.8091278  24.4350471  71.5856323 179.0416412  22.5446453
  70.6880264 179.2789764  22.1470413  72.7143631 178.7035980  21.5996323
  72.9804001 177.6627808  21.7840786  72.3942108 178.9541168  20.0943260
  72.0946121 179.9973450  19.9942722  73.2456512 178.7325745  19.4508400
  71.1990585 178.1206055  19.6109886  70.3574753 178.0814056  20.3025837
  70.7299576 178.6968384  18.2065182  71.5790787 178.7852478  17.5288219
  69.9244080 178.1020660  17.7758942  70.3457260 179.7122498  18.3035049
  71.5410385 176.6839752  19.3523273  71.7907867 176.1012878  20.2390137
  70.6811295 176.1796417  18.9115162  72.2848053 176.5373688  18.5691147
  73.9758072 179.5092010  21.9098091  75.0189438 178.9072876  21.7696934
  73.8639297 180.8272247  22.3047924  72.9312592 181.2144775  22.3207893
  75.0713882 181.6582184  22.5356541  75.6858902 181.4700623  21.6552620
  74.7246475 183.1231079  22.6721230  73.7463455 183.3183899  23.1113377
  75.3952026 183.5769653  23.4018230  74.7179794 183.8720551  21.3832436
  75.8802567 184.4639435  20.8475323  75.5375977 184.9404144  19.6141548
  76.1029739 185.7233734  19.1307030  74.2104187 184.7778778  19.4604397
  73.6780853 185.0398560  18.6430740  73.6971359 184.0822906  20.5604820
  72.6521606 183.8627319  20.7224216  76.0126114 181.1815033  23.7392883
  77.1936798 181.6242371  23.8254681  75.4565430 180.3041229  24.5842648
  74.5087585 179.9587860  24.5338192  76.2799301 179.6541138  25.6036816
  77.1137390 180.3438416  25.7346172  75.5824203 179.3977814  26.9370174
  74.6641617 178.8557281  26.7110043  76.2390137 178.8270264  27.5937138
  75.2205811 180.7349854  27.6472206  76.1236191 181.3346100  27.5329418
  74.4669037 181.1584473  26.9833260  74.8617325 180.6042938  29.1334171
  74.7217636 181.6809692  29.7725639  74.6870575 179.4847565  29.7080746
  76.8352661 178.3573303  25.0625744  77.9168091 177.9823303  25.4837933
  76.1111603 177.6030731  24.2652550  75.1465912 177.7528381  24.0058460
  76.6399689 176.4003143  23.6031475  77.1888733 175.8275452  24.3506374
  75.5211563 175.4539490  23.0335693  74.8790436 175.9695435  22.3194580
  76.0750580 174.6788177  22.5039845  74.4858780 174.8528900  23.9916496
  74.6786652 174.7907104  25.3087635  75.5142822 175.1455231  25.8937817
  73.5583038 174.1562042  25.8640385  73.4533615 174.0468903  26.8626060
  72.5791321 173.7870026  24.9373932  71.3198090 173.1508484  24.9677315
  70.9256668 172.7379456  25.8845558  70.6503143 172.9185944  23.7421284
  69.7151566 172.3789825  23.7687225  71.2085953 173.3280487  22.5136852
  70.7085114 173.1733551  21.5690231  72.4538879 173.9616852  22.5412235
  72.8260956 174.2399445  21.5663261  73.1589966 174.2775116  23.7625427
  77.7420349 176.7667084  22.5576267  78.5817795 175.8981628  22.2462559
  77.7304611 177.9844360  21.9624786  76.9454346 178.5363617  22.2774429
  78.6798630 178.4833527  20.9806461  79.5826340 177.8856354  21.1065083
  78.1516876 178.2407837  19.5227890  77.6305237 177.2836304  19.5412006
  77.4379578 179.0320435  19.2934361  79.2348480 178.1995239  18.5145912
  80.3803787 178.3378906  18.9562321  78.9272842 177.9968872  17.3085403
  79.0451813 179.9703369  21.2829876  78.4486084 180.8802032  20.7222328
  80.0462570 180.1623993  22.1418934  80.3209000 179.2949677  22.5803223
  80.4945602 181.4532928  22.6415768  79.5595169 181.9689789  22.8603783
  81.3794022 181.3296967  23.9252014  82.3052902 180.8674011  23.5829792
  81.5283966 182.3455505  24.2911816  80.7586594 180.5002899  25.0414181
  80.9574203 180.8629608  26.0499096  79.6715698 180.4448090  25.0984135
  81.2631149 179.0612488  25.0182476  81.0208054 178.2879181  24.1149731
  82.0995712 178.7824249  25.9031086  81.2174759 182.3372803  21.6327019
  81.6383972 183.4386444  21.9510193  81.4885788 181.8503723  20.4155998
  81.1097488 180.9351959  20.2180119  82.1276932 182.5164337  19.2265911
  82.3373489 183.5437317  19.5245781  83.4828110 181.8546143  18.9711533
  83.2710648 180.8043213  18.7707996  83.9147720 182.2959442  18.0729656
  84.4144211 181.9611206  20.2195549  84.6937485 180.9867554  20.9338779
  84.8588181 183.1867218  20.5375843  85.4769135 183.4005585  21.3072147
  84.4091797 183.9794769  20.1023178  81.2489166 182.6610413  17.9815311
  81.7347488 182.8433990  16.8575840  79.9571457 182.5208740  18.2189198
  79.7814026 182.3634338  19.2009716  78.9249649 182.5316010  17.1889839
  79.3162842 182.0843201  16.2752514  77.7096786 181.7327423  17.7298965
  78.0777512 180.7383881  17.9826374  77.2990952 182.0607910  18.6848354
  76.6387100 181.4506531  16.6535282  77.0847092 181.5609741  15.6650887
  75.9072037 180.1768036  16.8228493  75.4895554 180.0859528  17.8255501
  75.0714645 180.2096252  16.1238766  76.6138458 179.3765564  16.6030045
  75.5981140 182.5055084  16.9284782  75.9543152 183.5312347  17.0239162
  74.9599609 182.4640961  16.0457840  75.0029678 182.2114716  17.7930279
  78.6278381 184.0179291  16.8013840  78.1915359 184.7700806  17.6237583
  78.7279663 184.3326874  15.5063276  79.0688019 183.6150055  14.8827276
  78.0400620 185.5260620  14.8553219  77.6820679 186.2048340  15.6293983
  79.0530014 186.1983337  13.8642521  79.4027481 185.4822235  13.1206388
  78.4519653 186.9425201  13.3417034  80.2639847 186.8899078  14.4117517
  79.9900513 187.6713257  15.1205978  80.8701553 186.1784363  14.9725122
  81.1137390 187.4611969  13.3326406  82.0177460 187.9157104  13.7379665
  81.3276062 186.6096191  12.6867371  80.5007782 188.5377197  12.4336948
  80.9336090 188.5961151  11.4350204  79.4618759 188.3557434  12.1586256
  80.6904373 189.8576660  13.0331287  81.6714554 190.0845032  13.1122637
  80.2555389 190.5769196  12.4731083  80.3312073 189.8474884  13.9770308
  76.7934494 185.0777435  14.1741962  76.8414078 184.0196533  13.6324577
  75.7265167 185.8789215  14.2248421  75.6668625 186.6272430  14.9005451
  74.3910828 185.3279419  13.8742304  74.2353592 184.3899384  14.4071560
  73.2191238 186.0944977  14.3563910  73.2498550 187.0729065  13.8769207
  72.3009720 185.6154175  14.0164356  73.0051041 186.3704529  15.8580856
  73.8357086 185.9108276  16.7025471  72.0198517 187.0641327  16.2570724
  74.3092728 185.0854797  12.3432016  73.2035599 184.5666046  11.9790478
  75.3197708 185.4275970  11.5420876  76.0410385 185.9610443  12.0060835
  75.3767319 185.3331604  10.1258163  74.5651550 185.8733826   9.6383686
  76.7163544 185.8824310   9.6448679  77.4821243 185.2785645  10.1317244
  76.7779312 185.8674469   8.5567074  77.0526199 187.2734833  10.1089907
  77.3383636 187.3896637  11.1544333  77.9103546 187.5630341   9.5019083
  75.9506683 188.3363495   9.8333273  75.1529846 188.1309967   8.8516846
  75.8301010 189.3344421  10.5617094  75.2194138 183.8438416   9.6088657
  74.8836365 183.6452484   8.4523296  75.5706711 182.8245087  10.4615974
  75.9717789 183.0079041  11.3702097  75.3865967 181.3487854  10.1306620
  75.6057816 181.1779022   9.0766869  76.3332291 180.6005249  11.0600824
  76.4326019 179.5405884  10.8260317  77.3333130 181.0180817  10.9435472
  75.9986115 180.8605347  12.3538265  76.5146790 180.3134308  12.9504356
  73.9139481 180.8494568  10.3493776  73.5478897 179.7469025   9.9190540
  73.1124344 181.6683960  11.0103464  73.4336090 182.5972443  11.2430916
  71.7224884 181.3111420  11.3245850  71.5480499 180.2360992  11.3685474
  71.4340897 181.7567444  12.7890825  71.8440399 182.7639313  12.8640785
  70.3701172 181.6201324  12.9824839  72.2689590 180.9119110  13.7771111
  73.3163376 181.1325684  13.5711813  71.9585266 181.3480988  15.2275190
  70.9253769 181.1051331  15.4758587  72.6190872 180.7686005  15.8724546
  72.1370926 182.4231873  15.2478828  72.0163345 179.3866425  13.7878189
  72.3677444 178.9416962  12.8568830  72.5449677 178.8740692  14.5915155
  70.9576874 179.1436615  13.8791885  70.6898727 181.8383026  10.3282757
  70.8495789 182.9811096   9.8625669  69.5728683 181.0488434  10.0535650
  69.4240341 179.6355438  10.2127533  68.9633713 179.4697266  11.1866112
  70.3984528 179.1509857  10.1509047  68.5583725 179.1584320   9.0954075
  67.9874802 178.2746277   9.3801336  69.1871033 179.0401917   8.2129002
  67.6166611 180.3800659   8.9336195  66.8545532 180.2839355   9.7069530
  67.2042007 180.4022064   7.9249134  68.5220261 181.5699158   9.2329445
  68.9585114 182.0203857   8.3415079  67.6803665 182.6390991   9.9874506
  67.4631729 182.5566864  11.2215080  67.1562576 183.6338043   9.2283020
  67.3421860 183.6561737   8.2358160  66.2411575 184.6548615   9.7801027
  66.5047607 184.7777405  10.8305855  66.2641144 186.0119019   9.0782909
  65.5928192 186.7351837   9.5412483  67.5942230 186.6981354   9.1932096
  68.4004898 186.0927582   8.7790556  67.5894623 187.7061615   8.7785168
  67.7927094 186.8984528  10.2461004  65.8848495 185.9073792   7.7102532
  65.2780838 186.6345367   7.5531821  64.7667084 184.1277924   9.8633718
  63.9754715 184.5016632  10.7488937  64.4135132 183.0640869   9.0994406
  65.0469131 182.7938385   8.3606071  63.0478706 182.5501709   8.9844246
  62.3880386 183.4173584   9.0110941  62.9843674 181.8029480   7.6220841
  63.5597839 182.3441620   6.8710275  63.5671577 180.8837433   7.6814728
  61.5983696 181.7044830   7.0892172  60.8064232 182.6422119   7.0522985
  61.3144646 180.5189972   6.6444116  60.4605789 180.4114838   6.1158085
  62.0105476 179.8032532   6.4918327  62.7963066 181.5665588  10.1726236
  63.6207008 180.6773071  10.3655071  61.6380196 181.6651917  10.9363813
  60.6343040 182.7448578  10.9890671  60.2491837 183.0692291  10.0223370
  61.0617638 183.6027527  11.5080938  59.5811310 182.1013489  11.8595667
  58.8650665 181.4705048  11.3328753  59.0284119 182.8751678  12.3922892
  60.3283234 181.2734375  12.9009781  59.6881638 180.5503540  13.4063959
  60.7524147 181.8498840  13.7231398  61.4531212 180.7085114  12.0326633
  62.3426819 180.7373047  12.6619110  61.0842972 179.2687073  11.6682377
  61.4003716 178.3784027  12.4472427  60.6651955 178.9315948  10.4242077
  60.4751663 179.7209930   9.8235111  60.4907455 177.5695343   9.9468908
  59.8573151 177.0523682  10.6675949  59.7167778 177.5208740   8.5432444
  60.3138580 178.2261505   7.9651699  59.7750816 176.1838531   7.7698827
  59.5109177 175.2810516   8.3205805  59.0697861 176.1607666   6.9391460
  60.7892418 176.0414734   7.3966417  58.2807388 178.0433197   8.6862373
  57.5563965 177.2781525   8.4070396  58.1266289 178.1939392   9.7547274
  58.1163177 179.4861908   8.0344858  58.1237144 179.4064331   6.9474330
  57.1638870 179.8081665   8.4555674  58.9009132 180.1629333   8.3728819
  61.8921585 176.9242859   9.9263334  62.1347084 175.9336243  10.5740376
  62.8121529 177.4618073   9.0916929  62.4198799 178.1122894   8.4260254
  64.1814880 176.9657135   8.9333181  64.1700134 175.9308319   8.5912981
  64.9067383 177.7479706   7.8044510  65.1224060 178.6902161   8.3081865
  65.8331223 177.1915588   7.6618900  64.1336594 178.0786743   6.4644656
  62.8938866 178.2818298   6.5173826  64.8266525 178.2193298   5.4500031
  65.1134567 176.9279175  10.0998735  65.8075790 175.9052124  10.3400040
  65.0151062 177.9249268  10.9671125  64.3752289 178.6804199  10.7673864
  65.6793594 177.9275055  12.2259388  66.7493668 177.7635193  12.0982952
  65.5490799 179.2599487  12.8954029  65.8585281 180.0933685  12.2647324
  64.4845963 179.4923859  12.9262352  66.0951462 179.5295258  14.2751455
  65.2054138 179.2384186  15.3156404  64.2545929 178.7899933  15.0681267
  65.5785522 179.6385193  16.6223488  64.9802399 179.3694763  17.4802723
  66.8447571 180.1788940  16.8378906  67.1465759 180.3918152  17.8527641
  67.7998199 180.3590088  15.8523340  68.8144073 180.6247711  16.1099968
  67.3749847 179.9399719  14.5674706  68.1003265 179.9576874  13.7674913
  65.1800385 176.8284302  13.1947975  65.9507370 176.0402679  13.8263121
  63.8544579 176.7230072  13.2651777  63.3110771 177.3879700  12.7335234
  63.3150101 175.6963501  14.1557531  63.8334808 175.7064514  15.1144962
  61.8478851 175.9558258  14.4680119  61.5368767 175.2256470  15.2151470
  61.7007675 177.0042267  14.7274523  61.0404778 175.8075104  13.3489857
  61.1402740 176.6057281  12.8250580  63.5701408 174.2642212  13.6492090
  64.0203629 173.4392395  14.4309654  63.5276070 173.9910431  12.3189030
  63.0253563 174.6219482  11.7107954  63.9291916 172.6729126  11.8151178
  63.2994766 171.9262238  12.2988644  63.6454010 172.6979828  10.3503180
  64.0188675 173.6101227   9.8848991  64.2134094 171.8549347   9.9569426
  62.2454758 172.3524780   9.9214830  61.6694489 171.2001953  10.3977375
  62.1918831 170.6666718  11.1780043  60.5246201 170.6164093   9.8032532
  60.0100021 169.7279053  10.1380939  59.9541359 171.3216705   8.7213182
  58.7363548 170.9167023   8.2429714  58.3729630 171.5267639   7.5969386
  60.4661217 172.5370026   8.2364426  59.9948997 172.9416351   7.3529110
  61.5950623 173.0593262   8.8355761  62.0004234 173.9834595   8.4507914
  65.4545746 172.3755798  12.0963068  65.7612152 171.2811737  12.6145639
  66.3835907 173.3703766  11.8845797  65.9887390 174.2125397  11.4909391
  67.8424377 173.3657227  12.2894878  68.3601913 172.6210938  11.6848793
  68.4138947 174.8173676  11.9551001  68.2984772 175.1256104  10.9159813
  67.9090729 175.5255585  12.6121616  69.8801498 174.9311981  12.3721991
  70.2357941 175.9468384  12.1987476  69.8674088 174.8345337  13.4578295
  70.8545990 174.0263977  11.7274723  71.8162689 174.2048035  12.2085743
  70.5076828 173.0077667  11.9010677  70.9615936 174.3348389  10.2696085
  70.2477188 173.9894562   9.6441555  71.9249649 175.0447998   9.6966076
  72.7217255 175.8432465  10.3366566  72.5051498 175.9156952  11.3205004
  73.5157166 176.2802887   9.8909378  72.0345764 174.9933929   8.3997211
  71.4226074 174.4829407   7.7792034  72.7812500 175.5518494   8.0115242
  68.0088348 172.9077759  13.8048849  68.7565155 172.0299377  14.2039652
  67.1292801 173.4062805  14.6834755  66.4592209 174.0419006  14.2746944
  67.1995239 173.2133331  16.2097740  68.2461548 173.1960297  16.5136871
  66.4642563 174.3424225  16.8375416  65.5914917 174.5767975  16.2280693
  65.9485016 174.0596466  18.2212887  66.7862473 174.0242310  18.9177208
  65.4365082 174.9540710  18.5762482  65.4225235 173.1349640  18.4587841
  67.2415314 175.6708069  16.8709412  67.6928482 175.8572083  15.8964319
  66.6004333 176.4849091  17.2090664  68.1001740 175.5830841  17.5366287
  66.5315247 171.8970795  16.5204735  67.0989304 171.1362000  17.3146591
  65.3982773 171.5225525  15.8643398  64.9662704 172.2273254  15.2840166
  64.7808914 170.1965485  15.9228363  64.5923004 169.9075623  16.9567699
  63.4148598 170.1909790  15.2525644  63.5120010 170.5775604  14.2380581
  62.9553108 169.2032928  15.2152224  62.7483063 170.8227539  15.8396578
  65.7384491 169.0424042  15.4574881  65.7194061 167.9588318  16.0907612
  66.5788422 169.3166504  14.4557381  66.4094009 170.1753235  13.9516706
  67.6769333 168.4254150  14.0318499  67.2388306 167.4887390  13.6871738
  68.3194809 169.0681000  12.7646980  68.9349060 169.9309998  13.0192060
  69.1189194 168.4062500  12.4316235  67.6104965 169.2339935  11.9535761
  68.5563354 168.2692871  15.2477217  68.8606033 167.1431274  15.6520519
  69.0827408 169.3935394  15.7452421  68.7968903 170.2819519  15.3590879
  70.3039780 169.3481293  16.5817719  70.9869690 168.5842590  16.2100983
  71.1540985 170.6210480  16.2824936  72.1439667 170.4649353  16.7113304
  71.2075729 170.7411804  15.2004547  70.3898239 172.0135956  17.1246376
  69.3985443 172.1302795  16.2365856  70.1467438 169.1457214  18.1274853
  71.1271286 169.1007690  18.8020535  68.9168930 169.0435791  18.7264881
  68.1176987 169.1685486  18.1216965  68.6650162 168.6826630  20.1385326
  69.3229294 169.3050385  20.7450657  67.1936188 169.0316772  20.5233746
  66.5355148 168.8640442  19.6707916  66.9531631 168.3644714  21.3510971
  67.1014099 170.5568848  20.8036728  67.8513031 171.1018677  20.2303009
  65.6875839 171.1205750  20.5689926  64.9678650 170.5138397  21.1185226
  65.6615143 172.1472473  20.9341736  65.5605621 171.0423431  19.4892483
  67.4356079 170.8309021  22.2688770  68.4595413 170.6142731  22.5733910
  67.1667252 171.8655243  22.4818192  66.7747574 170.1980133  22.8611927
  68.9051590 167.1626282  20.4903393  68.3678665 166.2719727  19.8746529
  69.5509949 166.8996277  21.6207829  70.3087158 167.8803101  22.4062996
  69.6532745 168.5844727  22.9187927  70.8751907 168.4727020  21.6877842
  71.2077408 167.0472412  23.3342724  70.6991882 166.9741364  24.2955933
  72.0684204 167.6848907  23.5360794  71.3603592 165.7615967  22.6432819
  71.6795959 164.9596710  23.3089428  72.1185532 165.8910980  21.8709660
  70.0255280 165.5316162  21.9615116  70.2125320 165.0081329  21.0239124
  69.0409851 164.7792664  22.8498974  69.3475342 164.5854492  24.0350952
  67.8339767 164.4521332  22.3267975  67.6707001 164.8636932  21.4190235
  66.7469406 163.6831360  22.9922752  67.1381760 163.4212952  23.9753666
  65.4465942 164.4936371  23.0590286  64.5608978 163.8694763  22.9404583
  65.3743668 165.1494904  24.4552174  66.2930069 165.6721649  24.7217236
  64.5036316 165.8010254  24.3816624  65.1982269 164.3783569  25.2051792
  65.3539429 165.6238861  21.9688053  65.9114685 166.5049286  22.2866192
  65.6503143 165.1770020  21.0198231  63.8946075 166.0614929  21.7491550
  63.4380417 166.4161224  22.6732235  63.7678871 166.8509674  21.0083561
  63.3325958 165.2016907  21.3844852  66.4590759 162.3888550  22.3261662
  66.9015121 162.1791687  21.2023563  65.8323364 161.4644623  23.0880451
  65.5486221 161.7159424  24.0241890  65.3220749 160.1069183  22.5569878
  66.1216812 159.5331879  22.0884075  64.8931046 159.3342743  23.8343430
  64.8224716 158.2799988  23.5667095  65.7394714 159.3348694  24.5211964
  63.6883698 159.9441681  24.4482956  63.8786087 160.7782440  25.3246231
  62.5625801 159.5408173  24.1724834  64.2439499 160.2114563  21.5376110
  63.5155296 161.1910858  21.3760414  64.1678085 159.1148224  20.7955322
  64.6845856 158.2963867  21.0839939  63.3993568 159.0610199  19.5396576
  63.7310028 159.8780212  18.8988667  63.4452362 157.7352295  18.7746964
  63.3833923 156.9103699  19.4845428  62.5770226 157.7159882  18.1159554
  64.7329636 157.4750671  17.9805927  65.7194824 158.2740479  18.1092796
  64.8454590 156.4916840  17.2445526  61.8914337 159.2624817  19.7634430
  61.2680321 159.9224091  18.9600391  61.3233757 158.6673126  20.7912998
  61.8215027 158.0477905  21.4143238  59.8360672 158.6245880  20.8965816
  59.4937210 158.1900330  19.9574051  59.5328293 157.6582489  22.0579491
  60.0265999 157.9957123  22.9692173  58.4509392 157.6533966  22.1905594
  59.8921890 156.6653748  21.7875023  59.2987366 160.1008301  21.1076412
  58.2356186 160.4758911  20.6404476  60.1501884 160.9827271  21.7270489
  60.9790878 160.6289978  22.1830177  60.0300941 162.4265747  21.7957916
  58.9727745 162.5320740  22.0388012  60.7052231 162.9366150  23.0285130
  60.3488083 162.4072113  23.9121418  61.7615128 162.6676331  23.0286121
  60.4842873 164.4436493  23.2598476  60.7948761 165.0110626  22.3825359
  59.0145798 164.7958527  23.4950504  58.6735916 164.3053131  24.4067535
  58.9085350 165.8795319  23.5452156  58.4169083 164.4852142  22.6380787
  61.4079742 164.8743591  24.3495216  62.4468651 164.7270660  24.0543690
  61.2775650 165.9525299  24.4424706  61.0611839 164.3320465  25.2291393
  60.3651772 163.1577759  20.5056190  59.6521759 164.1374207  20.2327042
  61.3053131 162.7293396  19.6889687  61.8922539 161.9679565  19.9986401
  61.6891403 163.4143066  18.4189606  61.6899643 164.4986420  18.5299416
  63.1154442 163.0075073  17.9631939  63.0890503 161.9364166  17.7627468
  63.1421013 163.5398407  17.0123978  64.3053207 163.5061340  18.8463631
  64.2397995 164.5849457  18.9877167  64.2222519 163.1267853  19.8648338
  65.6511078 163.0818787  18.2996674  66.3884811 163.4799347  18.9967613
  65.7402267 161.9960785  18.2650871  65.9631424 163.4993591  16.9153442
  65.6442184 162.9330139  16.1422710  66.8778687 164.4248199  16.5172749
  67.3061600 165.2802124  17.3813076  67.1175079 165.1211700  18.3607025
  67.8579788 166.0688782  17.0753269  67.4601059 164.4110718  15.3729067
  67.2587433 163.8155212  14.5824175  68.1419983 165.1452789  15.2460985
  60.6597404 163.0805359  17.2860756  60.6088791 163.8566437  16.3228397
  59.7982903 162.0792542  17.3956432  59.8976517 161.4165192  18.1513042
  58.6330566 161.7284851  16.5748062  58.9593239 161.8052521  15.5376186
  58.1220703 160.2549286  16.8239021  57.9580078 160.1379242  17.8951149
  56.8334274 159.8683472  16.0791950  57.0599518 159.7660828  15.0179090
  56.3378029 158.9502869  16.3948612  56.1704407 160.7176056  16.2443810
  59.1256256 159.2460785  16.2074623  59.1316681 159.4142151  15.1305246
  60.1336899 159.4071655  16.5895023  58.8181725 157.8018494  16.6506977
  57.9680061 157.3344421  16.1538506  59.6969070 157.1920013  16.4408875
  58.5941277 157.7976837  17.7174168  57.5771980 162.7907562  16.8307915
  56.9023895 163.2676392  15.8874092  57.3671074 163.1248169  18.1298962
  57.9925613 162.7154236  18.8090916  56.3149834 164.0875549  18.5574169
  55.3784752 163.7780304  18.0934620  56.1613884 164.1944580  20.1173248
  57.0068893 164.6638794  20.6201935  55.2938194 164.8144379  20.3432674
  56.0509224 162.8692322  20.8723907  57.0643196 162.4697418  20.8332005
  55.8401184 163.0577698  21.9250660  55.0495148 161.8431854  20.3326492
  54.0328293 162.2398376  19.7344456  55.1848488 160.5359039  20.6467361
  54.5049171 159.8448639  20.3634529  56.0376472 160.2235107  21.0886021
  56.6785278 165.4228973  18.0444736  55.9030113 166.1553192  17.4775562
  57.9778976 165.7561035  18.1493587  58.5735474 165.2894592  18.8183479
  58.5001984 166.9147949  17.5202579  58.0009766 167.7714844  17.9729786
  59.9737244 167.0269012  17.8974838  60.1214142 166.6971283  18.9258480
  60.5327492 166.3398590  17.2622185  60.6333771 168.4687347  17.7497482
  60.3917236 168.8332214  16.7513237  60.0010185 169.4271393  18.6976337
  60.1754417 169.1203613  19.7289200  60.3372040 170.4594574  18.6006069
  58.9281654 169.5344238  18.5376911  62.1130829 168.3799744  17.9450626
  62.6465797 167.9384308  17.1033230  62.4542351 169.3725281  18.2392349
  62.4413223 167.8477325  18.8378563  58.4636040 166.9293976  16.0013237
  58.2275162 167.9347534  15.4274893  58.6094360 165.7583618  15.3108845
  58.9926682 164.9696960  15.8121195  58.4865532 165.6764374  13.8662271
  59.0731659 166.5018768  13.4629669  59.1159325 164.3566895  13.4415684
  60.1132812 164.2453003  13.8669987  58.5217667 163.5448761  13.8611364
  59.1520958 164.0987091  11.8523216  58.1384163 164.1832123  11.4606352
  60.0863609 165.0225525  11.1221294  61.1261940 164.7448425  11.2945385
  59.9916687 164.9059906  10.0425262  60.0344315 166.0943298  11.3137560
  59.6481400 162.6639404  11.6000538  59.0553970 161.8979034  12.0999908
  59.4177895 162.4499359  10.5563860  60.6915779 162.5420227  11.8906975
  57.0270958 165.9255524  13.4485159  56.6705360 166.4892883  12.4010868
  56.0896301 165.3924103  14.2382746  56.2938614 164.8690186  15.0775881
  54.5931129 165.5676117  14.0519619  54.3109589 165.1667175  13.0784197
  53.8087044 164.7781830  15.0661192  54.2649765 165.0027618  16.0302124
  52.7933083 165.1692200  15.1306419  53.6447258 163.2953644  14.7381191
  52.8943787 163.1486053  13.9612408  54.6060944 162.9113617  14.3969221
  53.0883675 162.5800781  16.0186081  53.9198990 162.6121979  16.7226200
  52.2171860 163.0538025  16.4710693  52.7907295 161.1096191  15.6269846
  52.1001472 161.1198730  14.7837219  53.6746864 160.6522369  15.1825476
  52.3663635 160.3170471  16.7853184  51.5129662 160.7255554  17.1387672
  52.2817192 159.3514709  16.5014305  52.9646225 160.3422699  17.5986767
  54.0588837 166.9734039  14.0205774  53.0648232 167.2479706  13.3406258
  54.5917130 167.8094025  14.8916454  55.4381752 167.5916595  15.3978004
  53.9950371 169.0729523  15.2207041  53.0787277 169.0041962  15.8070030
  55.0517387 169.9140625  16.0456371  56.0701942 169.6965332  15.7238760
  54.8670769 171.4744568  15.9058828  53.8239136 171.7816162  15.9804401
  55.5114288 171.9391632  16.6521816  55.2200394 171.7217255  14.9046984
  55.0539246 169.5751190  17.5347595  55.1892395 168.5036621  17.6823769
  55.9016304 170.0773315  18.0008812  53.8184738 169.9796753  18.3294945
  53.1185379 169.1463776  18.2677994  54.1191940 170.0723724  19.3730831
  53.2639580 170.8512726  17.9817295  53.7082329 169.8825836  13.8971930
  54.5810471 170.0207062  13.0243578  52.5302086 170.5343323  13.8636475
  52.0000076 170.4083252  14.7140064  51.9619141 171.2398376  12.7531624
  51.8177032 170.5773621  11.8996782  50.9482231 171.5238647  13.0357475
  52.7040443 172.4602051  12.3266001  52.9703102 172.6416779  11.1322508
  53.0982590 173.2631683  13.3329458  52.7679939 173.0043030  14.2516479
  53.5718117 174.6259613  13.1222486  53.8364258 174.6949005  12.0671053
  52.4468765 175.6707458  13.3783131  51.5083885 175.3687897  12.9133778
  52.3512459 175.7346191  14.4622307  52.7891922 176.9870911  12.9270287
  52.1247406 177.2226410  12.2753992  54.8811951 174.9361572  13.8599768
  55.1024055 174.5298004  15.0014057  55.6329002 175.8399048  13.2726965
  55.3477173 176.1945953  12.3710499  56.9017372 176.3850555  13.7916574
  57.5737495 175.5326233  13.8909559  57.5647354 177.3483734  12.7678776
  56.7880402 178.0447998  12.4519053  58.3568573 177.9550171  13.2067699
  57.8009529 176.8144684  11.8474216  56.8573532 177.0789490  15.1960869
  57.7089348 176.8252411  16.0509548  55.8961258 177.9514313  15.3513927
  55.1691780 178.0316467  14.6548214  55.5517464 178.4772644  16.6885948
  56.3511162 179.1320496  17.0355320  54.2579308 179.3429260  16.5707684
  53.5195084 178.7448425  16.0368004  53.7511368 179.6327057  18.0290852
  54.5144653 180.1765289  18.5855713  52.8823013 180.2710266  17.8685799
  53.4666481 178.7288971  18.5678806  54.6702423 180.6401367  15.8780327
  55.1220894 181.2711334  16.6434040  55.3558235 180.4404144  15.0545092
  53.4695244 181.2913971  15.2360144  52.8881912 181.7610474  16.0294743
  53.9071465 182.0666351  14.6070709  53.0363464 180.5710907  14.5420265
  55.4333153 177.3611603  17.7796612  55.9541893 177.5182343  18.9034061
  54.8177452 176.2323151  17.3457317  54.4318352 176.2218781  16.4124241
  54.5704346 175.0835114  18.3195095  54.3488274 175.3901825  19.3417339
  53.4430122 174.2290649  17.7216911  53.6054268 174.0979156  16.6518669
  53.4809608 173.2707520  18.2396679  51.9829979 174.6436310  17.7544975
  51.6897926 174.5372314  18.7989159  51.8046875 175.6835480  17.4808846
  51.0916748 173.8006897  16.8077488  51.4771385 173.1518097  15.8303070
  49.7978745 173.8434296  17.1218472  49.0885658 173.5641937  16.4592724
  49.5431137 174.4051514  17.9216366  55.8102722 174.2435913  18.4488869
  56.0589485 173.7197723  19.5284958  56.6720695 174.1432953  17.4427910
  56.4040527 174.6183624  16.5927505  57.8936043 173.3595428  17.4439392
  57.6675301 172.4158936  17.9404392  58.3429489 173.2250061  15.9342957
  57.6085281 172.5922546  15.4359341  58.4113998 174.2184143  15.4909449
  59.6826286 172.5553284  15.6138058  60.4827728 173.2331085  15.9112501
  59.6804352 171.6645813  16.2420368  59.8473167 172.0706329  14.1448517
  60.7642555 171.4852600  14.0765696  59.1150742 171.3009949  13.9007769
  59.9651527 173.1019135  13.1270113  60.7292099 173.7245331  13.3476305
  59.2635422 173.2621002  12.0045090  58.3335228 172.4703827  11.6052866
  58.0218201 171.6688843  12.1349545  57.8364601 172.7493591  10.7714996
  59.5913658 174.1900024  11.1907358  60.4078751 174.7651978  11.3409252
  58.9195595 174.4306488  10.4759865  58.8322334 174.0854645  18.4151859
  59.3032646 173.5295563  19.4036446  59.0338097 175.3706818  18.2013988
  58.5698242 175.8074036  17.4177513  59.7584610 176.3157959  19.1351624
  60.7724571 175.9247437  19.2187862  59.5668373 177.7652893  18.6243992
  58.5216179 177.9490814  18.3757000  59.9172173 178.4287109  19.4151077
  60.4225006 178.0968170  17.3375053  60.4419823 177.2264709  16.6815910
  59.8083420 179.2662354  16.4870052  59.8725357 180.1561279  17.1131706
  60.3495293 179.3682709  15.5463619  58.7312279 179.1420288  16.3752193
  61.8178520 178.6049652  17.7529278  62.4929352 177.7616425  17.8984375
  62.1701126 179.1730957  16.8919792  61.8720932 179.2765198  18.6097698
  59.2676392 176.2364349  20.5906162  60.0709801 176.0822754  21.5427990
  57.9648781 176.2772217  20.9014072  57.3032036 176.3220062  20.1396465
  57.5404205 176.0882874  22.3137169  57.8782158 176.9269714  22.9224720
  56.0410957 176.2596130  22.2403069  55.6070023 175.6514130  21.4467297
  55.6684380 175.7551117  23.1317749  55.5145569 177.6828308  22.1355762
  55.9934196 178.3248596  22.8748875  55.9013062 178.1603088  21.2352772
  53.9342537 177.8093414  22.1045418  53.6712418 178.8600311  21.9821301
  53.6583862 177.2512970  21.2097893  53.3237953 177.1534729  23.2988052
  53.0296974 176.1974335  23.1588326  53.1057587 177.6746521  24.4753056
  53.4870529 178.9207458  24.7901707  53.7537575 179.5540924  24.0500031
  53.1540260 179.3057556  25.6625080  52.6501617 176.9727325  25.4334354
  52.3724556 176.0175476  25.2584686  52.8546867 177.2131500  26.3928432
  57.9407310 174.7225189  22.9117584  58.2781296 174.6845245  24.0843887
  57.8680687 173.6362305  22.1558857  57.5067940 173.7084961  21.2154808
  58.3483658 172.3695831  22.6522923  57.9120369 172.2154999  23.6391983
  57.8678894 171.3258362  21.6073112  56.8138809 171.4311523  21.3502693
  58.4621582 171.5018921  20.7106762  58.2495766 169.6748047  22.2118397
  57.0209923 169.1796112  22.0378761  59.8591194 172.2701569  22.8449459
  60.3746872 171.7148285  23.8603172  60.6108437 172.8469086  21.9075165
  60.2015114 173.1364441  21.0307522  62.0472832 172.9433746  22.0948811
  62.4772911 171.9419250  22.1117630  62.7071762 173.6390533  20.8593903
  62.2292366 174.6109161  20.7362728  63.7748947 173.7778778  21.0291042
  62.4955940 172.8806152  19.5291195  63.2596321 172.1056213  19.5902786
  61.6103020 172.2747650  19.3359890  62.7676506 173.7624512  18.3112831
  62.9676857 175.0076904  18.4395962  62.5409660 173.2657013  17.1685295
  62.4559250 173.7197113  23.3606606  63.3617058 173.2528229  24.0685272
  61.7831993 174.8011322  23.7045097  61.0756798 175.1047516  23.0507984
  62.0424042 175.5878906  24.9118290  63.0896568 175.8898926  24.8993549
  61.3169136 176.9506073  24.7735863  60.3210869 176.7975311  24.3576527
  61.2090912 177.4045563  25.7586784  62.0789642 177.8968048  23.8108387
  62.3555031 177.3970642  22.8824635  61.1498909 179.0356445  23.3674221
  60.7476501 179.5474854  24.2416801  61.7047806 179.6922913  22.6973267
  60.3328590 178.5894470  22.8004475  63.3453178 178.5041351  24.3577766
  64.0658875 177.7275391  24.6142464  63.8936729 179.0533905  23.5924473
  63.1324997 179.1542969  25.2063694  61.6534348 174.8353424  26.2333202
  62.2402534 175.0643311  27.3061142  60.7340431 173.8600464  26.0400677
  60.3543358 173.6586151  25.1260929  60.2739029 172.9860687  27.1159401
  60.0907440 173.6103363  27.9904919  58.9180336 172.4122772  26.7488670
  58.4269218 173.1173706  26.0782356  59.0390091 171.4727783  26.2095909
  57.9001541 172.2708435  27.9037380  57.7341499 173.2444000  28.6781330
  57.3766365 171.1314392  28.0784492  61.2850876 171.8455200  27.4654713
  61.5884933 171.6465759  28.6408310  61.8697433 171.2387238  26.4239006
  61.6146736 171.6852264  25.5546017  63.0897484 170.3537140  26.4582119
  62.7556343 169.5196228  27.0752754  63.4166222 169.8193207  25.0175285
  63.4216156 170.6119843  24.2693596  64.7159271 169.0404205  25.0632286
  64.7994690 168.3282471  25.8841515  64.9828262 168.6422577  24.0842876
  65.5303421 169.7107239  25.3380623  62.4415779 168.6779633  24.6574955
  62.7774734 167.6573029  24.8406010  61.5026131 168.8253021  25.1911049
  62.1190643 168.6827087  23.1636963  62.9704132 168.5457764  22.4969501
  61.4368095 167.8715668  22.9093800  61.6135674 169.6159668  22.9155254
  64.2990799 171.1523743  27.0052109  64.8932953 170.5914001  27.9392776
  64.6993866 172.3457336  26.5001011  64.1378326 172.7513428  25.7650967
  65.8835831 173.0751343  27.0418339  66.6701279 172.3286285  26.9315510
  66.2337418 174.3178101  26.1195526  65.4569168 175.0822601  26.1029873
  67.1048584 174.8873901  26.4433441  66.5647354 174.0176697  24.6664658
  67.4328308 173.3624725  24.5941372  65.7492065 173.4093628  24.2753639
  66.8285980 175.5444031  23.6728573  67.4511490 174.8558807  22.1409855
  66.6929016 174.2880249  21.6018372  67.9086990 175.6567993  21.5602188
  68.2941971 174.2041931  22.3704891  65.7373123 173.4562683  28.5059490
  66.7413406 173.7837830  29.1493225  64.5338440 173.5614929  29.1042137
  63.6700630 173.4636688  28.5899963  64.3889847 173.8789215  30.4942741
  65.1986008 174.5191498  30.8445969  62.9170799 174.4490814  30.7205658
  62.2049217 174.0816956  29.9816742  62.6229973 174.1345215  31.7218971
  62.8559914 175.9763641  30.6203613  63.5827713 176.6963196  29.9749050
  61.8865967 176.5646515  31.3003082  61.8629150 177.5741425  31.2791805
  61.2414665 175.9584351  31.7865334  64.5041504 172.5978546  31.3281345
  65.1928558 172.6295471  32.3417587  63.7162361 171.5418243  30.9149990
  63.0827675 171.7179871  30.1483269  63.5298653 170.3249969  31.7588634
  63.6076965 170.6085052  32.8084679  62.1881714 169.7475739  31.5050678
  62.1886902 169.3780975  30.4796009  62.0409355 168.9012756  32.1760292
  60.9642334 170.6978607  31.7637558  60.9152184 170.7702484  32.8502426
  61.1564484 171.6568298  31.2825871  59.6513214 170.1225739  31.2212849
  59.6710968 170.0179596  30.1364956  59.4510803 169.1958008  31.7589664
  58.6175575 171.2031250  31.6840591  58.5830460 171.2909546  32.7699699
  58.9505196 172.1262817  31.2096958  57.2642097 170.8065948  31.2757626
  57.1052094 169.8653107  31.6056252  56.5881042 171.4626465  31.6398716
  57.2213097 170.9205475  30.2731285  64.6104126 169.2269287  31.4395351
  64.5739441 168.1725464  32.0518913  65.6085281 169.5268097  30.6167583
  65.5820007 170.3520355  30.0350475  66.7841415 168.7269745  30.5046597
  66.6744690 167.7381897  30.9500809  67.1901398 168.6095734  29.0282230
  66.3649216 168.1765137  28.4629173  67.3772354 169.6241760  28.6765079
  68.7056427 167.6266479  28.9084339  68.7622986 167.7462158  27.5790024
  67.9033127 169.4017334  31.4154491  68.0403214 170.6060944  31.5550976
  68.6636887 168.5504303  32.0840149  68.5393219 167.5562592  31.9564915
  69.6721573 168.9036102  33.1141663  69.9840164 169.9073639  32.8254814
  69.0449371 168.9184418  34.5184822  69.8624725 169.0870056  35.2194290
  68.0352554 170.0829163  34.7979202  67.1150284 169.8736877  34.2524757
  67.7796555 170.1449280  35.8557129  68.4266815 171.0716095  34.5584335
  68.4017563 167.6946259  34.8017654  67.8915100 167.8054504  35.6073532
  70.9168396 167.9862671  33.1245384  72.0913162 168.4184723  33.1645393
  70.6390686 166.6448669  33.0230370  69.6749954 166.3972931  33.1943741
  71.5747833 165.5370789  32.9277420  72.6161957 165.8411560  32.8223495
  71.5510635 164.8300323  34.2413177  71.7736588 165.5683441  35.0116692
  70.5943298 164.3318481  34.3980713  72.5214005 163.7932129  34.2364960
  72.3709259 163.2536774  35.0161552  71.2950058 164.5382996  31.7749748
  70.1429596 164.3953857  31.3961353  72.3513031 163.9134979  31.2739143
  73.2235184 164.0677795  31.7592411  72.2698135 162.8487091  30.2517872
  71.2220078 162.5549469  30.1892929  72.7414627 163.4267578  28.8801212
  73.7828751 163.6985474  29.0524693  72.7781906 162.6828766  28.0842628
  72.0266647 164.7014008  28.3818073  71.9070511 165.5074768  29.1057224
  72.8081207 165.3948059  27.2308636  73.2076492 164.6582794  26.5337257
  72.1450958 166.0623169  26.6804581  73.6085052 165.9335785  27.7380276
  70.6412506 164.4960175  27.7659588  70.1043930 163.9334106  28.5297394
  70.2624893 165.5051575  27.6038704  70.7648773 163.9204102  26.8486290
  72.9791107 161.5537872  30.6314468  74.2430801 161.5008545  30.8387012
  72.1369324 160.5045624  30.7605534  71.1480942 160.6472473  30.6124268
  72.5922775 159.1912384  31.2318783  73.6123428 159.3289795  31.5904884
  71.7496490 158.8081207  32.4256058  70.7322540 158.7220001  32.0440407
  72.0840073 157.8070831  32.6980705  71.9888077 159.9655609  33.8406448
  71.0423355 159.4525909  34.6318245  72.6614761 158.0385895  30.1339149
  72.2327652 158.1499176  28.9683685  73.4074097 156.9618530  30.4508514
  73.7390594 156.8802795  31.4013557  73.4651489 155.7525635  29.5969162
  73.5619736 156.0706482  28.5588665  74.6517487 154.8282928  29.8639812
  75.4849472 155.3889008  29.4402046  74.8026581 154.7426910  30.9400845
  74.4493027 153.1702118  29.1229706  75.7303467 152.7998962  29.0411930
  72.0959702 155.0158691  29.6524544  71.5300293 154.7743378  30.7378139
  71.6006699 154.5218964  28.5019131  72.1481476 154.6745605  27.6670132
  70.2484818 153.8402252  28.4606705  69.5265350 154.4258118  29.0298710
  69.8104248 153.7149506  26.9716225  69.8861465 154.6654968  26.4435959
  70.5469742 153.0497742  26.5209198  68.3589706 153.2749481  26.8405552
  68.3205185 152.1983032  27.0062847  67.7448120 153.8494415  27.5339985
  67.7999344 153.5856018  25.4071865  68.5319214 153.2511444  24.6720428
  66.8944473 152.9788208  25.4053974  67.5224075 155.1157990  25.1509094
  66.6633301 155.3181152  25.7905693  68.3261642 155.7355957  25.5483150
  67.1349182 155.5072632  23.7144775  66.4125977 154.9153595  23.3297787
  66.9151917 156.4924927  23.6802101  67.9315109 155.4003906  23.1028271
  70.2455368 152.4583588  29.1180172  69.2651978 152.0435638  29.7607803
  71.3918839 151.7082214  29.0419445  72.2130890 152.0506897  28.5640030
  71.4633789 150.3755035  29.6762924  70.5085526 149.9047852  29.4421406
  72.6169357 149.6040344  29.0172157  72.2735367 149.5312347  27.9852867
  73.5404739 150.1821442  28.9858799  72.7835464 148.0994873  29.5059433
  73.3043213 148.0855255  30.4633865  71.8276443 147.5773163  29.5472622
  73.4987488 147.1952057  28.4917431  73.9840927 147.5713654  27.3721790
  73.7488632 145.9539490  28.9086666  74.1929474 145.2734070  28.3088684
  73.3181763 145.5159760  29.7104111  71.5264969 150.4255066  31.1926327
  71.1003494 149.4745483  31.9182186  72.1025162 151.4757996  31.8011971
  72.5394211 152.1782074  31.2216759  71.9574203 151.7612457  33.3079033
  71.9280548 150.7879028  33.7976418  73.2464676 152.5180206  33.6872826
  73.1269913 153.5481720  33.3517036  73.3248062 152.4557648  34.7726822
  74.7545319 151.7567444  32.9528656  75.5812683 152.0328827  33.9653587
  70.7332001 152.5111694  33.7013931  70.1738129 152.3020630  34.8212242
  70.2277145 153.3455505  32.7775307  70.6847153 153.4525299  31.8832130
  69.3771820 154.5637207  33.0428543  69.3633499 155.0524750  32.0686798
  67.9186630 154.1495361  33.3382149  67.8929367 153.5299225  34.2346039
  67.2933426 155.0376434  33.4295540  67.4098434 153.2061157  32.2393723
  67.9748459 153.4154053  31.3310432  67.7668152 152.1955414  32.4379005
  65.8710175 153.1314240  32.2156296  65.1243896 153.3607941  33.1577835
  65.3565140 153.1080322  31.0385666  64.3593597 153.2637634  30.9995956
  65.9456253 153.0910339  30.2183437  69.9664841 155.5534363  34.1020966
  69.9483948 156.7432251  33.7969971  70.3970261 155.0692902  35.2588654
  70.2745361 154.0839539  35.4438248  70.7621689 155.9286041  36.3952560
  70.0365601 156.7382507  36.4730873  70.7218857 155.0099487  37.6200447
  70.8982849 155.6616211  38.4757919  69.7752075 154.4712372  37.6611557
  71.7924728 153.8976593  37.6595345  72.5590897 153.8244781  36.6861572
  71.7509232 153.0439911  38.5568428  72.1269150 156.5982056  36.3421249
  72.4570160 157.4239197  37.2257996  73.0180359 156.2375031  35.4330177
  72.7249451 155.5316467  34.7727509  74.4448318 156.6431122  35.4531784
  74.7155838 156.8044281  36.4966202  75.2942352 155.5291138  34.9287910
  74.9929047 155.2805481  33.9111862  76.7493744 155.9548645  34.8811150
  77.0594635 156.1475677  35.9081612  77.3520889 155.1006012  34.5727959
  76.9447784 156.8264008  34.2563286  75.3539124 154.2947388  35.6629181
  74.4585571 153.9872131  35.8222046  74.6326981 157.8870239  34.6101532
  74.4461975 157.9149475  33.3802414  75.2203140 158.9074554  35.1864662
  75.3882065 158.8686676  36.1816597  75.4864655 160.2066498  34.5255508
  74.6324844 160.4312744  33.8865128  75.4569016 161.4001160  35.5356636
  74.4574814 161.4105988  35.9705734  76.1723022 161.1601562  36.3222504
  75.7963943 162.8054810  34.9197960  76.7552719 162.6605225  34.4221497
  75.0945892 163.0427094  34.1202354  75.9803467 163.9434357  35.9984512
  76.3854904 163.6129150  37.1431732  75.8825226 165.1571198  35.6805458
  76.7877655 160.1569214  33.6821632  77.8651428 159.8829193  34.1990662
  76.6383820 160.3474884  32.3361359  75.7239304 160.6230621  32.0075874
  77.8200989 160.4649506  31.4564037  78.7475433 160.0115967  31.8062916
  77.4715958 159.8467102  30.1109180  76.3884506 159.8748322  29.9921608
  78.1027222 160.5595856  28.9073677  79.1575546 160.5266876  29.1800270
  77.9399109 159.9667358  28.0072975  77.7475510 161.5895691  28.8741665
  77.7927094 158.3335571  30.0511608  77.4064865 157.8166504  29.1726761
  78.8769531 158.2384949  29.9921761  77.1969528 157.4175110  31.1140251
  76.1472473 157.5615387  31.3699131  77.5775299 156.4301910  30.8523445
  77.6342773 157.6680756  32.0804939  78.1601715 161.9328613  31.3601151
  79.3299332 162.2060242  31.2755032  77.2020035 162.8691406  31.1824265
  76.2370071 162.5927582  31.0706711  77.5337906 164.3218536  31.0450459
  78.3456879 164.5133514  31.7466602  77.9718094 164.6650543  29.5777683
  78.8378525 164.0721130  29.2836723  76.8154831 164.5314026  28.5575275
  76.0057602 165.2494507  28.6872959  77.1591568 164.6111298  27.5262012
  76.3090744 163.5816498  28.7296467  78.3906784 166.0557251  29.5390167
  79.3221436 166.1253662  29.7606525  76.3167877 165.1988068  31.5384808
  75.1414948 164.7916412  31.5118961  76.5427628 166.4438019  31.9510841
  77.4939575 166.7724762  31.8656120  75.5217972 167.5051575  32.2395210
  74.5769577 167.0103607  32.4643745  75.9889374 168.4025269  33.3841095
  75.7592926 167.8634796  34.3032341  77.3691864 169.0313721  33.2939186
  77.3483429 169.6175232  32.3751717  77.5489807 169.6595917  34.1663437
  78.2217865 168.3624268  33.1768913  75.1475296 169.5550385  33.3603096
  74.3920059 169.2265930  33.8531723  75.1892929 168.3434753  30.9503899
  76.1271973 168.6064758  30.1433163  74.0284653 168.8983002  30.8658848
  73.3485413 168.6175385  31.5579720  73.5622711 169.9710999  29.9541512
  73.3189621 169.5238495  28.9903698  72.3429794 170.7029724  30.5434742
  71.4581223 170.0680542  30.5884132  72.6095505 171.0991974  31.5232925
  71.9800568 171.8785400  29.6023903  72.8087234 172.5857544  29.6379719
  71.8774872 171.4924622  28.5882282  70.6369705 172.4919434  30.0397148
  69.8145447 171.8131104  29.8140926  70.7165680 172.6349945  31.1173515
  70.3580856 173.8212738  29.2621307  71.2711868 174.4134674  29.2018280
  70.0469360 173.5799561  28.2457371  69.2812271 174.6289978  29.9504585
  69.4035263 174.9199829  30.9098721  69.1267471 175.4835358  29.4346981
  68.3730774 174.1900177  29.8987999  74.7984467 171.0381317  29.6927757
  75.0020752 171.4672241  28.5521145  75.5507126 171.4292755  30.7033653
  75.4323883 170.8680573  31.5347099  76.5855713 172.4628143  30.7013073
  76.1587906 173.2941895  30.1402683  76.8553467 172.8732147  32.1392250
  77.3542252 172.1061707  32.7315636  77.4246597 173.8026581  32.1280518
  75.5831757 173.2723541  32.8537331  74.9271240 174.2777863  32.4715271
  75.1344070 172.5176544  33.7819061  74.2138672 172.7382812  34.1341019
  75.6057281 171.7329407  34.2087326  77.8950577 172.1431122  30.0354996
  78.6330261 173.1295319  29.6912708  78.1471252 170.8974762  29.7345428
  77.5931396 170.2042999  30.2169514  79.3185349 170.5191345  28.9011154
  80.0956039 171.2534027  29.1135311  79.8198624 169.1548615  29.1826077
  79.0502472 168.4241028  28.9340248  80.7242279 168.9085541  28.6262341
  80.1225739 168.9342957  30.6463470  79.1548233 168.8328094  31.1375427
  80.5184097 167.9209747  30.7141743  81.0010452 170.0010223  31.3585262
  81.6948090 170.7661896  30.6500053  81.0462952 169.9452057  32.6353340
  79.0891495 170.5828857  27.3670502  80.0032883 170.3920746  26.6093922
  77.8937759 170.8598022  26.9800129  77.1950684 170.9183197  27.7069836
  77.3604736 170.8480377  25.5945206  77.5983887 169.9235382  25.0683880
  75.8047028 170.8343964  25.4728489  75.3744049 171.6927185  25.9888153
  75.5343018 171.0145569  23.9698410  76.0514069 170.2219238  23.4290619
  74.4778519 170.9215393  23.7181339  75.8917160 171.9526825  23.5452614
  75.2817078 169.5159607  25.9889774  75.7595520 168.7651062  25.3597031
  75.5962372 169.4286499  27.0289536  73.7732391 169.4119568  25.8612003
  73.4787521 169.4476776  24.8123379  73.3830643 168.5126495  26.3377609
  73.3021698 170.2290039  26.4076748  77.9942932 172.0497589  24.8739586
  77.9096146 173.2376862  25.3253117  78.6539230 171.7388763  23.7315750
  78.6949387 170.7620850  23.4780560  79.2387009 172.7322540  22.8765984
  78.6555099 173.6329651  23.0681591  80.7361984 173.0464478  23.2484608
  80.9361649 174.1139221  23.1556034  80.8558350 172.8227386  24.3085327
  81.8229752 172.2745667  22.5199928  81.8039169 170.8770294  22.6581211
  81.0075912 170.3854828  23.1972466  82.7762222 170.0578308  22.0823364
  82.8654709 168.9855804  22.1755676  83.8609009 170.6648102  21.4181843
  84.6611633 170.1055145  20.9564819  83.8879700 172.0717621  21.2241764
  84.6717453 172.5580444  20.6623573  82.8924866 172.8607635  21.8252392
  82.9080505 173.9349823  21.7147617  79.0247116 172.4212036  21.3906937
  78.9882889 171.2734070  20.9598236  78.7977142 173.4983368  20.6291924
  78.7779999 174.4205627  21.0405674  78.6649704 173.3967743  19.2017689
  78.1595383 172.4464874  19.0297127  77.8292007 174.4897003  18.7586498
  78.1765442 175.5065308  18.9417019  77.7251892 174.3433228  17.6835423
  76.5570602 174.3666229  19.3843155  75.9864273 175.0438080  19.0136337
  80.0541458 173.3529358  18.4582443  80.5775757 174.3801422  18.0593376
  80.6535034 172.2085114  18.2758064  80.2208633 171.3736420  18.6444874
  81.8805618 172.0252228  17.4488029  82.5920868 172.8103485  17.7045631
  82.4178162 170.6712799  17.8778305  82.6392288 170.6714630  18.9451065
  81.6461563 169.9198761  17.7103691  83.7266769 170.2979126  17.1514511
  83.6143341 170.4359894  16.0760860  84.9135742 171.1191559  17.7216854
  84.9963226 170.9196930  18.7900848  85.8336411 170.7736511  17.2503052
  84.8816528 172.1975555  17.5663071  84.0474167 168.8388367  17.3443069
  83.3247528 168.2857819  16.7443237  85.0568924 168.6143036  16.9998474
  84.0779572 168.4622345  18.3667259  81.5634384 172.1462097  15.9344473
  82.4248962 172.5097504  15.1399984  80.2554550 171.8705750  15.6119967
  79.5866852 171.7073212  16.3510494  79.7376862 171.9186859  14.2223215
  80.5663834 171.7660828  13.5308924  78.6988754 170.8385773  14.0581751
  79.0827179 169.8344574  14.2384958  77.8647385 170.9299469  14.7538548
  78.2278214 170.7652130  12.7451878  78.2787628 169.8849792  12.3654699
  79.0198898 173.2331543  13.9805584  78.4060364 173.8031311  14.8544369
  78.9527817 173.6445312  12.7168074  79.3394165 173.0275574  12.0168343
  77.9392548 174.5922852  12.2357740  77.7996979 175.4540558  12.8884506
  78.4693222 175.0969391  10.8431997  78.7811890 174.2298889  10.2608995
  77.5708389 175.2439423  10.2438545  79.3938522 176.3036652  10.8382235
  80.3907623 175.9377136  11.0839014  79.3549118 176.7994080   9.3908129
  78.3692474 177.1985626   9.1515579  80.1780243 177.4922638   9.2161064
  79.4954758 175.9246826   8.7558289  78.9921112 177.4834290  11.7277861
  79.2510529 177.2667084  12.7641678  79.5765839 178.3708954  11.4850969
  77.9178009 177.6322937  11.6191912  76.4793701 173.9970398  12.0449514
  75.5341263 174.8183289  12.0129232  76.2489548 172.7288971  12.2782927
  77.0576019 172.1362305  12.4005346  74.9557343 172.1776733  12.5984268
  74.1540909 172.7519989  12.1340780  74.8350830 170.7845917  12.0001297
  75.7027283 170.2028503  12.3113794  74.0179291 170.2214203  12.4509001
  74.5893936 170.8940735  10.1839447  74.3550262 169.5814819  10.0998402
  74.5677261 172.3443451  14.0780840  73.4903183 171.9098511  14.5313015
  75.4503021 172.8679047  14.9292459  76.3226624 173.2361298  14.5778236
  75.2660217 173.1824799  16.3313351  75.6944199 174.1614990  16.5460320
  74.1908035 173.2371216  16.5016918  75.9022903 172.1151276  17.2845726
  77.0137787 171.7532501  16.9175491  75.3294373 171.6734314  18.4030476
  74.0310593 172.1006775  18.8047676  73.3073959 171.9720764  17.9998627
  73.9963684 173.1691284  19.0176697  73.6249390 171.2888641  19.9586449
  73.2346039 170.3120422  19.6730595  72.9885254 171.7104645  20.7366791
  75.0100403 170.9429016  20.5593281  74.8899078 170.0677795  21.1979599
  75.3805695 171.7729187  21.1608772  75.9053726 170.7302856  19.3555984
  76.9215469 170.9740143  19.6655788  75.9866562 169.2453918  18.9089279
  76.4626007 168.4255219  19.6453896  75.4961319 168.8800507  17.7147217
  75.0445404 169.6534119  17.2477341  75.2540054 167.5105743  17.2847061
  76.1381302 166.9464264  17.5816402  74.0114975 167.0000763  18.0371380
  74.0973282 167.2171478  19.1018505  73.1716385 167.6139526  17.7117138
  73.6562958 165.5150452  17.9073334  73.4541321 165.2995300  16.8581524
  74.4843750 164.9048767  18.2680073  72.2632141 165.0813904  18.8710747
  70.9589233 165.5574341  17.7581196  71.2105637 164.9502869  16.8885441
  69.9724579 165.3002472  18.1439152  70.9549942 166.6235352  17.5311298
  75.0030823 167.4331665  15.8084269  74.2690811 168.2404327  15.2688189
  75.5289383 166.4154053  15.1183586  76.1239929 165.7264252  15.5557671
  75.1982040 166.1492920  13.7241087  74.1654205 166.4352570  13.5248995
  76.1023483 166.9549408  12.7564373  77.0537491 166.4509277  12.5863705
  75.6295700 167.0193634  11.7764215  76.2141190 167.9513855  13.1838713
  75.2437897 164.6370087  13.4626732  75.2561493 163.8565369  14.3898134
  75.2711411 164.2184753  12.1964121  75.4199295 164.9648895  11.5324564
  75.1660767 162.8565369  11.7519646  75.1131516 162.2619171  12.6639605
  73.8401260 162.6539764  10.9895992  73.8667068 163.2635345  10.0863562
  73.8479614 161.6335449  10.6065359  72.9461136 162.8120422  11.5928144
  76.4361115 162.4920502  10.9185581  76.7610168 163.2439423  10.0268154
  77.0432892 161.3649292  11.1884689  76.7798767 160.8993683  12.0451851
  78.2759857 160.9095459  10.5417843  78.3537750 161.2884064   9.5227070
  79.4479752 161.4637604  11.3637409  79.4330826 160.8589172  12.2704096
  80.3918762 161.3234558  10.8369961  79.4147797 162.9588318  11.6795034
  79.6176987 163.8823395  10.5925369  79.7621231 163.5330963   9.5808144
  79.6862030 165.2138824  10.9063787  79.7994537 165.9209290  10.0978889
  79.4824677 165.7306519  12.1516218  79.5448380 167.0980530  12.3938046
  79.4071655 167.6383209  11.6122961  79.2861176 164.8476257  13.2471914
  79.2456512 165.2201996  14.2600813  79.2340622 163.4284058  12.9951468
  79.0833206 162.7323914  13.8070841  78.3352966 159.3979645  10.5627022
  77.7227936 158.6660309  11.3594904  79.1681442 158.8458252   9.6856766
  79.6904526 159.5129242   9.1358757  79.2211304 157.4141846   9.3878469
  78.7182770 156.8439331  10.1689100  78.5409012 157.0614777   8.0396261
  78.4421310 155.9762421   8.0149326  77.1799011 157.6949005   7.9679070
  77.1828384 158.7816772   7.8841057  76.5493546 157.2071381   7.2245364
  76.6452484 157.4127045   8.8748865  79.2522659 157.4822235   6.7364306
  80.0651703 156.7632904   6.6343513  78.4952316 157.3466034   5.9640250
  79.6694870 158.4889221   6.7116375  80.6307449 156.8070526   9.3724699
  81.5513000 157.3220215   8.7701654  80.7771530 155.5657806   9.8920755
  79.9763870 155.1481018  10.3442278  81.9534454 154.7014160   9.7195511
  82.7950668 155.3789062   9.8637562  81.8622208 153.6630402  10.8877249
  82.7847977 153.0934601  10.9996805  81.7019882 154.2720184  11.7774296
  80.6197968 152.7218323  10.8406067  79.9481201 152.5000153   9.8558769
  80.4159546 151.9206696  11.8630438  79.6205368 151.2982635  11.8674707
  81.1996689 151.8483582  12.4960241  81.9782028 154.0968475   8.2969418
  80.9850540 154.2075958   7.5295768  83.1246872 153.3785706   7.9957800
  84.4012299 153.2749176   8.8055105  84.3201065 152.3876648   9.4334393
  84.7737427 154.1284027   9.3719902  85.4459076 152.9232178   7.7716560
  86.2536087 152.3970184   8.2804108  85.7520142 153.7724609   7.1607633
  84.6776047 152.0384369   6.8227119  84.5943298 151.0146637   7.1874633
  85.1884766 152.0999146   5.8618131  83.3375931 152.6777039   6.7264328
  83.3978348 153.4476929   5.9572825  82.2546539 151.6360779   6.3553495
  82.0582504 151.1785583   5.2631383  81.5989151 151.2377777   7.3863778
  81.8485336 151.6208801   8.2869463  80.5670700 150.1753998   7.3303189
  80.6736755 149.4914398   6.4883356  80.5039597 149.3003387   8.5273142
  80.0226440 149.8850403   9.3112555  79.9251175 148.4164276   8.2594547
  81.8619308 148.8771362   9.0409565  82.6485138 149.6405182   9.9255466
  83.7100296 148.9058075  10.2174215  84.5151596 149.2194824  10.8653193
  83.6626663 147.7632446   9.5018215  84.3581772 147.0334015   9.5625706
  82.4862747 147.7212830   8.7879438  82.0669785 146.9346161   8.1782293
  79.1695938 150.8171692   7.1018019  78.1881104 150.1080780   7.1668248
  79.0226517 152.1402893   6.8186493  79.8207779 152.7154083   7.0474200
  77.7225189 152.8741760   6.5071220  78.0309067 153.8995209   6.3030500
  77.2624588 152.4335785   5.6226254  76.7519913 153.0329437   7.6553297
  75.8418732 153.8421326   7.4545794  76.9263687 152.4805145   8.8699503
  77.6705093 151.8070526   8.9830551  76.0852051 152.8551178  10.0316515
  75.0546722 152.7092133   9.7079086  76.4283752 151.9147034  11.1902590
  76.4761887 150.8908691  10.8193331  77.3917465 152.1814423  11.6248426
  75.2825851 151.9408112  12.2933674  74.1909332 151.0792236  12.1727667
  74.1340332 150.4166870  11.3217602  73.2163162 151.0287476  13.2410641
  72.3743134 150.3532867  13.2067986  73.3383713 151.9020844  14.3212137
  72.4618912 151.9489899  15.3492899  71.8023529 151.2519226  15.3761501
  74.3463974 152.8843231  14.2976713  74.3491211 153.6194000  15.0889187
  75.3621674 152.9266968  13.3217249  76.0818558 153.7317963  13.3374557
  76.2597809 154.3266907  10.5109367  77.3800507 154.8584900  10.3271389
  75.1269455 154.9631958  10.9560528  74.3741302 154.2960358  11.0469379
  74.9681320 156.4445801  11.1216297  75.8941345 156.8846283  10.7514925
  73.8335342 157.0791931  10.2558813  72.9561157 156.7094116  10.7864571
  73.9535599 158.6079407  10.3845291  74.8561783 158.9729919   9.8944912
  73.0552979 159.0302582   9.9341259  73.8971100 158.9334564  11.4232531
  73.7517548 156.6493683   8.7478123  74.0413132 157.4503937   8.0676508
  74.4389038 155.8429871   8.4915609  72.2915039 156.3541107   8.2921448
  71.8437653 157.3465881   8.2409210  72.2919235 155.7687988   7.3726277
  71.7789536 155.7917786   9.0726395  74.9205551 156.6818695  12.6200838
  73.8605194 156.5459595  13.2311001  76.1022415 157.0562134  13.1159506
  76.8374176 157.1921997  12.4368916  76.3076553 157.5147400  14.4674740
  75.6054153 156.9637146  15.0930262  77.7284622 157.2271423  14.9813309
  78.4580765 157.7177124  14.3370495  77.8199158 157.5218048  16.0267563
  78.0571976 155.8032379  14.9636650  77.6093674 154.7804108  15.8295832
  78.0938187 153.6214905  15.3386593  77.9292679 152.6237793  15.7180166
  78.8216934 153.8912048  14.2180185  79.3689041 153.1859589  13.7454729
  78.7097397 155.2340088  13.9040756  79.1825638 155.7382050  13.0742474
  75.9685059 159.0037842  14.4891720  76.5039978 159.8442535  13.8410711
  74.8902054 159.3649292  15.2358284  74.4567337 158.6523438  15.8054113
  74.5337830 160.7561798  15.5830307  75.0667801 161.4141235  14.8966494
  72.9823685 161.0393372  15.6969213  72.5720215 160.2989349  16.3835926
  72.8040771 162.0461426  16.0746002  72.2017059 160.9356537  14.3550959
  72.7145462 161.4974976  13.5744324  72.3667526 159.9058838  14.0381536
  70.6825638 161.1985474  14.4544268  70.1302338 161.0342560  15.5852928
  70.0880966 161.5505219  13.4133177  75.1918182 161.0850067  16.9324074
  74.8702240 160.4545593  17.9101372  76.1148529 162.0362701  16.9034710
  76.3154755 162.6056519  16.0937443  77.0032043 162.2418518  17.9838982
  76.7810059 161.5534363  18.7992554  78.4625092 161.8602600  17.6736050
  79.1098557 162.1181641  18.5117741  78.6791611 160.3393555  17.5114326
  78.0704880 159.9681244  16.6869259  79.6879044 160.0403290  17.2266331
  78.3043365 159.8433533  18.4067593  78.9414368 162.4163361  16.4974079
  79.7328262 161.8974915  16.3358593  76.8501205 163.6444702  18.5127850
  76.8452759 164.6528778  17.7961102  76.6888657 163.6924591  19.8454247
  76.6945343 162.8374176  20.3829842  76.6492157 164.9579468  20.6389027
  76.2603836 165.8129272  20.0858078  75.7370377 164.7246246  21.8438301
  74.7526550 164.5932922  21.3945599  76.1436157 163.8637238  22.3745480
  75.6439590 165.9519958  22.7944508  76.6740112 166.2482910  22.9927158
  74.8076553 167.2315063  22.2713299  74.0529251 166.8716431  21.5720615
  74.4679947 167.9409790  23.0259018  75.4326096 167.8617401  21.6386127
  75.0435028 165.5729828  24.1444016  75.5711517 164.6620331  24.4270000
  75.1809158 166.4117737  24.8267879  73.9891357 165.2988892  24.1085052
  78.1641083 165.3108673  21.0497742  78.7851334 164.4739075  21.7036800
  78.6604156 166.4857788  20.7666836  78.1431351 167.2065735  20.2839985
  80.0017929 167.0124054  21.2210770  80.6576309 166.1550903  21.3726616
  80.7042465 167.8817902  20.1541100  81.5933533 168.4019318  20.5105228
  81.1963730 166.8652191  19.0742321  80.3084412 166.3753510  18.6746044
  81.7580338 167.5218811  18.4098244  81.9697876 166.1670685  19.3944283
  79.9270935 168.8722534  19.5546036  80.0021744 169.7191315  20.0004139
  79.8027420 167.7840881  22.5602474  78.9754410 168.7214966  22.6513653
  80.6193542 167.3602600  23.5325718  81.2976456 166.6544495  23.2838554
  80.7258759 167.9552612  24.8595982  80.3621216 168.9804688  24.9283695
  79.8475266 167.0964661  25.8043022  79.7938385 167.6770477  26.7252464
  78.3652420 167.0683594  25.4014034  78.3403549 166.4447632  24.5077496
  77.7102890 166.7075806  26.1944847  78.0167084 168.0567474  25.1018772
  80.3029785 165.6944885  26.1091805  81.3228912 165.7561493  26.4887486
  79.7045288 165.2903442  26.9256516  80.2776871 165.1130524  25.1875553
  82.1629868 168.0209961  25.2940369  82.9905243 167.1506348  24.9261169
  82.4776306 169.0777893  26.0335236  81.8421249 169.8468475  26.1909409
  83.8963013 169.1959686  26.5420761  84.5706329 169.1453552  25.6872044
  84.1661606 170.4439392  27.3218098  83.5112076 170.5677643  28.1842480
  85.1854477 170.3460846  27.6954079  84.0166397 171.7312469  26.5266571
  84.9503326 171.9810791  25.5109653  85.7751160 171.2929382  25.3987541
  84.6624680 173.0618896  24.5987911  85.2444458 173.2184296  23.7025814
  83.6001434 173.9376984  24.8759155  83.4617386 175.0300446  24.0854111
  84.0884628 174.9862518  23.3595314  82.8276443 173.7509766  25.9971504
  82.0947876 174.5297089  26.1484947  83.0435257 172.6501160  26.8473206
  82.3678894 172.4163055  27.6567917  84.2151337 168.0662994  27.5321789
  85.3727112 167.6751862  27.6469746  83.2226028 167.5678558  28.2218704
  82.3169632 168.0097504  28.1536236  83.4585876 166.5504608  29.3269634
  84.4509506 166.1075897  29.2421951  83.6676102 167.4607391  30.6114502
  84.4371185 168.2004242  30.3904800  82.6878586 167.8792267  30.8417721
  84.0762558 166.7163849  31.9148827  83.3233414 165.9775543  32.1893997
  85.0496674 166.2602844  31.7345028  84.2621536 167.7462006  33.0377312
  85.0336075 168.4695740  32.7737808  83.3442383 168.3197327  33.1665421
  84.5583420 167.0893707  34.4008369  84.4288635 167.8314209  35.1886864
  83.7861786 166.3389130  34.5701370  85.9362717 166.5513306  34.5169106
  86.6430054 167.1745453  34.1532822  86.2120514 166.4207306  35.4797173
  86.0761566 165.6732330  34.0378494  82.4514465 165.4082031  29.3986530
  81.2878265 165.5527344  29.0560932  82.9663849 164.2605896  29.8120022
  83.9601822 164.2197418  29.9875145  82.1904068 163.1411896  30.4167500
  81.2507782 163.5301971  30.8090115  81.7552414 162.2512817  29.2430420
  82.7332535 162.0327606  28.8142719  81.1916885 161.3646393  29.5335274
  81.1090393 162.8850098  28.6356659  82.8571167 162.4198303  31.6188221
  84.0383835 162.4971008  31.8275833  81.9986496 161.7695770  32.4801292
  81.0060501 161.8010406  32.2961273  82.4005737 161.3643799  33.8301506
  83.3797760 161.8141785  33.9943123  81.5192871 162.1419220  34.8451195
  80.4539948 161.9114990  34.8325272  81.8711548 161.8981628  35.8475533
  81.5858459 163.9602966  34.5556946  82.6051941 163.9265900  33.6927414
  82.4890594 159.9331665  34.1288147  83.6372147 159.4654083  34.3770332
  81.4399567 159.1202698  34.0080872  80.5676651 159.5850525  33.8002396
  81.3616257 157.6821747  34.1330757  82.1626511 157.3569183  34.7969170
  80.0322571 157.2460938  34.8058281  79.1606293 157.5218658  34.2122688
  80.0982437 156.1765747  35.0055389  80.0371857 157.8432922  36.2157364
  80.8624649 157.5365448  37.0751724  79.1673050 158.7609100  36.5117950
  79.1440582 159.0976105  37.4637337  78.5957947 159.2094421  35.8101654
  81.5564117 156.8731232  32.8209724  80.7800674 155.9483948  32.4467468
  82.7130585 157.0513000  32.2034378  83.3179245 157.7744598  32.5657501
  83.0455704 156.3398895  30.9869881  82.3679352 155.5251617  30.7317924
  83.2287216 157.2970886  29.8699112  83.8527679 158.1226044  30.2122498
  83.7166061 156.8287964  29.0150623  81.9207458 157.8576660  29.3069916
  81.4821396 158.4149933  30.1347103  82.0752640 158.8336792  28.1222992
  82.3670502 158.3260193  27.2029343  81.1642151 159.3497162  27.8192997
  82.8347092 159.5883484  28.3267555  81.0065842 156.8061676  28.8096447
  80.6060257 156.2495117  29.6568718  80.1381531 157.2476349  28.3207340
  81.3643799 156.1291199  28.0339584  84.4438095 155.7504120  31.1333790
  85.3321838 156.3245697  31.7654896  84.6994247 154.5541077  30.5942173
  83.8747864 154.2094574  30.1238060  86.0321198 153.9467468  30.4674454
  86.7662354 154.5563202  30.9943218  86.0470963 152.4428558  31.0368843
  85.3241501 151.9045410  30.4239655  87.0399704 152.0293121  30.8600388
  85.7899170 152.3117065  32.5853882  85.4488754 153.2336121  33.3210640
  85.9929581 151.0877991  33.0588608  85.8201523 150.9547119  34.0450287
  86.1289062 150.4289551  32.3055077  86.4435272 154.0409393  28.9618454
  85.6292877 154.3673401  28.0968990  87.7520905 153.7876282  28.7988129
  88.2026749 153.3210907  29.5730305  88.4180527 153.8806000  27.5604954
  87.7357483 154.2830963  26.8117828  89.6116791 154.8180542  27.7170296
  90.3093796 154.3205566  28.3906803  90.1410828 154.9559174  26.7742538
  89.3384933 156.2897797  28.2315197  88.9464722 156.2564087  29.2480354
  90.6217194 157.0414581  28.2261620  91.0198212 156.9173431  27.2190819
  90.5968170 158.0855408  28.5381851  91.3101730 156.6091156  28.9522648
  88.4053650 157.0838470  27.2768555  87.5470734 156.4307098  27.1192493
  88.0034027 157.9829407  27.7439346  88.9433594 157.3679352  26.3724422
  88.8334122 152.4573212  27.0585766  89.2946091 151.6899567  27.9123688
  88.7723465 152.2658997  25.7606144  88.2148819 152.8801880  25.1844330
  89.3059006 151.0738220  25.0300121  90.1724243 150.7488708  25.6059036
  88.2940369 149.9558563  24.8717136  88.6996918 149.0612488  24.3992233
  87.9206390 149.6699066  25.8550282  87.0960007 150.3970795  24.2214909
  86.3454742 149.8703613  24.5058727  89.8950272 151.4926605  23.6580524
  89.6641006 152.6556244  23.2573242  90.6289444 150.6350708  22.9750042
  90.8188019 149.7191467  23.3559761  91.2629776 151.0737152  21.7644920
  91.4966354 150.1411438  21.2508850  90.5769501 151.6501312  21.1438274
  92.5815430 151.8264160  21.9017315  93.1542282 151.9462738  22.9736958
  93.0167084 152.4524384  20.8139839  92.5470352 152.2131042  19.9524536
  93.9952850 153.5892334  20.8697147  94.0527725 153.8724213  21.9207153
  95.4105377 153.1196899  20.3890839  95.3442688 152.7775726  19.3562851
  96.0751495 153.9698029  20.2350883  96.0795822 152.1228485  21.3021946
  95.3349075 151.3429871  21.4615211  96.8822327 151.5740662  20.8095360
  96.5907288 152.7228088  22.6271763  97.3651810 153.4774933  22.4901638
  95.7561569 153.2640076  23.0729179  97.1216507 151.6615143  23.5147896
  98.1011505 151.4156494  23.5299530  96.5103073 151.1470032  24.6037674
  95.3136826 151.5192261  24.9872799  94.7706070 152.0223541  24.3002338
  94.8199997 150.9483032  25.6584110  97.2054672 150.4262543  25.4000626
  98.0653458 149.9924469  25.0958900  96.8165283 150.1635590  26.2943916
  93.5122910 154.7513275  19.9638195  92.8587723 154.4620056  18.9701653
  93.8992462 156.0154419  20.3041191  94.4913406 156.3928680  21.5505142
  95.5631866 156.1975708  21.5170994  94.0030289 155.8618774  22.3676491
  94.3089981 157.8868866  21.6502857  95.0849991 158.4102020  22.2089138
  93.3250351 157.9808960  22.1097145  94.3176193 158.3472443  20.1865425
  95.3171921 158.4680634  19.7689667  93.8632965 159.3319550  20.0768700
  93.6537781 157.1801605  19.4878178  92.5795746 157.3648987  19.4803829
  94.0490646 156.9588165  17.9783268  95.2145004 156.8336792  17.6831188
  93.0491943 156.8942413  17.0883484  92.1092682 156.8355255  17.4532967
  93.2089462 156.7402039  15.6662273  94.2728958 156.6922760  15.4342566
  92.6632690 155.3670654  15.2330046  93.2760162 154.6276855  15.7487068
  91.6173782 155.3227539  15.5367270  92.7463455 155.2556610  13.7802906
  92.7944641 154.3114929  13.6134548  92.6142960 157.8782654  14.8739653
  91.5729370 158.3694153  15.2849083  93.2838516 158.4487610  13.8395634
  94.2509308 158.2056885  13.6789856  92.7980652 159.5323029  12.9677820
  92.1976166 160.2178192  13.5658140  93.9826508 160.3493652  12.3017588
  93.5519562 161.1972656  11.7691660  94.8762894 161.0180664  13.3869820
  95.3924332 160.1807556  13.8566771  95.6236877 161.6853485  12.9577646
  94.2655792 161.5400543  14.1236324  94.7684860 159.3900757  11.5549364
  94.5842896 159.5390930  10.6246300  91.8516159 158.9145203  11.7923679
  91.2375031 159.6607666  10.9928885  91.7573318 157.5821381  11.7139549
  92.3212128 157.0039673  12.3204565  91.3195877 156.9464722  10.4362822
  91.7761383 157.5351410   9.6405935  91.8161011 155.5055084  10.5456047
  91.5289688 155.0429230  11.4898882  91.4845123 154.8955994   9.7052755
  93.3584824 155.4467163  10.4445496  93.8936157 155.9941559  11.2204609
  93.5799026 154.4172058  10.7259417  93.9634094 155.6598663   9.0326042
  93.8482208 156.7679749   8.4586821  94.6195068 154.7467651   8.5034418
  89.7886581 157.0526581  10.2658834  89.0168076 156.6433411  11.1475124
  89.3391647 157.5937653   9.1244812  90.0504913 157.7256317   8.4196920
  87.9011307 158.0303955   8.8273897  87.8494186 158.5123138   7.8510752
  87.0343399 156.7108002   8.6425886  87.7002335 155.8929596   8.3672304
  86.5975723 156.4165039   9.5969067  85.9390030 156.7477570   7.5820112
  84.5775528 156.6364746   7.7937732  83.9457321 156.9058838   6.6382890
  82.8811111 157.0014191   6.4838252  84.8346176 157.0531311   5.6626534
  84.5619812 157.1495819   4.6949415  86.0959854 156.9113922   6.2365818
  87.0610046 156.9717102   5.7554426  87.3120804 159.0453033   9.8485041
  86.1020966 159.1331787   9.9820385  88.1623535 159.7741089  10.5332031
  89.1591034 159.6226349  10.4729471  87.6379547 160.7141876  11.5324297
  87.0052719 160.1486206  12.2165031  88.7283173 161.4865570  12.3328171
  89.4081726 160.7531738  12.7664719  89.2927475 162.0953064  11.6264629
  88.0512695 162.3034668  13.2970762  88.7165451 162.8053894  13.7735910
  86.6537323 161.8414001  11.0184298  86.9012833 162.7390442  10.2657738
  85.4685974 161.8829803  11.5720196  85.3266449 161.3189240  12.3977242
  84.3975143 162.8817291  11.3298445  84.1190414 162.7527924  10.2839327
  83.1716080 162.4079742  12.1630373  83.3939285 162.5114899  13.2250910
  82.3163528 163.0427399  11.9312954  82.7848282 160.9627075  11.9073353
  82.8678818 160.3609161  10.7188311  83.2922897 160.7835999   9.8201561
  82.5283203 159.0246735  10.8339815  82.3834686 158.4136505  10.0429296
  82.1034546 158.7621155  12.1167450  81.7833633 157.5783844  12.8037539
  81.7663803 156.5998383  12.3470631  81.4585190 157.6318207  14.1859407
  81.3850784 156.7048187  14.7351761  81.4376907 158.8486176  14.8824711
  81.2024689 158.9023438  15.9351749  81.8496552 160.0310516  14.2058363
  82.0084610 160.9105835  14.8121614  82.1995163 159.9905090  12.8396444
  84.7485504 164.3906708  11.6575375  84.0537796 165.3149414  11.2674313
  85.8814774 164.6046753  12.3028584  86.4262848 163.7836914  12.5248194
  86.4045258 165.8882599  12.8565388  85.8990860 166.7317352  12.3862391
  86.0922623 165.8735199  14.3979788  86.7427521 165.1501007  14.8895350
  86.3960495 166.8414307  14.7966661  84.6723328 165.5943451  14.8500500
  83.5631332 166.3807831  14.3109426  83.6895294 167.2065582  13.6264610
  82.2924042 166.0079346  14.6407213  81.5029907 166.5809174  14.1771307
  81.9994888 165.0366364  15.5756340  80.9751816 164.9153442  15.8957472
  83.0191574 164.2327728  16.0453186  82.8684235 163.4343414  16.7568016
  84.3386765 164.5165405  15.6757278  85.1361465 163.9631653  16.1492538
  87.9337234 165.9927063  12.4621859  88.8060074 165.2846527  13.0339336
  88.2906342 166.9031677  11.4971285  87.4736557 167.4718781  10.4759197
  87.1138153 168.4427795  10.8164444  86.5958786 166.8869629  10.2011709
  88.3828506 167.5489349   9.2478857  88.0087509 168.2692108   8.5203285
  88.4787750 166.5589905   8.8018913  89.7033157 167.9277649   9.8215551
  89.8001556 168.9762268  10.1034031  90.5571289 167.7261505   9.1746702
  89.6810074 167.0359344  11.0953321  89.9812775 166.0507050  10.7385893
  90.6701126 167.3937225  12.1364841  90.4966812 168.3616028  12.8718357
  91.6725998 166.5256348  12.4163723  91.7251434 165.7358856  11.7889633
  92.8338699 166.7756805  13.2856016  93.6881027 166.1659851  12.9912252
  93.0953064 167.8315887  13.2162218  92.7100754 166.3661804  14.7229471
  93.6210403 166.6421661  15.5410042  91.6812973 165.6474609  15.0878067
  90.9518433 165.4562988  14.4159088  91.5543137 164.8917236  16.3652821
  92.4614944 165.1907959  16.8903542  90.3191605 165.3148956  17.2696285
  89.4799347 165.0461426  16.6280823  90.2858200 164.6712036  18.1486359
  90.2660751 166.8040161  17.7212334  90.4827728 167.0570984  19.0618191
  90.6842651 166.2661743  19.7690945  90.2734299 168.3772888  19.4663372
  90.2174530 168.5431976  20.5320492  89.8103790 169.3799286  18.6087132
  89.7208328 170.6806793  19.0671139  90.3392487 170.8077850  19.7903080
  89.5838089 169.0745850  17.2588139  89.1562881 169.8496704  16.6400547
  89.8386993 167.7575684  16.8074856  89.5099487 167.4644012  15.8213949
  91.6283875 163.3940735  16.0459728  91.0246429 162.9098358  15.1076326
  92.2005997 162.5725098  16.9921932  92.7521515 162.9880676  17.7292194
  92.2416229 161.1080780  16.9975376  91.9945755 160.6477051  16.0409145
  93.6251068 160.5964355  17.3541813  93.8984985 161.0054779  18.3268356
  93.6723557 159.5203094  17.5209732  94.3950195 160.9230804  16.6551533
  91.1494064 160.6131744  17.9092407  91.0735321 160.9647827  19.1096973
  90.2495270 159.7115631  17.4265003  90.3185654 159.3695374  16.4786854
  89.2084427 159.0482178  18.2033081  88.9256668 159.7811279  18.9589386
  87.9467621 158.6753387  17.2840652  87.1713028 158.1901245  17.8767986
  87.5714951 159.6129608  16.8740253  88.2350769 157.6982727  16.1666374
  88.4797668 158.0666351  14.8871021  88.4485474 159.0792847  14.5129671
  88.7068329 157.0350494  14.0686188  88.8011627 157.0753784  13.0638418
  88.6241684 155.8628845  14.7428036  88.7758484 154.5360413  14.3781843
  89.0031128 154.1692505  13.3881254  88.4049377 153.5532684  15.3571777
  88.5211563 152.5637360  14.9403973  88.0797195 153.9099274  16.6608524
  88.0308762 153.1831970  17.4582710  88.0888824 155.2789154  17.0160713
  88.0415192 155.5260468  18.0663471  88.2687759 156.2765808  16.0868721
  89.7501297 157.8125916  18.9099083  90.5449753 157.0514069  18.4062347
  89.1016769 157.5217285  20.0615482  88.6578522 158.3715515  20.3792667
  89.3863373 156.3583832  20.9370060  89.5962524 155.4981689  20.3013439
  90.6573181 156.5191040  21.8469849  91.4375381 157.0828247  21.3355408
  90.4740295 157.2619476  23.1663303  89.9148560 156.6461487  23.8707542
  91.4361496 157.5277405  23.6042557  89.7838898 158.0892487  23.0008049
  91.1347504 155.2883606  22.0484409  91.8136444 155.2388916  22.7253799
  88.0814743 155.9356079  21.6175327  87.2416992 156.7968750  21.9883080
  87.7961731 154.6168518  21.7842541  88.6019440 154.0079651  21.7745514
  86.4282761 154.1326447  21.9883385  85.8093414 154.5876160  21.2150211
  86.3683853 152.6698914  21.6282310  87.0783768 152.0859680  22.2139473
  85.0104752 152.0159149  21.8551559  84.2827530 152.3921204  21.1361370
  85.1182709 150.9358368  21.7555676  84.6595383 152.2093811  22.8688183
  86.8009338 152.5057831  20.1127453  85.9181137 152.6212769  19.4839420
  87.4935455 153.2926788  19.8141422  87.4853439 151.1185150  19.8578167
  86.7647781 150.3323669  20.0833473  87.6948166 151.0228577  18.7924194
  88.3637619 151.0106049  20.4940796  86.0405960 154.4201050  23.4230289
  86.8248978 154.1533966  24.3688545  84.8621826 155.0277710  23.6136608
  84.3968430 155.4082794  22.8020172  84.2418289 155.0914917  24.9630070
  84.9385071 154.8828125  25.7749176  83.7137451 156.5449371  25.0824547
  82.7454147 156.6635590  24.5962906  83.6204376 156.6471863  26.1636295
  84.4444962 157.2833099  24.7524490  83.1593857 153.9721985  25.1643410
  82.3371887 153.6629028  24.2847748  83.1544113 153.4609528  26.4024677
  83.8196793 153.8238983  27.0701408  82.1620331 152.6173401  26.9852600
  81.2838898 152.7820435  26.3608971  82.6229858 151.1472778  26.9677505
  83.5752869 151.0949707  27.4954662  81.9687805 150.5891266  27.6375275
  82.7847672 150.4510803  25.5499649  81.7763062 150.3555298  25.1475010
  83.4364319 151.0714569  24.9346790  83.6023026 149.1408539  25.7255478
  84.7513657 149.0717468  25.3988686  83.0043488 148.1268311  26.3103867
  83.4972687 147.2537079  26.4319973  82.0129547 148.1685944  26.4987812
  81.6471405 153.0666656  28.3187904  82.3434601 153.8296204  29.0387230
  80.4499512 152.5950165  28.7056389  79.8212814 152.2137146  28.0131893
  79.8770752 152.8902283  30.0372467  79.9031448 153.9700317  30.1836853
  78.3571167 152.5981445  30.0106640  77.8893661 153.1254272  29.1792336
  78.3831177 151.5097504  29.9574623  77.7473221 153.1107330  31.6483040
  76.4437408 152.8806763  31.4676113  80.6547012 152.1801300  31.1606331
  80.9760895 151.0086060  31.0411186  80.8496094 152.8478851  32.3331604
  80.4598236 153.7790985  32.3014526  81.7161407 152.4301453  33.4201622
  82.6332092 152.0104828  33.0066719  82.1150055 153.6060486  34.2652931
  82.7517929 154.2426910  33.6510696  81.2224579 154.1849060  34.5027657
  82.9117432 153.2497406  35.4914970  82.2692032 152.6735382  36.1572533
  83.7365952 152.5596619  35.3140068  83.4276199 154.5661316  36.1227646
  82.5820160 155.1603241  36.4691582  83.9085236 154.2682037  37.0544662
  84.4387741 155.2798767  35.2518158  84.7764740 154.6556244  34.5332336
  85.0002213 156.4802551  35.4828758  84.8813705 157.2407379  36.5619888
  84.2743607 156.9573975  37.3178711  85.4414902 158.0811768  36.5680351
  85.8461075 157.0093384  34.6217537  86.0597610 156.5568390  33.7444305
  86.4244308 157.7693176  34.9504852  81.1166916 151.1976471  34.1193390
  81.6985092 150.1262665  34.3509865  79.8396454 151.3584137  34.4443359
  79.4227676 152.2540741  34.2342987  79.0608215 150.2572174  35.0657806
  79.5774689 149.9285126  35.9675217  77.6991959 150.8261261  35.5633125
  77.2411804 151.3435822  34.7203598  76.7311783 149.6866150  36.0321312
  77.3079376 149.1342621  36.7739944  75.8030548 150.0960083  36.4309807
  76.4117126 148.9822083  35.2641106  77.8344574 151.9593506  36.6515808
  78.3737183 152.8415680  36.3066368  76.8454971 152.3111267  36.9453621
  78.5341797 151.5304718  37.9112549  79.6076813 151.6532135  37.7675858
  78.3850403 152.1409760  38.8018379  78.2649765 150.4912567  38.1001167
  78.9680023 149.0424805  34.1333542  79.1672287 147.8415375  34.4852333
  78.4042892 149.2768707  32.9422035  78.3430557 150.2219086  32.5911026
  77.6778488 148.2298889  32.1469307  77.5457611 147.2801361  32.6652374
  76.2233734 148.6962738  31.9255619  75.6161728 147.8122406  31.7308884
  75.8818054 149.1763763  32.8425865  76.2104721 149.9045410  30.6136589
  74.9592438 150.3016815  30.8618603  78.3877945 147.7883148  30.8488903
  78.0083694 146.7312469  30.3576088  79.4297638 148.4825134  30.3764572
  79.6856842 149.2907410  30.9254265  80.1819000 148.1366577  29.1330395
  81.1900940 148.5468140  29.1915493  80.2311249 147.0480347  29.1085358
  79.5127106 148.4429932  27.7817669  80.0861206 148.1084900  26.7558784
  78.3843765 149.1393738  27.7950821  77.9638290 149.4091644  28.6728363
  77.7294235 149.6479034  26.5025196  77.6588821 148.8383026  25.7761211
  76.3236313 150.2335815  26.7401962  75.7152863 149.4841614  27.2465630
  76.3659363 151.1357117  27.3504810  75.6155853 150.4444580  25.4142494
  75.1753311 149.4758606  24.8203316  75.4233704 151.6514587  25.0254669
  74.9972610 151.7176208  24.1121445  75.9566193 152.4133301  25.4195690
  78.6020432 150.6413574  25.8186741  79.2159042 151.5101013  26.4424019
  78.6746750 150.4996796  24.5021019  78.3059769 149.6582336  24.0824146
  79.3858871 151.4905853  23.6723061  80.4018784 151.5568085  24.0615082
  79.5179825 150.9970398  22.2160358  80.0668030 150.0552979  22.2109928
  78.4813156 150.8805389  21.9000492  80.1223373 151.9256592  21.2003841
  79.7043304 152.3478699  19.9250641  80.6970139 153.0944061  19.4487209
  80.6341400 153.6528473  18.5264435  81.7694778 153.0818329  20.2518768
  82.6337433 153.5849304  20.1102600  81.4645538 152.3384094  21.3499870
  82.1566849 152.1476288  22.1568069  78.6987915 152.9024658  23.7335205
  77.4693985 152.9733887  23.6986065  79.4698868 153.9513092  24.0187340
  80.4702759 153.8167877  23.9837837  78.9656677 155.3222961  24.2900620
  77.8880005 155.1931610  24.1897678  79.1569901 155.7187195  25.7400703
  80.1785202 155.4605103  26.0191879  79.0612564 156.7870483  25.9340591
  78.3674469 154.9157562  26.7527714  78.7314758 153.8961792  26.8794556
  78.4383621 155.3366852  27.7557106  76.5404434 154.7730255  26.5202847
  75.9155273 156.5063019  26.4491615  75.8811264 156.9562988  25.4569836
  74.8736801 156.5319061  26.7685299  76.5463257 157.1429901  27.0694962
  79.4109344 156.4001617  23.2838230  79.1190491 157.5630493  23.4960194
  80.0615768 156.0379181  22.2117023  80.2043533 155.0464020  22.0827522
  80.7641449 156.8069763  21.1982346  80.6428680 156.3143768  20.2334824
  80.3551483 157.8171539  21.1790676  82.2226257 156.8576660  21.5421238
  82.8286057 155.8011017  21.7058144  82.8680038 158.0488281  21.4200592
  82.2296982 158.8239594  21.3112164  84.3847733 158.1484528  21.2866440
  84.8471451 157.2512054  21.6980610  84.8301849 158.1743011  19.8686523
  84.4442902 159.0805511  19.4018612  85.9171371 158.2516479  19.8429756
  84.5178223 157.0674591  18.9990044  85.3810501 155.9912720  18.8216095
  86.3577271 155.8277740  19.2526188  84.8300552 155.0310364  18.0351849
  85.3599472 154.2342987  17.7119064  83.4606857 155.3416138  17.8491287
  82.4273453 154.7425385  17.1621552  82.5875702 153.7225342  16.8453960
  81.1986618 155.4264679  16.9946594  80.4035873 155.0112305  16.3931389
  80.9930038 156.7183075  17.5405540  80.0484467 157.1699982  17.2756042
  82.0447235 157.3865662  18.2215252  81.9665298 158.3916321  18.6089973
  83.2860031 156.7145081  18.3278980  84.8594818 159.4053955  22.0187759
  84.2236862 160.4762878  21.9663067  86.0621567 159.3486786  22.5760632
  86.6662521 158.5392761  22.5725689  86.8199539 160.5443420  23.0966187
  86.1880188 161.3868866  23.3774376  87.6168365 160.0871582  24.3601875
  87.0539627 159.6143188  25.1649742  88.2596588 159.2856293  23.9962749
  88.3747559 161.2633667  25.0454636  88.9062729 161.8013153  24.2604790
  87.6462784 161.9020233  25.5449905  89.3401031 160.8345947  26.2228756
  88.7904434 160.2664948  26.9733658  90.0494461 160.1692047  25.7307396
  89.9154892 162.0743713  26.9470558  90.4776077 162.7250366  26.2771530
  89.0359116 162.6758118  27.1766243  90.7085037 161.7387238  28.1764412
  91.3678665 161.0052643  27.9587975  91.3279343 162.4420166  28.5529957
  90.0478210 161.5328522  28.9121132  87.7809372 160.9855499  21.9793262
  88.2414551 160.1327209  21.2146797  88.0786743 162.2872620  21.9869709
  87.6027069 162.9670563  22.5626659  88.7996521 163.0124512  20.9560280
  89.2528992 162.2597809  20.3109093  87.7730713 163.7936554  20.1727943
  87.1496124 164.4305878  20.8002548  88.3533783 164.4272766  19.5020733
  86.8819122 162.9023895  19.3211212  87.2758560 162.6110992  17.9968605
  88.1949081 162.9593658  17.5491447  86.3938828 161.9115601  17.1670933
  86.6444702 161.8224792  16.1203499  85.0914612 161.4591827  17.5659294
  84.4025040 160.9420929  16.9145069  84.7190323 161.6951294  18.9111366
  83.7811127 161.3088989  19.2820034  85.5950928 162.4365234  19.7567101
  85.2016296 162.6769409  20.7333298  89.9108276 163.8853912  21.4811630
  89.6502380 164.9453430  22.0248280  91.1370544 163.4192200  21.3415375
  91.3252106 162.5744781  20.8208656  92.3476410 164.1887512  21.6881409
  91.9409714 164.9577179  22.3449554  93.3888016 163.4174500  22.5188618
  94.2919083 164.0148773  22.6436462  92.8686905 162.9638977  23.8651409
  91.9328613 162.4281616  23.7060375  93.6388931 162.3478394  24.3291912
  92.5793076 163.8734283  24.3915730  93.7218475 162.2028656  21.8556385
  94.3823395 162.3921051  21.1851616  92.9126205 164.7624664  20.3744316
  93.1431122 164.0473938  19.4043427  93.2529907 166.0178986  20.4478912
  93.2803726 166.5292664  21.3184414  93.8802261 166.7354889  19.3313961
  93.2028427 166.6661835  18.4802532  93.9871597 168.2182159  19.7417259
  94.6372986 168.2764587  20.6146736  94.3687439 168.6801453  18.8311672
  93.0469284 168.7534943  19.8741627  95.2808762 166.2229919  18.9852772
  96.0746384 165.8545990  19.8509808  95.6710358 166.2825623  17.6530457
  94.9751282 166.5519714  16.9724388  96.9906921 165.7995300  17.2036915
  97.2644501 164.9918060  17.8824768  96.8537292 165.1465149  15.7638311
  97.8215332 164.7840118  15.4173374  95.8952179 163.9828339  15.7418680
  94.8528137 164.2996063  15.7080240  95.9070816 163.4064484  14.8168020
  96.0655899 163.3664093  16.6245346  96.4791107 166.2005920  14.8471632
  95.5414200 166.2768250  15.0382614  98.2032776 166.7673492  17.3063622
  99.3191605 166.3639679  17.6497383  97.9956512 168.0627136  16.9694366
  97.0856247 168.3549805  16.6430492  99.1062927 169.1200104  16.9779129
 100.0587997 168.6260986  17.1699467  99.0718307 169.8374176  15.6449728
  98.0310822 170.0122681  15.3722525  99.6278458 170.7749329  15.6452684
  99.6808243 169.0266266  14.5319672 100.7476273 169.0244751  14.7556267
  99.3845673 167.9804230  14.6082163  99.3519897 169.5425873  13.0845394
  99.5938568 170.6047668  13.0476885 100.0549469 168.9120178  12.5401688
  97.8802948 169.1815338  12.7328701  97.7974243 168.0972290  12.6586390
  97.2371216 169.5120850  13.5484428  97.3963089 169.7786102  11.4914265
  97.9230118 169.3262329  10.7579107  96.4417191 169.5184631  11.2884760
  97.4810638 170.7848053  11.5130472  98.9401474 170.0529938  18.1706600
  97.7930374 170.2292175  18.6294250 100.0572510 170.5840912  18.7229767
 100.9296494 170.4313049  18.2375240 100.1671371 171.2930145  20.0320377
  99.8009491 170.6555634  20.8368073 101.6847687 171.4639893  20.2991810
 101.8780746 171.5112000  21.3708630 102.2856750 170.6084137  19.9909496
 102.3769913 172.6213531  19.5932426 102.5095367 172.4095154  18.5322723
 101.8782578 173.5479889  19.8773670 103.8227997 172.7741699  20.0712090
 103.8782883 173.0806885  21.1157532 104.3918762 171.8585052  19.9105320
 104.4882278 173.8590393  19.2948666 104.0181274 174.8216400  19.4961414
 105.5132980 174.0312042  19.6230145 104.6134033 173.6316528  17.8143024
 103.6639099 173.6531830  17.4706516 105.1430664 174.2833252  17.2531567
 104.9615021 172.7019043  17.6285686  99.3701782 172.6021271  20.2022209
  99.4216614 173.1308899  21.3021832  98.7852859 173.1608887  19.1432743
  98.6865616 172.5622559  18.3358021  98.2565384 174.5317688  19.0581036
  98.5516205 174.9759521  20.0087509  98.9895096 175.3485718  17.9377708
  98.5312500 176.3375397  17.9324608 100.0057678 175.4553680  18.3171425
  99.0660934 174.7946014  16.5296841  98.5815506 173.6893005  16.1894245
  99.6040192 175.5176086  15.6296864  96.7483521 174.5828857  18.9375286
  96.1970139 175.7150269  18.9392014  96.0059357 173.4908447  18.7072544
  96.3933029 172.5726776  18.5429173  94.5649185 173.4698029  18.6912422
  94.2582169 174.2571411  18.0026684  93.9971695 172.1153717  18.1380901
  94.0284653 171.2985535  18.8591385  92.9462738 172.2665863  17.8913898
  94.8063126 171.6919403  16.8786697  94.8223495 172.4518433  16.0973949
  95.8388519 171.5260315  17.1859722  94.2902145 170.1348877  16.0912628
  92.8546143 170.6417999  15.0095663  93.2045059 171.2624512  14.1846685
  92.5145798 169.7579346  14.4698687  92.0255127 171.1029663  15.5462275
  93.9231339 173.7236328  20.0585976  94.5244064 173.4034882  21.0837269
  92.7236176 174.3044891  19.9842339  92.3871155 174.6475220  19.0958652
  91.7899704 174.4254150  21.1518631  92.1046448 173.6963348  21.8985329
  91.8982620 175.9274292  21.5815105  92.9551773 176.1915283  21.6173420
  91.4853058 176.5619965  20.7973576  91.2195892 176.1594238  22.8139687
  91.5303192 175.5682678  23.5035973  90.3906860 174.1685333  20.6094933
  90.0906982 174.7622986  19.5880013  89.4963837 173.4018250  21.2492027
  88.0971909 173.1574860  20.9267273  87.9466476 172.8825836  19.8827591
  87.6028671 174.1119995  21.1074677  87.5662155 172.0311584  21.8611336
  87.8634949 171.0645294  21.4544716  86.4865570 172.1140594  21.9859085
  88.4463348 172.1947784  23.1094036  88.6474380 171.2476501  23.6100368
  88.0189667 172.8726044  23.8483315  89.7479858 172.8477173  22.5741158
  90.2467728 173.5281830  23.2642479  90.7965851 171.7192078  22.4777584
  90.8833694 171.1083679  21.3869972  91.6731949 171.5185852  23.4310799
  91.5759354 172.2220154  24.1492901  92.6772232 170.3449402  23.3989487
  93.2284851 170.5719147  22.4864273  93.5559540 170.5112915  24.6557159
  94.1576080 171.4174500  24.5852318  92.8790131 170.6932678  25.4904194
  94.5131302 169.3181458  24.9111729  94.9571686 169.6222687  25.8590355
  94.0097275 168.3514862  24.9271717  95.6832809 169.2524261  23.8622360
  95.9019699 170.1162567  23.0019474  96.4770279 168.2242126  23.8856640
  97.1893005 168.2027588  23.1698990  96.3742523 167.5044708  24.5867405
  91.9940796 168.9515076  23.3132133  92.5469742 168.0475769  22.6689911
  90.8758850 168.7738037  24.0577927  90.4502716 169.6224670  24.4023819
  90.0762787 167.5212402  24.1307640  90.3460312 166.8699646  23.2993946
  90.4682465 166.8148041  25.4682503  89.8183365 165.9485474  25.5920734
  91.4680023 166.4050140  25.3244934  90.2257004 167.8190613  26.5946274
  90.4059677 168.8744049  26.3899975  89.2009430 167.6844940  26.9408417
  91.1198654 167.3732605  27.8216820  90.5837784 167.7272644  28.7022514
  91.1464005 166.2838440  27.7977772  92.5174713 167.8682098  27.7065239
  92.9928055 167.4630432  26.8132133  92.4204254 168.9509430  27.6267357
  93.4936218 167.5187683  28.7381878  93.5894699 166.5194702  28.8491974
  94.4320221 167.7059784  28.4149990  93.3259811 168.0132141  29.6027775
  88.5446396 167.7842102  24.0262375  88.0409088 168.8353577  24.4115982
  87.7816010 166.7875671  23.5629482  88.2813644 165.9361725  23.3497047
  86.3140564 166.6669159  23.6598454  85.9908218 166.8958588  24.6753254
  85.6263885 167.5619812  22.6022377  84.5998611 167.7040100  22.9401455
  86.0735092 168.5395813  22.7824707  85.6774902 167.0444031  21.1830921
  86.7294312 167.3393707  20.3314743  87.4322662 168.0287781  20.7754688
  86.7882462 166.8740997  18.9736900  87.5094070 167.1534576  18.2198372
  85.7315445 166.0255127  18.5115776  85.7788239 165.6690979  17.4931793
  84.6384964 165.7826385  19.3457069  83.8122559 165.1862640  18.9878368
  84.6327744 166.2720795  20.6627483  83.7385101 166.0423431  21.2230186
  85.8361511 165.1582031  23.6694355  86.5809021 164.2183685  23.5233917
  84.5546570 164.9344635  23.6421280  83.9641113 165.7233124  23.8636360
  83.9139404 163.7047729  23.6516819  84.6441803 163.0111694  23.2348309
  83.3868942 163.3310242  25.0448093  82.6932831 164.1168671  25.3438816
  82.8533325 162.3835297  24.9694748  84.4405823 163.1671906  26.1387367
  84.9923935 164.1046295  26.9438705  84.6633377 165.1302490  27.0228615
  85.8073807 163.5963135  27.8883629  86.3171158 164.2181244  28.4996128
  85.8787842 162.2197876  27.8127670  86.2900848 161.2270813  28.6711330
  86.6938477 161.5129852  29.6311531  86.0631943 159.8550110  28.3125973
  86.3820267 159.1123505  29.0289650  85.4352417 159.5564117  27.1165199
  85.2263489 158.5409851  26.8137417  84.9107666 160.5680542  26.2908421
  84.3353500 160.2835083  25.4223194  85.1583099 161.9820251  26.6330605
  82.7849808 163.8655090  22.6116772  81.9848862 164.8036652  22.7421951
  82.7686310 162.9805603  21.6335011  83.3574524 162.1703491  21.7636108
  81.7387390 162.8104248  20.6254425  81.0469894 163.6520691  20.6604939
  82.0859299 162.7113190  19.5969810  80.9008942 161.5368652  20.9819641
  81.1957092 160.3922272  20.7460117  79.9079437 161.7348175  21.8504829
  79.6092224 162.6944275  21.9505730  79.0717545 160.6593170  22.4752750
  79.7123184 159.7900543  22.6242065  78.6031113 161.1436615  23.8245888
  77.8021622 161.8748932  23.7156429  78.1772308 160.2720947  24.3216877
  79.6954880 161.7584229  24.7557354  80.1459198 162.6059875  24.2391777
  79.1314316 162.2262268  26.0800438  78.8254471 161.4047089  26.7278118
  79.9267044 162.7584229  26.6019573  78.2890091 162.8844299  25.8674908
  80.7555313 160.7071533  25.0969486  81.2454376 160.2678528  24.2279778
  81.4518738 161.0042877  25.8811150  80.2241135 159.8982697  25.5983582
  77.8455276 160.3031311  21.5836525  77.2333984 161.2743073  21.1324940
  77.4120483 159.0552063  21.4968796  77.9604492 158.3454285  21.9611702
  76.3158722 158.6445923  20.5736065  76.3900833 159.2731323  19.6861725
  76.4170456 157.1992188  20.1148243  75.4166336 156.9534607  19.7586269
  77.3489685 156.9553375  18.9203758  78.3131943 157.3873596  19.1881981
  77.5655518 155.9147644  18.6786957  76.9559097 157.4514465  18.0329742
  76.8702316 156.3473206  21.1804409  76.1709290 156.3522491  21.8381290
  74.8962631 158.8083038  21.1813221  74.5749969 158.2527008  22.2471046
  73.9887543 159.5914612  20.5116577  74.3106689 159.9806519  19.6370125
  72.7125168 160.0651093  21.0644341  72.8770981 160.2246704  22.1300583
  72.3102722 161.4278717  20.5219841  71.4569626 161.7703705  21.1073532
  73.1611710 162.0630341  20.7682247  71.8310165 161.4054260  19.0407181
  72.4938278 161.9931793  18.4056377  71.7731400 160.3928528  18.6414032
  70.4789886 162.0380249  18.8105888  70.4554672 163.0056915  19.3117390
  70.3410034 162.1329956  17.7335358  69.4056702 161.1737213  19.4675102
  69.0790329 161.3811646  20.4004478  68.6307144 160.2348328  18.8025417
  68.6514511 159.8545837  17.5530605  69.1016159 160.3971863  16.8298454
  68.0421982 159.1245117  17.2126179  67.6881332 159.7021332  19.4737988
  67.3977127 160.0602875  20.3724003  67.0413055 159.1428680  18.9362621
  71.5521698 159.0051727  21.1790180  70.5600891 159.2102661  21.8467464
  71.6493073 157.9395905  20.3780556  72.4389877 157.8921967  19.7501602
  70.7499313 156.7843628  20.4989128  69.7259903 157.1281433  20.3524551
  71.0379868 155.7822113  19.4046803  70.5055542 154.8311615  19.4150429
  70.8414230 156.2285919  18.4298973  72.4493408 155.4215088  19.3109226
  72.4792404 154.9264526  18.4889565  70.9099503 156.0670776  21.8937988
  69.9656601 155.6841736  22.5608234  72.1696243 156.1043091  22.3838577
  72.9160690 156.3965149  21.7694092  72.5744324 155.3743134  23.5896225
  71.9895248 154.4564514  23.6490154  74.0208359 155.0510864  23.5051441
  74.5846176 155.9808960  23.4294586  74.3356781 154.4838715  24.3810692
  74.3385925 154.5360718  22.5985699  72.2823029 156.1914368  24.8432465
  72.3416367 155.6618500  25.9218597  72.1233597 157.5008698  24.6771011
  72.0433350 157.8869629  23.7472477  71.8222427 158.4465485  25.7316780
  72.2997513 158.0224304  26.6149769  72.5936127 159.8521423  25.4289646
  72.2557907 160.2422333  24.4688530  72.2324142 160.5060120  26.2227535
  74.1599426 159.9045105  25.4469166  74.6272888 159.0285645  24.9970055
  74.5303497 161.1566620  24.5721722  74.1660004 162.1363220  24.8813648
  75.6006546 161.3376160  24.6712437  74.3688889 161.0071564  23.5046158
  74.7322845 160.0392761  26.8319340  74.5084610 159.1535645  27.4264984
  75.8182449 160.1143494  26.7756176  74.2896042 160.8749847  27.3739071
  70.3620377 158.6091766  26.1647110  69.4143829 158.1489868  25.5507908
  70.1846313 159.1596832  27.3804264  70.9638672 159.4794769  27.9377728
  68.8518906 159.2391968  28.0181065  68.0748672 159.3675690  27.2645340
  68.6381302 157.8969116  28.7624435  68.5842209 157.0701294  28.0541916
  69.5158310 157.7718353  29.3965530  67.4333801 157.8043060  29.6488285
  67.6096573 158.4566498  30.5040874  66.0909119 158.1950989  28.9812412
  65.8521576 157.6530609  28.0662117  65.2787628 158.1144104  29.7037296
  66.1685181 159.2462158  28.7033386  67.2604065 156.3832245  30.2408772
  68.1580963 156.1671448  30.8201694  66.4097595 156.3819733  30.9224186
  66.9922333 155.6262360  29.5038795  68.6834869 160.4902802  28.9387646
  69.2829132 160.5390320  30.0162010  67.8119431 161.4936829  28.6132889
  67.2830353 161.7410278  27.2773533  66.2176132 161.5118103  27.2563286
  67.7878189 161.2450104  26.4483414  67.5053635 163.2143097  27.0639648
  66.9313049 163.5981598  26.2206326  68.5718765 163.3415527  26.8783226
  67.1214371 163.7964020  28.4462337  66.0319443 163.7644196  28.4559498
  67.5770264 164.7302246  28.7756271  67.6403427 162.7301941  29.3933182
  68.5819702 163.1247711  29.7750912  66.7252808 162.4678802  30.6108437
  65.7937469 163.1464996  30.8904190  67.1926575 161.6145325  31.5427876
  68.0734253 161.1592865  31.3501720  66.6670074 161.3677216  32.9079933
  65.5816116 161.2726746  32.9390869  67.3452377 160.0223236  33.3721008
  66.9736710 159.2434235  32.7062569  68.4239349 160.1709595  33.3229675
  67.0267334 159.7446899  34.9071617  67.4469376 160.5901642  35.4518852
  65.9577942 159.8331299  35.1012383  67.6297760 158.4670105  35.3912697
  68.6141739 158.3550568  34.9368286  67.7809982 158.6027985  36.4621544
  66.7296600 157.3282166  35.1449280  66.3083191 157.3226166  34.2270279
  66.4743652 156.4004974  36.0387840  66.7645493 156.4368896  37.2883263
  67.0649109 157.3314209  37.6484604  66.4276810 155.7545929  37.9524879
  65.8590317 155.3556976  35.6619949  65.5298157 155.2929535  34.7092171
  65.5167847 154.7248993  36.3726692  66.9781036 162.4874573  33.8661156
  66.0313263 162.9113770  34.5355339  68.1586456 162.9534912  33.9092102
  84.6742325 149.2696838  18.1828308  83.5992737 149.9974365  17.5501976
  84.4510880 148.5103302  16.9206581  82.8623428 150.3055267  16.5583229
  84.0076065 148.3653412  15.7404099  83.0002213 149.4475098  15.2474718
  81.6791077 148.9831696  14.7621136  83.2598343 150.2302094  13.8204165
  82.1025620 149.6730347  13.8098946  83.7619171 151.4350586  13.9101038
  85.2144852 151.7793274  13.8985977  82.8714066 152.6199951  14.1495180
  85.1717834 153.0398712  14.1575794  83.7258911 153.5702667  14.3454847
  84.9008636 154.3625183  14.6164312  85.0360870 155.6978455  14.3251038
  85.4166946 156.2804871  13.0045815  84.9165115 156.6927795  15.1317062
  85.5095139 155.6148071  11.9812698  85.5182343 157.7635651  12.9018860
  85.0066681 157.8854523  15.0224676  85.3206635 158.8180084  13.8925638
  85.4936142 160.0106201  13.8313942  85.8388138 158.0442657  11.9826403
  83.6108322 148.4418182  18.3882751  81.4813843 147.0299377  22.9367104
  82.0512466 146.8463135  21.3352833  82.5553741 147.9129028  20.6359253
  82.2578125 145.6841278  20.6978951  82.6154785 149.1482544  21.0846100
  82.9940109 147.5612488  19.3826160  82.5385056 145.2086182  19.6650448
  82.8842010 146.1543427  18.9730206
