Cpptraj Generated Restart                                                       
   32  4.0000001E-01
  84.8535461 153.8990021  13.1924906  83.9957275 153.0240631  13.8161163
  85.9049225 153.4955902  12.4018135  84.2579269 151.6486511  13.6020422
  85.8940125 152.1658630  12.4191809  85.3866653 151.1627502  12.7759047
  84.7123108 156.0918274  11.1236305  84.7858124 156.3790436  12.3197289
  84.7824783 155.3074799  13.3750143  84.9481430 157.7740479  12.7662249
  84.8635712 155.9059143  14.5274811  84.9280930 158.2746277  14.1838531
  84.9053040 156.9987335  14.9536915  85.1359100 159.4350739  14.5791874
  85.1837997 158.4347534  12.0351152  83.0081329 153.4130096  14.6648178
  81.7698441 153.1658783  14.3506823  86.8275681 154.2457886  11.6656847
  87.7010193 153.6707916  10.9451065  83.4670792 150.6315308  14.1538258
  83.4191666 149.7525177  15.1535492  83.1269150 150.2631836  16.5707111
  82.2391281 149.6179047  14.5422592  81.8521576 150.1838989  17.0803471
  81.0644608 149.5353699  14.5020914  80.4586563 150.3639221  16.9479046
  80.7437820 149.8290863  15.6665735  80.1447983 151.3282623  17.0524292
  84.0892792 150.8347321  17.4449921  85.2443771 150.7963257  17.1350842
  83.8693314 151.2427979  18.7390900  82.9414291 151.0933380  18.9889011
