Cpptraj Generated Restart                                                       
   35  4.0000001E-01
  84.9219589 154.4860687  14.2469797  84.9321136 153.4734497  15.2879400
  84.1282349 153.3152008  14.0129080  84.5272446 152.1175690  15.9872074
  83.4580078 152.2183990  13.9866705  83.6260071 151.3662720  15.1910458
  84.6908722 151.4721527  17.1640434  83.2731018 150.2826080  15.8656406
  84.5494843 150.2147369  16.4537067  83.6410522 151.4193420  18.0445576
  82.5043640 150.4162598  17.0508633  85.4290161 149.1021576  16.2392998
  82.2359161 151.3481293  18.0490303  85.1663284 148.1495819  15.4595432
  85.6510925 156.0264893  11.9377718  85.2668228 156.6074219  12.9418726
  84.7013550 155.8618317  14.0327082  85.5687790 158.0596924  13.0490761
  84.5320435 156.8189392  14.9430475  85.3543701 158.9067078  14.2554626
  84.7358093 157.9365845  15.1621981  85.4081345 160.0916443  14.2592726
  85.8428345 158.5444336  12.2026176  86.6572723 149.4448547  16.6424465
  87.6995926 148.3946075  16.8313580  88.0799255 147.8293304  15.5303640
  88.8259277 149.0322876  17.5623417  87.2914047 147.3252411  17.8301849
  82.7689285 150.2116394  18.6248760  82.5364532 149.3019714  19.7276573
  81.2318192 149.0113831  20.2099667  83.4982452 148.5448456  20.4041023
  80.9938431 148.2096710  21.1076012  83.1653671 147.7199402  21.3034382
  81.9665375 147.6078033  21.6344738
