Cpptraj Generated Restart                                                       
 6220  4.0000001E-01
  90.4419556 180.2858734  24.6400471  91.4178543 180.2273102  24.3864517
  90.3261795 179.3510284  25.0044060  90.2554016 180.9023895  25.4179916
  89.5953217 180.5876160  23.4098911  88.5935898 180.4507294  23.8171902
  89.7464294 182.0835571  22.9306908  90.7188644 182.1665344  22.4453163
  89.0877609 182.3677826  22.1100407  89.5688095 183.2034149  23.9936619
  88.6688766 182.9590149  24.5580158  90.4529037 183.0388184  24.6096134
  89.5296173 184.9815674  23.5974388  87.7210999 185.0618591  23.2025452
  87.2873611 184.9110260  24.1910934  87.4197540 186.0782318  22.9490051
  87.3754425 184.3617249  22.4419975  89.6745911 179.4642792  22.3558388
  90.7124481 178.8084869  22.1338806  88.5387039 179.0008087  21.7910233
  87.7377319 179.5506439  22.0671062  88.4312057 177.9676666  20.6867313
  89.0056839 177.0971832  21.0035057  86.9653320 177.5345154  20.5459023
  86.3281250 178.4174957  20.4970398  86.8555374 176.6957397  19.3100491
  87.3974762 175.7725983  19.5155621  85.8134689 176.4096832  19.1673489
  87.2611237 177.2229919  18.4465656  86.4318848 176.6858215  21.7469902
  85.4427490 176.3288727  21.4601135  86.9864426 175.7478790  21.7757778
  86.3095398 177.3923035  23.1000977  85.6169510 178.2337189  23.0795174
  86.0278015 176.5675049  23.7546425  87.2909927 177.7676849  23.3898239
  89.0887833 178.5487671  19.4274578  89.0813751 179.7299042  19.1487961
  89.7325287 177.7607117  18.6119137  89.9897842 176.8681335  19.0084496
  90.3733139 178.1841125  17.3387318  89.9593658 179.1293335  16.9875984
  91.8760605 178.4889374  17.5252476  92.2427750 178.7513428  16.5328922
  91.9009933 179.3295593  18.2186832  92.7441254 177.2756653  17.9885998
  92.6581650 176.1153412  17.5508404  93.5370407 177.4924011  18.9749260
  94.2569656 176.8011780  19.1299458  93.7772903 178.3993378  19.3489056
  90.1286087 177.2133484  16.2111320  90.4345932 177.6186676  15.1220560
  89.6369324 175.9696350  16.3760071  89.6721802 175.5807953  17.3074894
  89.1812820 175.0115967  15.3559055  90.0218735 174.6732483  14.7500849
  88.5138245 173.8432922  16.0502186  89.2786026 173.2819061  16.5869293
  87.6990433 174.1612701  16.7006912  87.9281387 172.8388367  15.0556374
  88.8207626 171.8945770  14.4899197  89.8896637 171.9486847  14.6345854
  88.3512878 170.8824158  13.6251822  88.9873199 170.1693115  13.1218443
  87.0034332 170.6657104  13.4335575  86.6688004 169.8757324  12.7775326
  86.0942841 171.5896759  14.0219374  85.0362549 171.4288330  13.8766060
  86.5692291 172.6866760  14.8060770  85.9182205 173.4364471  15.2308483
  88.1568756 175.7831879  14.4423656  87.2597198 176.4372406  14.9666252
  88.2975311 175.7252197  13.1176195  89.1127853 175.2602844  12.7444067
  87.2545547 176.1204987  12.1544266  86.8599625 177.1091003  12.3890896
  87.8032837 176.2839661  10.7795391  88.6534042 176.9661407  10.7728720
  88.1044693 175.2915497  10.4441652  86.8596420 176.8628540   9.7272882
  85.7514343 177.3612213  10.1505213  87.2532425 176.9109039   8.5457926
  86.0377884 175.2049866  12.0645227  85.9906769 174.0385437  11.5332155
  84.8880844 175.7742310  12.5254240  84.8633804 176.7518768  12.7777939
  83.6126633 175.1041565  12.7781773  83.7671661 174.2254486  13.4043646
  82.6490936 176.0442047  13.5397549  81.6397476 175.6351776  13.5845642
  83.1455002 176.2196503  14.9484339  84.2031021 176.4580078  14.8354712
  82.6256027 177.0147858  15.4828262  83.0363312 175.2604065  15.4544411
  82.6930923 177.3755341  13.0689211  82.0238800 177.9651489  13.4240437
  82.8636093 174.6829529  11.5523167  81.9305191 173.9000549  11.5526352
  83.3840179 175.0254517  10.3659105  84.1914215 175.6309967  10.3269005
  82.8942490 174.4010315   9.0568104  81.8141708 174.2886200   9.1511545
  83.0982056 175.3601685   7.8450546  82.4436493 175.0167694   7.0439758
  82.8040390 176.3751526   8.1122456  84.4145050 175.2934875   7.3804092
  84.9640579 175.5921936   8.1086779  83.3970718 172.9675140   8.7490797
  82.7270432 172.1873322   8.1432209  84.5516968 172.6223602   9.3252640
  85.0638123 173.3690948   9.7727432  85.1583557 171.3090363   8.8924026
  85.2413864 171.3590393   7.8067160  86.5534515 171.2211761   9.4531107
  86.5603561 171.5126495  10.5033913  86.9442825 170.2037048   9.4648094
  87.5973740 172.2150574   8.7872906  87.3186722 173.2580566   8.9375229
  88.9307556 172.1084137   9.4751501  89.1993561 171.0605469   9.6090918
  89.7006912 172.6132355   8.8916740  88.8803787 172.5769653  10.4580126
  87.6924362 171.9927521   7.2539554  86.7471771 172.1210327   6.7265682
  88.3708267 172.7235413   6.8136735  88.0824356 170.9894104   7.0828047
  84.3387833 169.9514771   9.0723686  84.6108170 168.9256439   8.3654127
  83.4423599 169.8778687  10.0849056  83.4031906 170.6972351  11.2472038
  82.7532959 171.5481415  11.0430317  84.3985443 171.1187897  11.3873825
  82.9486389 169.8644867  12.4245253  82.4985657 170.5078430  13.1805763
  83.7607880 169.2535553  12.8185997  81.8971329 169.0519562  11.6320295
  81.0030289 169.6739807  11.5900097  81.6625519 168.0872345  12.0818901
  82.5019302 168.7877045  10.2486563  83.0051804 167.8208313  10.2492685
  81.4061966 168.7156982   9.1811581  81.1215973 167.6463470   8.6737127
  80.8418274 169.9085541   8.7946739  81.2009201 170.8043518   9.0925045
  79.5981598 170.0716400   7.9907050  78.9594421 169.2297974   8.2579937
  78.7672653 171.3573456   8.2353439  77.8640823 171.2324066   7.6380563
  78.4090881 171.3529510   9.7097263  79.3509445 171.5085907  10.2358198
  77.6842880 172.1472778   9.8881054  78.0673599 170.3404846   9.9247112
  79.4985428 172.6009216   7.9329004  79.3450470 172.7959595   7.0055385
  79.9638443 169.9449310   6.4226875  79.0877380 169.6359100   5.5910954
  81.2693710 170.1304626   6.1122069  81.8820419 170.4838562   6.8332081
  81.7884598 169.8132782   4.7652206  81.0593948 170.2682495   4.0947185
  83.1676178 170.3921661   4.5849094  83.4142761 170.2347260   3.5349216
  83.0746765 171.4655304   4.7502260  84.1013947 169.7348328   5.4200296
  84.9735184 170.1064606   5.2687054  81.8043289 168.2999878   4.5414252
  81.6267624 167.8550873   3.4096012  81.8594894 167.4012299   5.5851903
  81.8199463 167.8606567   6.4837799  81.9685287 165.9456024   5.6353464
  82.1289597 165.6468658   6.6712575  80.6153946 165.2606659   5.3497553
  80.3967056 165.5193939   4.3137350  80.8775635 164.2031860   5.3829675
  79.4678574 165.5754547   6.2809529  79.1982346 164.8612518   7.4804430
  78.0567169 165.4192963   7.9520226  77.5075226 164.9336395   8.7450733
  77.6350555 166.4678345   7.2130332  76.7551041 166.9372559   7.3724999
  78.5407791 166.5691986   6.1552949  78.5037079 167.2911072   5.3528852
  83.1878204 165.3110352   4.8825111  83.0634689 164.2607117   4.2407770
  84.3487091 165.9228821   4.9401431  84.3526840 166.7489014   5.5213270
  85.5599136 165.5316315   4.1504750  85.4365387 165.8282166   3.1088808
  86.7499161 166.3629608   4.6740756  86.7534409 166.3570557   5.7640543
  87.6994095 165.9570770   4.3250484  86.7310715 167.8377838   4.2119484
  86.5788269 167.8675385   3.1330433  85.8467407 168.2002716   4.7360287
  88.1153793 168.8158875   4.8800378  89.5690384 168.3600159   3.8437126
  89.3744583 168.4572601   2.7756376  90.4455566 168.9563446   4.0971012
  89.7605438 167.3115234   4.0718870  85.9976349 164.0761261   4.3330159
  86.6068954 163.4956360   3.3967593  85.7502670 163.4187012   5.4508710
  85.2942963 163.9309235   6.1923718  86.0609512 162.0124207   5.7226615
  87.1457748 161.9839783   5.6204753  85.6174088 161.6385345   7.1953869
  85.9604568 160.6413727   7.4712224  86.0305557 162.3448486   7.9154716
  84.0863342 161.6306763   7.3446269  83.4741058 162.8688965   7.7279334
  84.0716171 163.7607117   7.8464546  82.0993271 162.9720612   7.9931026
  81.7174225 163.9057159   8.3789034  81.2594681 161.8899536   7.7314053
  79.9681854 161.8916168   7.9349756  79.6638107 162.7976685   8.0245066
  81.8494644 160.6400757   7.2659702  81.2261429 159.7679901   7.1342816
  83.2825928 160.4902802   7.1115408  83.7234879 159.5471954   6.8241224
  85.4214325 161.0582275   4.7458620  86.0371323 160.0020752   4.3382907
  84.2134476 161.4498901   4.2673850  83.7797165 162.2857056   4.6326337
  83.3694916 160.6533966   3.3508191  83.3700180 159.5944977   3.6093042
  81.9822464 161.1433563   3.4711378  81.7003174 161.0850677   4.5224328
  82.0314713 162.2165985   3.2871683  80.9794540 160.3768311   2.5545278
  81.4966965 159.8657684   1.7425184  80.2177200 159.3731842   3.3908141
  79.6187134 159.8561707   4.1628299  79.4203262 158.9428253   2.7849686
  80.9427414 158.6549835   3.7737331  79.9368286 161.3185730   1.9788386
  80.4231491 162.1228027   1.4267328  79.3232956 160.8290710   1.2224836
  79.3721924 161.7952118   2.7801459  83.9521866 160.8042145   1.9546846
  84.3891449 159.7708740   1.3625787  84.2261429 161.9770966   1.5539398
  84.0243301 162.7941589   2.1123092  85.1832581 162.1860809   0.4731413
  86.1883316 162.0215149   0.8615155  84.9890518 161.4420166  -0.2993632
  85.2046967 163.6055756  -0.0928107  84.1767502 164.3275757  -0.1364446
  86.3803406 164.0890656  -0.4636589  87.1577835 163.4571991  -0.3354560
  86.4304199 165.3011780  -1.3155322  85.6939240 165.9836273  -0.8913609
  87.8739395 165.8249359  -1.1660893  87.8122940 166.8537292  -1.5209225
  88.2594070 165.8450775  -0.1467234  88.8517685 165.1849518  -1.9342015
  89.7260742 165.3129578  -1.5589557  86.0599442 164.9875488  -2.8055775
  85.9656525 163.8051300  -3.2141116  85.9686737 166.0164642  -3.6257074
  85.9634476 166.9310455  -3.1972158  85.7326279 165.8667908  -5.0870247
  85.4129944 166.8044128  -5.5417814  87.1198883 165.3766327  -5.7469821
  87.8352051 166.1792145  -5.5672989  87.4244919 164.5276337  -5.1350045
  87.1264496 164.9952087  -7.2580514  86.7465439 165.8259125  -8.0893393
  87.5662155 163.8763733  -7.6130056  84.5234985 164.9323578  -5.4306335
  84.6722946 163.8858185  -6.0847554  83.3173523 165.3654327  -5.0439181
  83.2798538 166.2235718  -4.5126243  82.0571594 164.7735901  -5.4245973
  82.2666779 163.7902985  -5.8457236  81.1748657 164.6557007  -4.1794076
  80.9354401 165.6488647  -3.7994249  80.2722855 164.1704712  -4.5508871
  81.9000244 163.8444672  -3.0767341  82.2574921 162.9291229  -3.5483944
  82.7526932 164.4291077  -2.7314003  81.0530701 163.5054626  -1.5626904
  79.7415314 162.3599243  -2.0176265  80.0398941 161.7671356  -2.8823185
  79.4151535 161.7452240  -1.1787404  78.9071503 163.0142975  -2.2699840
  81.3613892 165.5511780  -6.5854812  81.4992371 166.7858429  -6.6638951
  80.5195541 164.8397064  -7.4222984  80.2374573 163.8947754  -7.2040510
  79.6193771 165.4419861  -8.3609543  80.0750732 166.2429504  -8.9431114
  79.0991669 164.3338165  -9.3179379  79.8156815 163.5268250  -9.4711637
  78.2174530 163.8585052  -8.8881235  78.7820206 164.8477783 -10.7362652
  78.1172562 165.7104034 -10.6907043  79.7179947 165.2131653 -11.1588135
  78.1499023 163.7170105 -11.6068773  78.8201675 162.6908112 -11.8194141
  77.0919266 163.9293518 -12.2371883  78.4580688 166.1188812  -7.5326319
  77.7806091 165.4785767  -6.6848583  78.1852722 167.4340210  -7.7666459
  78.5975571 167.8599701  -8.5843754  77.2248611 168.2897034  -7.1435852
  76.8813477 167.8473969  -6.2084527  77.9160767 169.6047363  -6.7406573
  78.6112823 169.9540100  -7.5040674  77.1687546 170.3318024  -6.4228926
  78.8225098 169.3513336  -5.4404054  78.1772842 169.1645203  -4.5819836
  79.4401474 168.4737701  -5.6314278  79.7123871 170.5926514  -5.1063213
  79.5084000 171.7654114  -5.5909796  80.7236938 170.3693848  -4.4516368
  76.0060425 168.6620178  -8.0238991  76.0850983 168.9115753  -9.2183485
  74.8281784 168.7539520  -7.4020844  74.8940353 168.4838562  -6.4310980
  73.4868851 169.1176605  -7.8571768  73.5653915 169.3047333  -8.9281349
  72.4579315 168.0021057  -7.6542268  72.4705963 167.7465973  -6.5946741
  71.4512863 168.2615662  -7.9820237  72.8337784 166.7493286  -8.4142303
  72.4830856 166.6174316  -9.7936211  71.9721375 167.4147491 -10.3128529
  72.6189499 165.4279022 -10.4614382  72.2712860 165.4132538 -11.4838438
  73.3314056 164.3580780  -9.7762651  73.4339752 163.3643646 -10.1866531
  73.7304916 164.5536804  -8.4202881  74.0777664 163.7241974  -7.8221622
  73.4715729 165.7194672  -7.7495418  73.6314926 165.7419281  -6.6816831
  73.0667191 170.4376068  -7.2525086  73.3797607 170.7777710  -6.1110868
  72.3179626 171.1569366  -8.0579023  72.1881714 170.8285522  -9.0041752
  71.7407227 172.5203400  -7.7886071  71.9730835 172.8579712  -6.7785974
  72.4015808 173.4261780  -8.8175812  72.2042160 174.4315948  -8.4457321
  73.4850464 173.3457642  -8.7296419  72.0024261 173.2430115 -10.2897491
  72.3477936 172.1578827 -11.0623369  71.8674698 172.4713135 -12.2974854
  72.0152969 171.8366241 -13.1587229  71.2903519 173.6467438 -12.3427725
  70.9330444 174.0326080 -13.2050581  71.3376389 174.1655426 -11.0759945
  70.9194412 175.1381531 -10.8626242  70.1824417 172.6148834  -7.9669900
  69.5718460 173.2583466  -7.1469841  69.5595627 171.9028473  -8.9761391
  70.1680374 171.3714142  -9.5822926  68.1348495 171.9910126  -9.2737904
  67.7343521 172.9857178  -9.4693851  67.8877487 171.5201111 -10.2252579
  67.2675781 171.3737793  -8.1685047  67.2814331 170.1496582  -8.0634699
  66.5142746 172.1493835  -7.3441958  66.3534241 173.1300201  -7.5247278
  65.7038040 171.5473175  -6.1929450  66.3286362 170.8184509  -5.6767597
  65.3621597 172.7257233  -5.2104654  64.6428757 173.3924866  -5.6860356
  64.8574829 172.3048401  -4.3408351  66.6080170 173.4952545  -4.6982770
  67.3758698 173.6626282  -5.4535832  66.3006287 174.4682312  -4.3149786
  67.1978836 172.7893982  -3.4754653  66.5294647 172.9189148  -2.6242623
  67.2582550 171.7223053  -3.6893723  68.6089401 173.2580566  -3.2155604
  69.2821808 172.6535645  -3.6643949  68.9679413 174.3791656  -2.6451054
  68.1535263 175.2069244  -2.1188400  67.1792221 174.9425964  -2.0879424
  68.3687057 176.1089325  -1.7185960  70.1906662 174.7669220  -2.6879337
  70.7979507 174.0384827  -3.0352921  70.4585876 175.6822662  -2.3555732
  64.4889679 170.7621460  -6.5371928  63.7282486 171.0862579  -7.4428773
  64.2010956 169.7976685  -5.6574636  64.7350769 169.7033386  -4.8053718
  63.0070152 168.9113312  -5.7197757  62.5235710 169.0013733  -6.6925402
  63.5086136 167.4188995  -5.6013346  63.7941628 167.1793365  -4.5770473
  62.4300079 166.3633728  -6.0397968  62.2027855 166.3961029  -7.1053519
  62.8454132 165.3898621  -5.7793584  61.5768890 166.4855957  -5.3724499
  64.6478729 167.1234741  -6.4011755  64.9121323 166.2525940  -6.0956259
  61.9069290 169.2685699  -4.6452069  62.0775490 168.9537659  -3.4727294
  60.7622490 169.8035431  -5.0337152  60.6585693 170.1421204  -5.9796119
  59.6628990 170.1548157  -4.1362343  59.7806358 169.4920807  -3.2789004
  59.7512360 171.6699371  -3.7174847  59.6202927 172.1587982  -4.6828723
  58.9120178 172.0211029  -3.1170676  61.0287094 172.1043243  -3.0113225
  61.9245872 171.7485046  -3.5201409  61.0677376 173.6206665  -2.8744302
  60.1972313 174.0660248  -2.3928001  62.0014839 173.9521332  -2.4201748
  61.0158882 174.0917969  -3.8559906  61.0847054 171.5307159  -1.6187034
  61.0815582 170.4485016  -1.7487885  61.9855652 171.8999329  -1.1285799
  60.2229691 171.9026642  -1.0644785  58.2909355 169.8993683  -4.8283615
  58.0256004 170.3842010  -5.9551120  57.4715996 169.0848846  -4.1565657
  57.8024368 168.7378540  -3.2676265  56.0904999 168.6622009  -4.4783988
  55.9910965 168.5367279  -5.5565839  55.9201126 167.2822113  -3.8482637
  55.8607521 167.2695007  -2.7599552  54.9489594 166.8948669  -4.1563673
  56.8255386 166.2155762  -4.2561855  57.9143143 165.7468262  -3.4862258
  58.5858727 164.8939056  -4.2505026  59.4436188 164.3059387  -3.9590323
  58.0035591 164.7484589  -5.4546914  58.2421494 164.0713043  -6.1650624
  56.9170570 165.6307220  -5.4761076  56.2059174 165.8319397  -6.2636294
  55.0888824 169.7143860  -3.9821081  55.3924103 170.6626892  -3.2048595
  53.8330154 169.5833740  -4.3798137  53.6122665 168.9133301  -5.1025858
  52.7607117 170.3451538  -3.8381310  52.9734421 171.4133148  -3.7949951
  51.5682793 170.0689850  -4.7375140  51.1989555 169.0527802  -4.5996513
  50.7281685 170.6965027  -4.4399314  51.8365555 170.5107269  -6.1972980
  51.9820137 171.7189026  -6.4056854  51.8058815 169.7090149  -7.1264577
  52.4356461 169.9064178  -2.3795578  52.7494354 168.7715912  -1.9613044
  51.8131027 170.8235779  -1.6274180  51.4853363 171.6328888  -2.1350622
  51.3012695 170.4739227  -0.3272341  52.1542892 170.1215973   0.2526910
  50.8398018 171.7754669   0.3809596  50.2564278 172.4484406  -0.2474426
  50.2167854 171.5484924   1.2460772  52.0234108 172.6218872   0.8520932
  53.0889206 172.0675507   1.1180601  51.8418808 173.8522797   0.8799379
  50.2072449 169.4274597  -0.3774698  49.2915382 169.4011688  -1.2006247
  50.2028160 168.5398407   0.6000518  50.9363670 168.6272888   1.2887919
  49.2577324 167.3858185   0.8061070  49.7972260 166.7600098   1.5170189
  47.8862076 167.8968201   1.3052702  47.5272293 168.5265808   0.4912464
  47.2501602 167.0243988   1.4550200  47.8935471 168.7228546   2.5433137
  48.4584465 168.2033844   3.5576375  47.3242950 169.8466492   2.5704074
  49.0836868 166.4185333  -0.4424431  48.1298752 165.6234283  -0.5402467
  49.9685440 166.4806366  -1.4441224  50.7749367 167.0822906  -1.3556093
  50.0499039 165.5000610  -2.5491447  49.0339775 165.3436584  -2.9118185
  50.8284035 166.0872040  -3.6822419  50.7666664 165.3952484  -4.5221667
  50.3618355 167.0501404  -3.8900344  52.2173576 166.1538696  -3.3168628
  52.4191132 166.9868011  -2.8842971  50.5733986 164.1148224  -2.0226686
  51.3102455 164.0778351  -1.0402613  50.0071068 163.0795898  -2.5952585
  49.2062340 163.2264557  -3.1928649  50.3450470 161.7009583  -2.3238463
  50.7436943 161.6731415  -1.3097417  49.1008072 160.7747803  -2.3260069
  48.4068375 161.1846161  -1.5921453  48.6281815 160.7288208  -3.3071342
  49.3723755 159.1288452  -1.7025788  48.1483841 158.7202454  -2.0486648
  51.4542885 161.2494202  -3.2592444  51.3521156 161.3864441  -4.4855332
  52.5771103 160.7704926  -2.6626472  52.5245361 160.7687225  -1.6540180
  53.7448578 160.3466797  -3.4353533  53.4597054 160.2884369  -4.4857798
  54.9157333 161.3153992  -3.1954994  55.1921654 161.2562714  -2.1427934
  55.7346725 160.8445282  -3.7393067  54.6598892 162.8260498  -3.4992049
  53.9077072 163.1838684  -2.7961488  55.5357971 163.4386292  -3.2855725
  54.1837006 163.0496674  -4.9265890  54.4832077 162.2440643  -5.8137178
  53.4924126 164.1059875  -5.3124657  52.9407578 164.0374451  -6.1557207
  53.2557220 164.7986603  -4.6165514  54.2102661 158.9463501  -3.0723186
  53.9973679 158.5287628  -1.9394692  54.8087311 158.2462769  -4.0603299
  54.8120842 158.6740723  -4.9752531  55.5739861 157.0070648  -3.7936602
  55.3583374 156.8342590  -2.7392662  55.1361618 155.8171387  -4.6379561
  54.0570221 155.7472076  -4.5013289  55.3155861 155.9490204  -6.1374378
  56.3748627 156.0793915  -6.3588877  54.8782005 155.0589905  -6.5898166
  54.8550987 156.8800964  -6.4678068  55.9243660 154.5625458  -4.2775140
  55.5467644 154.1511993  -3.3414009  55.6425209 153.7239075  -4.9141746
  57.0040207 154.6435242  -4.4035578  57.0651817 157.2548218  -3.8676918
  57.5209846 157.8816223  -4.8649426  57.7895813 156.8517151  -2.8448355
  57.3239174 156.5721893  -1.9932938  59.2365608 157.1445312  -2.6793292
  59.6779289 157.4164429  -3.6381598  59.3211403 158.4150543  -1.7403725
  59.0529327 158.0856628  -0.7365522  60.7930870 158.9043274  -1.6079514
  61.1412201 159.4223328  -2.5015800  60.9019203 159.6625519  -0.8324904
  61.4596710 158.0524139  -1.4736592  58.3844795 159.5706635  -2.2481065
  58.6343613 159.7267609  -3.2975316  57.3825798 159.1907501  -2.0482051
  58.4715004 160.9251862  -1.5257469  59.2525749 161.5838776  -1.9054304
  57.5622101 161.5222778  -1.5948013  58.5422478 160.8379669  -0.4415483
  59.9793930 155.9498749  -2.1614468  59.5866356 155.3636017  -1.1288524
  61.0918846 155.4989777  -2.8087249  61.8009033 156.0851898  -3.9855335
  62.1331177 157.0920105  -3.7324305  61.1761246 155.9918518  -4.8738132
  63.0504341 155.2625732  -4.2762136  64.0091400 155.7378998  -4.0687470
  62.9914436 154.9336090  -5.3137150  62.8345757 153.9639282  -3.4559295
  63.7556992 153.4746552  -3.1392989  62.2930260 153.2295685  -4.0521984
  61.9322624 154.4037323  -2.2693129  61.2002335 153.6123810  -2.1080933
  62.7158165 154.7365875  -1.0186851  63.3141670 155.8090210  -0.8510237
  62.6262741 153.7388306  -0.1121987  62.2336273 152.8716888  -0.4498404
  63.2729988 153.7419128   1.1749614  63.6126633 154.7199554   1.5158226
  62.3789139 153.1222229   2.3057492  62.1881065 152.0998383   1.9795405
  63.0590897 152.9454346   3.6201472  63.2028809 153.9094238   4.1081319
  62.4229927 152.3269653   4.2533808  64.0785446 152.5597229   3.6133566
  61.0956612 153.9729004   2.4563954  60.6973152 154.2788239   1.4890130
  60.3049774 153.4514160   2.9958279  61.4198952 154.8675690   2.9879391
  64.5754700 152.9702759   1.0204251  64.4924240 151.8239899   0.5848202
  65.6509628 153.4912262   1.5597098  65.7844238 154.4676361   1.7808945
  66.8370056 152.6467743   1.9174732  66.9359055 151.9655151   1.0723672
  68.0724030 153.4751129   2.0493507  67.9037247 154.1627045   2.8781152
  68.8348999 152.8043518   2.4453166  68.7083893 154.2189941   0.8780532
  67.9651184 154.7333679   0.2689082  69.6596756 155.3236542   1.3047845
  70.2428436 155.0254211   2.1760354  70.3030319 155.5892029   0.4659309
  69.1649323 156.2442322   1.6143712  69.4401398 153.2582703  -0.0045096
  68.7087784 152.5846558  -0.4511094  69.9341202 153.8147430  -0.8010130
  70.1488647 152.6559143   0.5638114  66.6494064 151.8072357   3.2330790
  66.4243393 152.3769226   4.2949610  66.8643570 150.5064392   3.1827343
  67.1990967 149.7860107   1.9470193  68.1179199 150.2403717   1.5763098
  66.3930511 149.8161163   1.2138914  67.4394989 148.2922363   2.3734629
  68.4979706 148.1144257   2.5635126  67.1366806 147.5165863   1.6700737
  66.6544495 148.1575623   3.6805997  67.2133942 147.4289856   4.2678428
  65.6406937 147.8805542   3.3913362  66.6737747 149.6202850   4.3037763
  65.7019806 149.7888794   4.7677798  67.7291031 149.8015747   5.4367819
  67.4495926 149.5784760   6.5967250  68.9861755 150.1239471   5.1216073
  69.3086624 150.1734009   4.1657534  70.0099182 150.4838409   6.1723623
  69.9077759 149.8809967   7.0747166  71.3310471 150.0992889   5.6142354
  71.5385361 150.5709839   4.6537399  72.1335449 150.4548340   6.2605276
  71.3568115 148.5476227   5.4719486  70.7846069 147.7632751   4.4963274
  70.6587830 146.4997101   5.0265288  70.1513596 145.6968231   4.5124402
  71.1479721 146.4733734   6.2606363  71.2029037 145.6356964   6.8222179
  71.5139923 147.7416229   6.5890584  71.9055176 148.0807037   7.5367603
  70.0046921 151.8607635   6.8175464  70.7552795 152.0576477   7.8285933
  69.1322937 152.7811737   6.3642001  68.5475693 152.5299225   5.5799351
  68.8935013 154.0627441   7.0749283  69.8546295 154.5031891   7.3401098
  68.3509674 155.1507568   6.1528435  67.4396820 154.7114105   5.7470813
  67.9665222 156.3851013   6.9969974  68.8413544 156.9076233   7.3839731
  67.5128326 157.1137695   6.3251982  67.2106628 156.0945587   7.7266231
  69.2745285 155.5166779   4.9668550  69.6621170 154.6307220   4.4639125
  68.6880798 156.0301208   4.2049203  70.0944366 156.1320801   5.3371768
  68.0084839 153.7015381   8.3315868  66.9007950 153.3329926   8.0679588
  68.5318756 154.0661011   9.5447588  69.4779282 154.4136353   9.6103563
  67.7923203 153.7375183  10.7701645  66.7602921 153.5919037  10.4510651
  68.3384323 152.4284058  11.4099636  69.4274597 152.4053497  11.3700628
  68.0284119 152.2875214  12.4454126  67.8980560 151.2178955  10.5613203
  66.8282318 151.2972870  10.3682413  68.3950653 151.3165436   9.5962563
  68.4323349 149.6316223  11.2139931  67.8229446 148.4362640  10.0106421
  68.0918198 148.7491150   9.0017157  68.2755280 147.4911957  10.3108253
  66.7436523 148.3122101  10.0992260  67.5348434 154.9214478  11.7210903
  67.1695328 154.6689758  12.8892937  67.7176666 156.1676178  11.2853317
  67.8881073 156.2981262  10.2984085  67.6553879 157.3681946  12.1252699
  67.4075241 157.0747528  13.1453438  68.9893341 158.1003723  12.1628685
  68.9138184 158.9265594  12.8698359  70.1528320 157.2532654  12.6794262
  70.6197968 156.5937347  11.9479523  70.9943848 157.7048798  13.2047272
  69.6888733 156.6452637  13.4560719  69.4529877 158.6022034  10.7758894
  68.6886597 159.2562103  10.3561573  70.3450623 159.2114716  10.9210873
  69.6732330 157.7508392  10.1318493  66.5178909 158.2489166  11.6115704
  66.1454239 158.2505341  10.4354172  66.0059586 159.0081940  12.5061913
  66.1630249 158.7978363  13.4814758  64.9879074 159.9821625  12.2354774
  64.2984772 159.5340881  11.5199156  64.2282791 160.2684021  13.4706106
  63.8375740 159.3475037  13.9035082  64.7981796 160.8033752  14.2302933
  63.0570183 161.1463776  13.1144218  63.3006592 162.1217804  12.6933098
  62.4584312 160.6341095  12.3611813  62.0020142 161.5860748  14.5172348
  61.8955040 160.1323395  15.5410404  62.6926117 160.0545197  16.2804127
  60.9893646 160.3705139  16.0980721  61.8617783 159.2129517  14.9564886
  65.5675812 161.3571625  11.6953869  66.0974045 162.1643372  12.4057398
  65.6121521 161.4508667  10.3402157  65.3916092 160.7195587   9.6794119
  66.1228256 162.6935425   9.8138523  67.0439072 162.9064026  10.3564386
  66.4060516 162.4372711   8.2700338  67.1788712 161.6687317   8.2556562
  65.4905624 162.1292877   7.7649302  66.8587112 163.6242981   7.4736614
  66.2496643 164.5052643   7.6762896  68.2996674 163.8727570   7.7603536
  68.8103714 162.9504700   7.4834275  68.6778870 164.6884308   7.1441355
  68.4201508 164.1549683   8.8062677  66.7965088 163.2521973   5.9474468
  65.7573395 163.1807098   5.6263251  67.2859116 164.0479126   5.3858085
  67.2596130 162.2671204   5.8902311  65.1120453 163.8322601   9.9541483
  63.9824448 163.6837311   9.4818478  65.4681168 164.9598236  10.5937996
  66.3574677 164.9828033  11.0719385  64.5986633 166.1732635  10.5734005
  63.5382042 165.9245758  10.5324545  64.8151245 166.9939117  11.8566656
  65.7816696 167.4671478  11.6835737  63.8176842 168.1727295  11.9476557
  62.7831268 167.8373413  11.8748322  63.9906311 168.5794373  12.9440384
  63.9785843 168.9171448  11.1678686  64.7965317 166.3176422  13.2247248
  65.6768799 165.6749420  13.2312479  64.9058685 167.0090027  14.0602913
  63.6340637 165.4533386  13.5923700  63.5298271 164.6375122  12.8770609
  63.7493668 165.0357056  14.5925655  62.7089844 166.0293121  13.5681581
  64.9684372 167.0584259   9.3449068  66.1716919 167.0804596   9.0288630
  64.0219040 167.7171021   8.6676741  62.5938339 167.4677429   8.7652102
  62.2394714 167.9002533   9.7008667  62.3837624 166.4017334   8.6779776
  62.0043297 168.1685486   7.5394368  61.0056953 168.5518494   7.7489676
  61.9588585 167.4730377   6.7014008  62.9646950 169.3195801   7.3109875
  62.6666603 170.1789551   7.9116163  62.9682159 169.6808929   6.2826200
  64.3415833 168.7318573   7.6598439  64.6418686 168.1975403   6.7584872
  65.3398819 169.7685699   8.0651255  65.6024323 169.9748535   9.2726564
  66.0120697 170.4114380   7.0599756  65.6772232 170.2883148   6.1150846
  67.2757263 171.2464752   7.1943088  67.3851013 171.8346558   6.2831583
  67.0286713 171.9042511   8.0276184  68.5385895 170.4946594   7.5198660
  69.5891953 170.9857483   7.1840410  68.4969101 169.3298645   8.2224922
  67.5502701 169.0558624   8.4435806  69.6293335 168.4686127   8.6616182
  70.2906876 169.1050110   9.2495842  69.0058746 167.4865112   9.7221079
  68.3206635 168.0577087  10.3484650  68.4088669 166.7285004   9.2150488
  70.0609207 166.7633667  10.6334229  70.7890549 166.3319550   9.9465380
  70.5907898 167.4653473  11.2772865  69.3969727 165.6614380  11.5251875
  68.2506027 165.6613464  11.8737364  70.1274261 164.6061249  11.8092794
  69.9264297 163.9822540  12.5777111  71.0565643 164.4320221  11.4536238
  70.3399048 167.7966919   7.5310407  69.6589355 167.2735596   6.6807489
  71.6935883 167.7653503   7.5060406  72.1931839 168.3783569   8.1343164
  72.5082932 166.9386597   6.5413942  72.1055298 166.9110413   5.5289073
  73.9314804 167.4890289   6.4621749  74.5542679 167.2038116   7.3100500
  74.6881561 167.0478821   5.2464123  74.0905914 167.2931976   4.3684306
  75.6436691 167.5673065   5.1735506  74.8454132 165.9727631   5.3328319
  74.0191574 168.9062958   6.4944234  74.9195786 169.1743317   6.6919336
  72.5459290 165.4181213   6.8928142  72.6686478 165.0836182   8.0343933
  72.5756607 164.5366364   5.8496161  72.3899918 164.9370117   4.9411445
  72.7015610 163.0833435   5.8844018  72.8649216 162.9263916   6.9506016
  71.3876495 162.4878845   5.5055518  70.5880737 162.9548035   6.0806718
  71.2467346 162.7147064   4.4487686  71.2913208 160.9506073   5.5568933
  71.7674484 160.4358673   4.7223587  71.8343811 160.3135223   6.8099046
  71.4471893 160.8882599   7.6512542  71.6543732 159.2467041   6.9424767
  72.9174347 160.4361877   6.8034406  69.8033600 160.6280823   5.5633669
  69.3109436 161.1288910   4.7298050  69.6993256 159.5922394   5.2403755
  69.4529419 160.7736053   6.5851946  73.8650436 162.6053467   4.9031320
  73.6956940 162.4707642   3.6801229  75.0479050 162.3082275   5.4535613
  75.4077377 162.4401855   6.8531132  74.7096176 161.8327026   7.4290347
  75.2039566 163.4717102   7.1404042  76.8287735 162.0290375   7.1075439
  76.8318939 160.9766083   7.3912835  77.3316574 162.7438507   7.7588801
  77.3937149 162.1436615   5.6801782  78.2787628 161.5228729   5.5408297
  77.5709915 163.1974945   5.4654932  76.1615601 161.7035065   4.8301725
  76.3503265 162.0574493   3.8166649  75.9421463 160.2064362   4.8850479
  75.4740906 159.6406708   5.8706684  76.1765213 159.5299530   3.7635310
  76.4440079 160.0159454   2.9195151  75.9672241 158.0561218   3.5474823
  75.9405212 157.6410065   4.5549865  74.5712738 157.7870789   2.9023168
  74.4637070 158.4245758   2.0247517  74.5975418 156.7916565   2.4589510
  73.2979965 157.8851166   3.8140569  73.2717667 158.8528290   4.3150029
  72.0874634 157.8287811   2.8598337  72.1762772 156.9256134   2.2560911
  71.1684418 157.9097443   3.4403024  72.0486298 158.6587372   2.1543198
  73.2274780 156.7879028   4.8397803  74.0421982 156.9702606   5.5405574
  72.2630539 156.8188934   5.3467641  73.4284439 155.8134003   4.3947430
  77.0119247 157.3510895   2.6799097  77.4262848 157.8060455   1.5983289
  77.5337830 156.2129364   3.1321185  77.2371597 155.8950348   4.0437393
  78.3537445 155.3129578   2.2547345  78.4203720 155.7345581   1.2517731
  79.8167725 155.3240204   2.7548625  80.2498856 156.3188019   2.6502674
  79.7419434 155.2233887   3.8376250  80.6912079 154.2227325   2.1164737
  80.1856995 153.2840729   2.3433597  80.7517548 154.4024506   1.0430957
  82.1170120 154.0573578   2.7200813  82.4691696 154.7273865   3.6832583
  82.8992615 153.1179047   2.2524228  83.7941055 152.8924408   2.6629286
  82.6035995 152.5165558   1.4967427  77.5747223 154.0239410   2.1124485
  77.3231277 153.2857971   3.0832522  77.2412567 153.6794586   0.8338482
  77.5794220 154.2221375   0.0520264  76.5208969 152.4766235   0.4743012
  76.2298279 151.9755859   1.3975201  75.2734375 152.9739227  -0.3436322
  75.5563431 153.2257843  -1.3657043  74.6228333 152.1038666  -0.4321388
  74.4809494 154.1589966   0.2153428  75.0998840 155.0408478   0.3807016
  73.4250259 154.6531982  -0.7313660  72.9212875 153.7457886  -1.0644573
  72.7478104 155.3076324  -0.1825528  73.8799438 155.1278534  -1.6007642
  73.8060913 153.9087677   1.5481980  74.4852448 153.5097504   2.3016129
  73.2757645 154.7765350   1.9404269  73.1029358 153.0877228   1.4083104
  77.4040298 151.4942169  -0.3380333  77.7540207 151.8740845  -1.5140377
  77.6534729 150.2569580   0.1816061  77.3924789 150.0789490   1.1409287
  78.4611206 149.1655731  -0.3849766  78.8486099 149.3474884  -1.3874027
  79.6538696 148.8848267   0.5834534  80.3466187 148.0972748   0.2868851
  80.2387619 149.8041687   0.6120573  79.1682968 148.4214478   1.9531012
  78.8184967 149.4149475   2.9143252  78.9121170 150.4331512   2.5665991
  78.3496017 149.0452423   4.1754260  77.9968033 149.7866974   4.8769817
  78.3491974 147.6623688   4.5309362  77.9984741 147.3638763   5.5078154
  78.7574692 146.6929779   3.5983560  78.5550537 145.6550140   3.8175323
  79.0506439 147.0591125   2.2704160  79.3236237 146.3829193   1.4737715
  77.6931458 147.8086853  -0.6298469  78.2568130 146.9514923  -1.3207810
  76.4657898 147.6124725  -0.1052240  76.0826874 148.4422302   0.3247112
  75.6368790 146.4721069  -0.4849349  76.1832657 145.5299683  -0.5292194
  74.5020142 146.2829895   0.4829543  74.0657578 147.2598572   0.6915326
  73.7106628 145.6566162   0.0712206  75.0422134 145.7364044   1.7527944
  75.7014847 144.4901581   1.9205925  75.9883881 144.4217682   3.2429302
  76.7219696 143.7631531   3.6839237  75.5425186 145.5213318   3.8314252
  75.6380768 145.7719269   4.8051686  74.9250412 146.3316803   2.9529006
  74.4144669 147.2653351   3.1372697  74.9698257 146.6750183  -1.8477567
  74.5049286 147.8119202  -2.1351609  74.8805161 145.6221313  -2.7025776
  75.2112961 144.2307587  -2.4465003  74.7414246 143.7919312  -1.5663072
  76.2739105 144.0866699  -2.2510736  74.7331161 143.5059814  -3.7127481
  73.6603165 143.3134766  -3.7011819  75.2946472 142.6007996  -3.9438758
  74.8471222 144.5195465  -4.8307829  74.0512695 144.4140320  -5.5680661
  75.8471832 144.5429840  -5.2637076  74.6478271 145.8614502  -4.1027827
  75.3806610 146.5230408  -4.5647020  73.3233337 146.5200806  -4.4162254
  73.3060303 147.5436707  -5.1511202  72.2467117 145.9747009  -3.8501713
  72.2429352 145.1929779  -3.2106524  70.9154205 146.5428619  -3.9491229
  70.7053909 146.5677490  -5.0184097  69.8364258 145.6417084  -3.3113735
  68.8786926 145.9387207  -3.7387214  70.0631027 144.6408386  -3.6787467
  69.7731552 145.4465637  -1.8240920  69.8301392 146.4413300  -1.3821974
  68.7711792 145.0498199  -1.6605506  70.6904984 144.4221039  -1.2083285
  71.6611023 143.9666138  -1.8000350  70.4287186 144.1130066   0.0273649
  71.2262726 143.7284088   0.5132707  69.5859833 144.4687347   0.4555575
  70.8279419 147.9590149  -3.5371044  70.0668106 148.7468414  -4.1715450
  71.5641861 148.4393005  -2.4868076  72.1208038 147.7599487  -1.9880493
  71.6685638 149.8585205  -2.0399489  70.6584091 150.2447968  -1.9040476
  72.2486115 150.0175323  -0.6195628  73.2753067 149.6711884  -0.5010491
  72.1835785 151.0883636  -0.4266844  71.4567184 149.2427979   0.4618431
  70.4206924 149.2346344   0.1231876  71.8847885 148.2414093   0.5073480
  71.6468048 149.9576874   1.8288971  72.8135452 149.9397278   2.3000538
  70.6469955 150.5957947   2.3121431  72.4466553 150.8028870  -3.0128684
  72.1162186 151.9841309  -3.2061131  73.4877319 150.2719574  -3.6562498
  73.8314667 149.3745117  -3.3455410  74.1381683 151.0246124  -4.7318239
  74.3864365 152.0274353  -4.3842235  75.3790512 150.2288513  -5.1567316
  75.1598740 149.1701660  -5.2954297  76.1677475 150.7551117  -6.3498688
  76.6810608 151.6576691  -6.0181856  76.8743973 149.9665680  -6.6085916
  75.4954147 150.9188690  -7.1920376  76.4400635 150.0413666  -4.0001035
  75.9557190 149.8185577  -3.0493836  77.1380539 149.2304688  -4.2082810
  77.0141068 150.9580078  -3.8646665  73.2325363 151.1713562  -5.9786663
  73.1217575 152.2349091  -6.5958300  72.5373383 150.0628662  -6.3396478
  72.6905899 149.1878204  -5.8591342  71.5590820 150.0525208  -7.5102987
  72.0711594 150.2209015  -8.4576788  70.8683472 148.6893616  -7.6594553
  71.6631470 147.9449768  -7.6116247  70.1841736 148.4419708  -6.8477883
  70.2416229 148.6933899  -8.9220037  70.2537842 147.8074646  -9.2915773
  70.3931503 151.0877686  -7.4178610  70.1015091 151.7394257  -8.4209156
  69.7796707 151.2559662  -6.1940699  70.1219330 150.7167053  -5.4116654
  68.7234879 152.2229767  -5.9110074  67.9517746 152.0383911  -6.6583295
  68.1255875 151.9876556  -4.5085926  68.0147781 150.9114838  -4.3756304
  68.8688049 152.2698975  -3.7628911  66.7363892 152.5817719  -4.2199745
  66.1220245 152.1473083  -5.0085778  66.3030090 152.2856750  -3.2646697
  66.5308228 154.3316345  -4.3122854  67.2115173 154.8581696  -2.6919029
  68.2844238 154.6685181  -2.6601031  67.1049194 155.9201813  -2.4708049
  66.6250610 154.3784943  -1.9082748  69.1412735 153.6661835  -6.1016235
  68.5632172 154.3464508  -6.9812937  70.1728134 154.1745758  -5.4187059
  70.7541504 153.5819550  -4.8434310  70.5478821 155.5660858  -5.6750722
  69.6292877 156.1410675  -5.5581307  71.4996567 156.0687103  -4.6114869
  71.8169632 157.0854034  -4.8433547  70.8982010 155.9620209  -3.2348852
  70.6937332 154.9071045  -3.0520873  71.5277863 156.3983612  -2.4594209
  69.9383469 156.4783630  -3.2485962  72.8199692 155.2135773  -4.6765423
  73.3184433 155.1374664  -5.6428919  73.4522171 155.6785126  -3.9201126
  72.6455688 154.1704559  -4.4127412  71.1068497 155.8474884  -7.0719886
  70.9165726 156.9807587  -7.5203843  71.6792374 154.8753662  -7.8104486
  71.7617722 153.9585571  -7.3948083  72.1344070 154.9605103  -9.2201786
  72.7513428 155.8557281  -9.2980165  72.9322586 153.7430115  -9.7084913
  73.7690353 153.7553711  -9.0100975  72.2538223 152.8930359  -9.6350889
  73.3391342 153.9638824 -11.1448231  72.5251999 154.2236786 -11.8216610
  74.1157990 154.7192993 -11.2641716  73.9525757 152.6140900 -11.6108389
  73.2556839 151.8238068 -11.3317595  73.9389877 152.5827179 -12.7003031
  75.3295746 152.4699707 -11.0670938  75.7959213 153.3211517 -10.7876396
  76.0068893 151.3989563 -10.8112650  75.5294418 150.2137909 -10.9714012
  74.6740265 150.1204376 -11.5002184  75.9874344 149.4229431 -10.5413847
  77.1692581 151.5032654 -10.1928406  77.3996658 152.4540100  -9.9416637
  77.7367554 150.6914673  -9.9952383  70.9442444 155.2426453 -10.1610575
  70.9250031 156.2350311 -10.8749514  69.8940582 154.4361877 -10.1047106
  69.8077698 153.7622070  -9.3574467  68.7737732 154.5756989 -10.9944944
  69.0583115 154.6202545 -12.0457573  67.9572144 153.2709808 -10.8180676
  67.7979813 152.9821320  -9.7791710  66.9717026 153.4303131 -11.2556534
  68.5424347 152.0699921 -11.5206089  68.9050903 152.0341034 -12.6702356
  68.5394135 150.9228973 -10.8365211  68.9725723 150.1498566 -11.3211489
  68.4119568 150.9392700  -9.8347273  67.8478165 155.7556915 -10.5750265
  67.1649551 156.2630463 -11.4795303  67.8488693 156.1679535  -9.3064985
  68.3936768 155.6190643  -8.6568718  67.2587585 157.4064636  -8.8238049
  66.2452698 157.4494019  -9.2226820  67.2260056 157.2825775  -7.2186007
  66.8242493 156.3217010  -6.8970575  68.2199936 157.2941132  -6.7714300
  66.4751129 158.4522095  -6.5547328  66.6521072 159.4007568  -7.0617256
  64.9781036 158.1766815  -6.6173825  64.7672958 157.3503113  -5.9385748
  64.4369659 159.0623474  -6.2843804  64.6673813 157.9745789  -7.6424236
  66.8934631 158.5061646  -5.0972309  67.9746704 158.6395264  -5.1332917
  66.3235550 159.2592926  -4.5530629  66.7493820 157.5560760  -4.5827928
  68.0690918 158.6528015  -9.2703514  67.4273071 159.7062531  -9.5449409
  69.4077988 158.6496277  -9.4910631  69.9330368 157.8522339  -9.1618462
  70.2251968 159.7716064  -9.9819965  69.8518600 160.6318512  -9.4263897
  71.7541809 159.4658813  -9.6343164  71.8596649 158.4022217  -9.4207268
  72.7565842 159.6954956 -10.8278418  72.7216415 160.7356262 -11.1519079
  73.7947922 159.4833221 -10.5724821  72.4852600 159.0387726 -11.6544027
  72.3152924 160.3377991  -8.4920435  73.3670578 160.1007385  -8.3317938
  72.2710571 161.3674164  -8.8470430  71.6758347 160.1112976  -7.0932555
  72.0769653 159.2468872  -6.5640974  71.9488297 160.9807129  -6.4951911
  70.5870361 160.1369171  -7.1375718  69.8560791 160.1596069 -11.4267740
  69.8078918 161.3450775 -11.7603998  69.4813080 159.1363373 -12.2071095
  69.5274048 158.1667175 -11.9281387  68.8873901 159.4235687 -13.5333500
  69.5314102 160.1508636 -14.0277157  68.9837036 158.1495972 -14.4650784
  68.7581253 157.2861481 -13.8392401  68.2520370 158.1330872 -15.2728481
  70.4050751 158.2116241 -15.1157627  70.4045868 157.4036865 -15.8474312
  70.4900894 159.1693573 -15.6291828  71.5838776 158.0388641 -14.2249584
  72.5271454 158.8032227 -14.1830988  71.7045975 156.9256744 -13.5012341
  72.3689423 156.8899994 -12.7413197  71.0272751 156.1778107 -13.4563026
  67.4981003 160.1442261 -13.5479774  67.0266418 160.5137787 -14.6544085
  66.8064270 160.1713409 -12.3952227  67.2380753 159.9415894 -11.5114841
  65.5706635 160.9277039 -12.2500401  65.5795670 161.6689606 -13.0491381
  64.2575989 160.1083984 -12.5085936  63.3324776 160.6812439 -12.4446297
  64.1828156 159.7853546 -13.5469332  64.1575394 158.7678833 -11.7103891
  65.0199738 158.1694946 -12.0040283  64.1340561 159.0834808 -10.6673355
  62.8378181 158.0169220 -11.9700623  62.7739792 157.2551422 -11.1930761
  62.0280838 158.7295837 -11.8134270  62.6724739 157.2957764 -13.3379364
  62.6768990 157.9980774 -14.1715117  63.4624863 156.5804443 -13.5665932
  61.3611984 156.5810089 -13.3317156  60.5757217 157.2018738 -13.1989126
  61.1642189 155.9932709 -14.1291265  61.2366104 155.9077911 -12.5891781
  65.4861832 161.8277740 -10.9853554  66.0693970 162.9172668 -10.9857569
  64.5867691 161.5286560 -10.0668707  64.1454849 160.6245270 -10.1559868
  64.0474091 162.4485779  -9.0112762  63.8024445 163.3866425  -9.5093880
  62.7288094 161.8417358  -8.3637705  62.4736671 160.9226074  -8.8912220
  62.9503975 161.5068359  -7.3504395  61.4504738 162.6741486  -8.4782152
  61.3821106 163.6466522  -9.2748814  60.4138680 162.3849335  -7.8391595
  65.0178070 162.8236694  -7.8722539  64.6887665 163.8053589  -7.2126446
  66.1100922 162.0777130  -7.6073356  66.3573151 161.3923645  -8.3068209
  67.0789795 162.2179260  -6.5041165  67.6568222 161.2999725  -6.6115980
  68.0613022 163.4203491  -6.6188440  67.4805298 164.3240051  -6.8037772
  68.6166458 163.5989685  -5.6980896  68.9893494 163.1959381  -7.7533383
  69.5059128 162.2639465  -7.5239234  68.4921570 163.0033264  -8.7040262
  69.9183197 164.3648834  -8.0690269  70.4742584 164.6590424  -7.1787977
  70.6982040 163.9944763  -8.7343664  69.2675018 165.5741119  -8.5953808
  69.3097610 165.6120911  -9.6037827  69.0607376 166.6363983  -7.9254494
  69.2152176 166.7150269  -6.6179209  69.5533142 165.8922272  -6.1395955
  69.0020523 167.5654602  -6.1165133  68.6277161 167.6942902  -8.5252037
  68.5097961 167.7279968  -9.5277328  68.2464981 168.4572601  -7.9842248
  66.5677872 162.1168213  -5.0612826  67.4070358 162.0653229  -4.1378698
  65.2493973 162.1591644  -4.8106503  64.6203308 162.2743530  -5.5923815
  64.5668793 162.0561523  -3.4669669  65.3642426 162.3275604  -2.7751176
  63.3928871 162.9782257  -3.2996843  63.0322075 162.7238159  -2.3030465
  63.8237495 164.4773865  -3.3928714  64.3895264 164.6247864  -4.3128028
  62.8869400 165.0299072  -3.4649813  64.3207550 164.7798157  -2.4711227
  62.4054794 162.7875214  -4.3174329  61.6301994 163.0361786  -3.8087995
  64.2547455 160.6084442  -2.9898894  63.5953217 159.8067474  -3.6457088
  64.8589096 160.2539825  -1.8303634  65.3799896 160.9625702  -1.3338796
  64.6132431 158.9927673  -1.1687026  63.9326973 158.3926849  -1.7727395
  65.9686813 158.2230072  -1.0394746  65.7991714 157.1711578  -0.8093544
  66.4553452 158.1732330  -2.0135279  66.9551468 158.7594299  -0.0158189
  68.0613251 159.4374390  -0.4746978  68.1300201 159.7597046  -1.5032037
  69.0911331 159.7244263   0.4504783  69.9858093 160.2119751   0.0923520
  68.9512558 159.4495392   1.8264784  69.6116180 159.7902527   2.6102154
  67.8123016 158.7653503   2.2689919  67.8199463 158.3658447   3.2723558
  66.8496323 158.4185638   1.3289971  66.0453262 157.8001556   1.6992146
  63.9070168 159.2203979   0.1652532  63.9396858 160.3162384   0.7354761
  63.1703110 158.2402954   0.7435131  63.1409378 157.3218994   0.3242615
  62.3675880 158.4832001   1.9186261  62.2999725 159.5540924   2.1103477
  60.9107361 158.0161591   1.7491487  61.0107193 157.0608521   1.2338885
  60.3498116 157.9286652   2.6796408  60.4375191 158.7295990   1.0744863
  63.1511726 157.9401550   3.1713161  63.4395866 156.7141113   3.2966576
  63.3425255 158.7286987   4.1791086  63.1638107 159.7171936   4.0741448
  63.6235962 158.3465576   5.6044278  64.1215668 157.3801727   5.6831856
  64.5521164 159.3833313   6.2344112  64.1822433 160.4019775   6.1175642
  64.8695450 159.1233673   7.7022691  65.3634491 158.1523743   7.7384825
  65.5753708 159.8620758   8.0820456  63.9686432 159.1885834   8.3123617
  65.7847137 159.3398895   5.3493810  65.7328415 160.1758728   4.6518507
  66.6224747 159.6862946   5.9545760  65.9215469 158.3374176   4.9439063
  62.3084831 158.2138519   6.3604589  61.4585800 159.0992432   6.3481922
  62.0770226 157.1004486   7.0050302  62.8216400 156.4185028   7.0292025
  60.9611282 156.9523315   8.0071306  60.1125488 157.5317230   7.6433926
  60.6675682 155.4626923   7.9244680  61.6491966 154.9889832   7.9143410
  60.1064262 155.2005310   8.8214025  59.9918938 154.9346619   6.6073132
  60.5729904 155.0331116   5.6903977  59.8238869 153.5074463   6.8375759
  59.2345581 153.2141876   7.7063632  59.2570419 153.1372833   5.9833097
  60.7574997 152.9723816   6.6638689  58.6189194 155.5923767   6.4666810
  58.7431297 156.6733551   6.4023471  58.1313934 155.1593170   5.5932508
  58.0040321 155.3164368   7.3233504  61.3853760 157.3853912   9.4496212
  62.5670586 157.3721619   9.7689133  60.4326172 157.6921234  10.3551064
  59.4810715 157.7455292  10.0207214  60.6253929 157.8774414  11.7582006
  61.7064400 157.9287720  11.8878088  59.9771042 159.2897949  12.0235767
  58.8973732 159.1485901  12.0719595  60.3212585 159.6246338  13.0021191
  60.3465538 159.9557495  11.2437525  60.0915489 156.6870117  12.5942974
  58.9579620 156.7060242  13.1430206  60.8894730 155.6047516  12.4580278
  61.6872597 155.6326752  11.8392744  60.4527893 154.3439026  12.9666147
  59.6593895 154.0279541  12.2892666  61.6758156 153.4121246  12.8578472
  62.5508499 153.8559418  13.3326578  61.4314117 152.4639740  13.3367748
  62.0779724 153.1384583  11.4051991  61.3649254 152.1616364  10.6297712
  60.4959030 151.7211914  11.0958433  61.7008553 151.8044128   9.3235235
  61.0778999 151.0902100   8.8056164  62.7810631 152.4296112   8.7435017
  63.1209068 152.0771942   7.4758129  62.4145241 151.6594086   6.9777412
  63.5481911 153.3309174   9.4974442  64.4348221 153.7754517   9.0700312
  63.2087822 153.7380981  10.8104448  63.8791771 154.4466705  11.2740202
  59.9082718 154.3621826  14.4271908  60.6552429 154.6576538  15.3677111
  58.5818558 154.1486969  14.5781031  58.0808678 153.8818665  13.7426891
  57.8052139 154.0407104  15.8038998  58.1133957 154.8899231  16.4137936
  56.3765373 154.2900238  15.4107122  55.7647095 154.2263184  16.3105526
  56.2529945 155.2898254  14.9944696  55.9098625 153.2978363  14.4398632
  54.9814796 153.5096893  14.3181076  58.1023102 152.7304077  16.5427246
  57.7862854 152.5980072  17.7344494  58.7068405 151.7801819  15.8104124
  58.7029419 151.8386383  14.8021126  59.5824623 150.6771240  16.2795429
  60.0468178 150.9068756  17.2385483  58.6717644 149.5562134  16.6633015
  58.0028877 149.9394531  17.4339085  58.0421867 149.3075256  15.8089647
  59.4173698 148.3634644  17.2543926  60.4487419 147.8918304  16.7714100
  58.9603500 147.7942505  18.3417015  59.4479561 146.9890137  18.7076530
  58.1530991 148.1880493  18.8036327  60.6008606 150.3125763  15.2235022
  60.1325035 150.0086060  14.1302624  61.8899612 150.2903900  15.5115728
  62.1678009 150.5936432  16.4340401  62.9618263 149.9817505  14.4755945
  62.6554184 150.2979279  13.4784746  64.2454224 150.7379761  14.8751373
  63.9983749 151.7913666  15.0072641  64.8449173 150.2258759  16.2059383
  65.1929169 149.2078552  16.0309162  65.6535034 150.9014893  16.4849358
  64.1056747 150.2185211  17.0069141  65.3153381 150.6053162  13.7428198
  64.8880844 151.1443634  12.8972464  66.1854172 151.1838379  14.0532503
  65.5040894 149.5738525  13.4452229  63.1704483 148.4802551  14.2527475
  63.5086937 148.1504974  13.1430941  62.9516106 147.6459198  15.3044462
  62.6744461 148.0931091  16.1666031  63.0070953 146.1879272  15.3151484
  63.9848633 145.8571167  14.9649668  62.8723602 145.6738281  16.7291431
  63.5028076 146.2389984  17.4155846  61.8809662 145.9550629  17.0843067
  63.2488861 144.1515198  16.8617535  62.5159798 143.6821136  16.2055492
  64.2921448 144.0045013  16.5822945  63.0419426 143.7240753  18.3466110
  63.5297813 144.4432220  19.0045929  61.9565659 143.7201691  18.4468365
  63.5938072 142.3268280  18.5442142  64.4382324 142.1887970  19.0808659
  62.9179306 141.2415619  18.2922630  61.7429123 141.2019196  17.6966610
  61.3034668 141.9706573  17.2108345  61.2384109 140.3341675  17.8087864
  63.3986855 140.0821381  18.6970577  64.3326569 140.0152588  19.0756302
  62.9696960 139.2821198  18.2542953  61.9588356 145.5491486  14.3869915
  62.2267151 144.7829285  13.4534111  60.7176208 145.8888092  14.6772699
  60.5427971 146.5375824  15.4313402  59.5226822 145.5162964  13.9422693
  59.7302628 144.4748230  13.6966133  58.2518883 145.5826874  14.8179226
  58.1210823 146.6634064  14.8729715  57.4331322 145.1824493  14.2199554
  58.2444649 144.9313202  16.1990604  58.9363976 145.4815521  16.8366852
  57.3127098 145.0884857  16.7424126  58.6016235 143.3976135  16.2069588
  57.9637413 142.6078949  15.4218664  59.5225220 142.9326019  16.8954220
  59.4253540 146.2695007  12.5949135  58.6370544 145.8414307  11.7572689
  60.1796875 147.3563385  12.3227797  60.8990746 147.5964203  12.9898176
  60.1395493 148.2932587  11.1901617  60.8818855 149.0480652  11.4496002
  60.7399368 147.6876068   9.8760767  60.0444145 147.0281219   9.3570099
  60.9448166 148.5038452   9.1833334  61.9537697 146.9057007  10.1346397
  62.5580368 147.2762756  10.9626722  61.7529106 145.8359222  10.1921244
  62.8524094 147.0130768   8.8825436  63.5741196 146.1980591   8.8278933
  62.2029724 146.8718414   8.0186005  63.5499954 148.3293915   8.8623428
  63.0640640 149.0181427   9.4187508  64.6845398 148.5582123   8.1756334
  65.4768982 147.6229858   7.7314734  65.1255569 146.7127686   7.9925418
  66.3075943 147.8549347   7.2058821  65.1595764 149.7777405   8.0987644
  64.6937180 150.5958405   8.4645538  65.9223785 149.9846649   7.4699430
  58.8152008 149.0632172  11.0266218  58.4900246 149.4343872   9.8689957
  58.0432968 149.1942444  12.0924139  58.4921532 148.9422302  12.9613886
  56.8233261 149.9572144  12.0332088  56.2464333 149.7576141  11.1301851
  55.9126511 149.7046967  13.2695141  56.3742180 149.9350281  14.2297268
  55.0158958 150.3169098  13.1739502  55.4656792 148.2621918  13.3661146
  54.9667282 147.8939514  12.4697123  56.3105698 147.6542358  13.6895962
  54.5218773 148.1217499  14.5010910  54.9967308 147.9119873  15.6555614
  53.2851067 148.0548706  14.2847090  57.1198006 151.4754486  11.9716530
  58.1313248 151.9766083  12.5160856  56.3025131 152.2298889  11.2332287
  55.5329552 151.7753143  10.7628584  56.3506393 153.7372131  11.1948175
  56.5782814 154.0441437  12.2156372  57.5150070 154.2644653  10.2974119
  57.1574478 154.1629791   9.2727394  57.7327194 155.3008423  10.5555344
  58.4303665 153.6872559  10.4279556  55.0785332 154.4595032  10.7309351
  54.3707771 153.8752289   9.9361486  54.7336922 155.5836487  11.3532104
  55.2416039 155.9582672  12.1417408  53.5679092 156.3518524  10.9056940
  53.0183296 155.6875153  10.2388153  52.6355019 156.5914154  12.1100407
  53.0960007 157.4840240  12.5334873  51.5827904 156.7775574  11.8973265
  52.5588150 155.5289154  13.2063808  52.2175941 154.1779327  12.9843102
  52.2609215 153.5226746  14.1508045  52.0897369 152.4575806  14.2022772
  52.5594063 154.4337616  15.1249762  52.7033386 154.1241608  16.0755196
  52.8241196 155.6643219  14.5472364  53.0558929 156.5970154  15.0399342
  53.8992996 157.6517792  10.1337786  52.9940681 158.2522583   9.5450754
  55.1769943 158.0324402   9.9823952  55.8198395 157.4099884  10.4508076
  55.6900673 159.3563232   9.5672894  55.0197525 159.8005676   8.8314800
  55.7708511 160.3325500  10.7872925  56.2755280 159.8887634  11.6454649
  56.2965927 161.2253265  10.4487181  54.3538055 160.7610626  11.2364931
  53.6368141 161.6974792  10.4805918  54.1201134 162.2241516   9.6710014
  52.3449249 162.0480347  10.8605108  51.9020271 162.8947601  10.3572178
  51.7569733 161.4978943  12.0147448  50.6908302 161.5797119  12.1665478
  52.4976463 160.5239868  12.7274828  52.0250664 160.0469055  13.5733337
  53.7875671 160.1654053  12.4171915  54.2823715 159.4476776  13.0547180
  57.1191673 159.2820740   8.8997536  57.8073235 158.2739563   9.1009169
  57.5899048 160.3917694   8.3265162  56.8984032 161.0576019   8.0124922
  58.9904442 160.5218048   7.9666309  59.5391312 160.6114349   8.9041853
  59.3572159 159.6255341   7.4663482  59.3304367 161.8092957   7.1806550
  58.6287498 162.8563690   7.1928391  60.4768257 161.7585144   6.4789009
  60.8544464 160.8219910   6.4586163  61.1001205 162.9024506   5.8129845
  60.3743629 163.6652069   5.5308580  61.9882240 163.6232605   6.8002543
  62.6845627 162.8981934   7.2215309  62.9054604 164.6346741   6.0668707
  62.2942924 165.3525391   5.5198331  63.4721451 165.1887970   6.8151422
  63.5687675 164.2515869   5.2913895  61.2450256 164.2436066   7.8682652
  60.6752625 163.5985107   8.2934837  61.8145752 162.5944061   4.4956288
  62.5668373 161.6263733   4.3538275  61.4989815 163.3467560   3.4034767
  60.8243980 164.0905762   3.5119963  62.0481071 163.1382599   2.0701594
  62.0999146 162.0589905   1.9266315  61.1964226 163.6870270   0.9048073
  61.6713905 163.4682007  -0.0515513  59.8160706 163.1112518   0.7930177
  59.2136269 163.6259460   1.5415146  59.4434738 163.2601776  -0.2204383
  59.8007851 162.0389862   0.9882481  61.0539780 165.0652466   1.0802344
  61.7393608 165.5020905   0.5693316  63.5005226 163.7448578   1.9808277
  63.6813507 164.9455414   1.9368448  64.6023560 162.9301910   1.9056295
  64.3635406 161.9488373   1.9014239  65.9498520 163.4523926   1.6562587
  66.1217804 164.4448090   2.0729721  67.0210037 162.5631409   2.3197300
  67.1336899 161.6016541   1.8187858  67.9694443 163.0932922   2.2330763
  66.7068176 162.3961334   3.3500206  66.2057571 163.5871277   0.1317210
  66.0557251 162.6484375  -0.6565358  66.7268219 164.7541351  -0.3115196
  66.8339767 165.5146942   0.3443568  67.3727264 164.9658356  -1.6349488
  66.9492645 164.2428436  -2.3321235  66.9802551 166.3608856  -2.2209558
  65.8976517 166.4831543  -2.2546122  67.2883377 167.1186676  -1.5005686
  67.4981079 166.7006378  -3.6060886  68.5603104 166.4675293  -3.6801701
  67.0244980 166.0798645  -4.3666406  67.4113770 168.1514130  -4.0671468
  66.5804291 168.9172211  -3.4826417  68.1632462 168.5345917  -4.9818468
  68.8723221 164.7217407  -1.5360079  69.5764389 165.3639832  -0.7540545
  69.4391174 163.9172821  -2.4573262  68.8507538 163.3659515  -3.0655768
  70.8579254 163.7424316  -2.7067575  71.4387665 163.7315979  -1.7844756
  71.2086868 162.4102631  -3.3927257  70.7195663 162.4347687  -4.3665109
  72.6456833 162.3163757  -3.7374914  73.2347260 162.4623260  -2.8320494
  72.9970093 161.4451752  -4.2903867  72.8854294 163.1595612  -4.3853040
  70.7321548 161.2355347  -2.5050499  71.3393478 161.1981659  -1.6006047
  69.6950150 161.4160614  -2.2224462  70.7842255 159.8266296  -3.1107857
  71.7829437 159.4766541  -3.3719077  70.3970184 159.0855865  -2.4114797
  70.1435776 159.7848053  -3.9916468  71.3619156 164.9865875  -3.4277349
  71.1054077 165.1138916  -4.6459880  72.1020432 165.8653717  -2.7268713
  72.1881180 165.7901306  -1.7233624  72.7242355 167.0393829  -3.3737764
  72.1518555 167.2231140  -4.2830172  72.5527649 168.3101349  -2.5998099
  72.8230820 169.1212769  -3.2758701  71.5033646 168.5389404  -2.4140646
  73.3931427 168.3528595  -1.3167105  74.6300735 169.0537567  -1.2916462
  74.9455109 169.5984039  -2.1692986  75.4078674 169.0988312  -0.1313448
  76.3733597 169.5770569  -0.2057065  74.9463348 168.4664307   1.0224320
  75.7303772 168.4257965   2.1475286  76.5266800 168.9452209   2.0145073
  73.6977539 167.9105835   1.0675203  73.2433472 167.6062317   1.9988027
  72.8854294 167.8612823  -0.0897679  71.8762589 167.4765930  -0.0887178
  74.1477280 166.8265533  -3.9181349  74.6240387 167.6887207  -4.6839261
  74.8096161 165.7475586  -3.4384181  74.3107529 165.1716461  -2.7754343
  76.1868591 165.3353119  -3.8375027  76.3279953 165.7966614  -4.8149128
  77.1996765 165.9699249  -2.9205241  76.8022308 165.9159088  -1.9070081
  78.1835709 165.5104065  -3.0148082  77.3393326 167.0302429  -3.1310863
  76.3865204 163.8230591  -3.9149592  75.8242188 163.0588379  -3.0943880
  77.2165222 163.3716125  -4.8944359  77.6596603 164.0636139  -5.4816985
  77.2998505 161.9321136  -5.3161325  77.0298309 161.2483978  -4.5113325
  76.1858902 161.7811279  -6.3931012  75.2200089 162.0962524  -5.9983125
  76.3552933 162.4947052  -7.1994514  76.0445023 160.4513092  -7.0422125
  75.2744675 159.4120636  -6.4198785  74.7351608 159.6193237  -5.5074129
  75.2379761 158.1890259  -7.0642009  74.5098877 157.4427490  -6.7824888
  75.8246002 157.9990234  -8.3578186  75.5975571 156.9099884  -9.1744146
  75.2719345 156.1488953  -8.6882982  76.5633621 159.0383301  -8.8893766
  77.0619202 158.8968964  -9.8369179  76.7530823 160.2642059  -8.2395134
  77.2561035 161.0951385  -8.7116642  78.6970215 161.5918121  -5.8095045
  79.3699570 162.4297791  -6.3962975  79.1548538 160.3620605  -5.6539330
  78.5455704 159.7006531  -5.1941385  80.3767319 159.7353973  -6.1753159
  80.4719849 160.1023254  -7.1972742  81.6393738 160.1389465  -5.3047943
  81.3804169 161.0666199  -4.7944403  81.8347549 159.4606934  -4.4741855
  83.0037766 160.3110962  -5.9617181  83.3082886 159.3734741  -6.4267273
  82.9847260 161.1759949  -6.6248088  84.1125183 160.4770203  -4.9584794
  83.7200851 161.0058441  -4.0898881  84.3463898 159.4965515  -4.5436583
  85.1864548 161.1117859  -5.5685668  84.9756470 161.9965820  -6.0076551
  86.4383316 160.8123627  -5.4030275  86.8971100 159.8502502  -4.7021294
  86.2585602 159.1655121  -4.3233247  87.8834305 159.6362305  -4.7404261
  87.3952026 161.5111694  -5.8916063  87.2037430 162.4036865  -6.3238940
  88.2875748 161.4535370  -5.4220877  80.3702011 158.1579590  -6.3047271
  80.0322876 157.5021362  -5.3082976  80.6114578 157.5461884  -7.4685960
  80.9497299 158.1924133  -8.1672125  80.6662445 156.0955811  -7.6338191
  80.0945587 155.4922943  -6.9286079  80.0657959 155.6784668  -8.9434013
  80.5424194 156.2199249  -9.7605610  80.2464142 154.6171265  -9.1138172
  78.4869690 155.8382416  -9.0625744  77.9390945 155.3728027  -8.2432375
  78.2651062 156.9046326  -9.1033783  78.0812531 155.1460419 -10.3921776
  77.2999649 154.1871185 -10.2430067  78.5038681 155.4557648 -11.5306492
  82.1341934 155.6368256  -7.5728602  82.9841766 156.2552795  -8.2213707
  82.3764267 154.5346069  -6.8703990  81.6070862 153.9847717  -6.5155783
  83.7155609 153.9442902  -6.7397575  84.4228439 154.1405945  -7.5455613
  84.4568329 154.4206085  -5.4710345  83.7390518 154.3511200  -4.6536827
  85.2410049 153.7033539  -5.2286997  84.9956589 155.8636932  -5.6818848
  85.6394882 155.9277191  -6.5590897  84.1914291 156.5801086  -5.8493624
  85.8468475 156.3109131  -4.4886622  87.0653534 156.0168915  -4.3735757
  85.2956772 157.1369781  -3.6992269  83.5685959 152.3629150  -6.8290300
  82.4707260 151.8065643  -6.5955019  84.6285706 151.6580658  -7.1496162
  85.5000992 152.1231995  -7.3597984  84.6861877 150.1731110  -7.3206344
  83.8373795 149.6851501  -6.8415532  84.4796600 149.9612427  -8.8607063
  83.5356674 150.3713684  -9.2195644  85.2260056 150.4924622  -9.4513607
  84.5331573 148.4759369  -9.2666826  85.4116898 147.9227295  -8.9346533
  83.6652374 147.9786224  -8.8336811  84.5941467 148.2967529 -10.8091650
  85.3415146 147.3564911 -11.2345819  83.9518509 149.1537628 -11.5911255
  84.1125107 149.1133423 -12.5874472  83.4707108 149.9529724 -11.2039957
  86.0409164 149.6857910  -6.7221141  87.1320572 149.8503113  -7.3703656
  85.9606705 148.9997864  -5.5834832  85.0568924 148.8050079  -5.1768656
  87.1619110 148.3578949  -4.9626627  87.9447327 148.1419525  -5.6897440
  87.8737335 149.2546082  -3.8605080  87.0780106 149.5331879  -3.1696236
  88.6330948 148.7100067  -3.2993684  88.4612122 150.5317383  -4.4484715
  89.1415482 150.3342133  -5.2768574  87.6512299 151.1579895  -4.8224387
  89.3042831 151.3304596  -3.4687424  88.6848907 152.1062469  -2.7244744
  90.5526047 151.1911926  -3.4832516  86.9830017 146.9210510  -4.3741598
  85.8456497 146.5476379  -4.1883893  88.0493164 146.0971832  -4.1780453
  88.9655075 146.4204712  -4.4540353  87.9739151 144.6835632  -3.6588948
  88.9468079 144.2155457  -3.8090305  87.8242722 144.7322998  -2.1308424
  86.7743683 144.9481659  -1.9328555  87.9328918 143.7249908  -1.7288131
  88.6444778 145.6505890  -1.2999145  89.9750366 145.2857819  -1.0692465
  90.3767471 144.3973083  -1.5336117  90.8605804 146.1673126  -0.4124463
  91.8826447 145.8381042  -0.2967212  90.3537750 147.4077606   0.0863423
  91.2660904 148.2350006   0.7087404  92.1859894 147.9821777   0.6016848
  89.0174332 147.8073730  -0.1639738  88.6441345 148.7165680   0.2837038
  88.1472702 146.8961029  -0.8183733  87.1240540 147.1878204  -1.0036345
  86.9579086 143.7562714  -4.3748703  86.3653412 142.8651428  -3.7927966
  86.6454620 144.0709229  -5.6586838  87.1540222 144.8634491  -6.0238905
  85.6955261 143.2925873  -6.5495863  86.0077515 143.2776031  -7.5938082
  85.6376343 142.2680817  -6.1819673  84.2546768 143.7662201  -6.4511762
  83.4058075 143.0282288  -7.0174322  83.9348145 144.8603973  -5.7613487
  84.7004166 145.3275452  -5.2968817  82.5349960 145.2433319  -5.4749837
  81.8881912 144.5215759  -5.9737892  82.2228851 145.1072693  -3.9185359
  81.1760712 144.8194122  -3.8215060  82.8901062 143.8318481  -3.3857365
  83.9788589 143.7905884  -3.3535550  82.5438385 143.6954803  -2.3612359
  82.4662552 143.0616150  -4.0300817  82.5501633 146.4570312  -3.1603205
  83.5402603 146.8041229  -3.4558198  81.9002151 147.2624969  -3.5022252
  82.3731689 146.3865814  -1.5922539  83.0908508 145.7009277  -1.1417966
  82.4138184 147.3724518  -1.1291145  81.3483658 146.0844269  -1.3764446
  82.2056351 146.6374512  -6.0486250  83.0534744 147.5301056  -6.1286678
  80.9484482 146.9007263  -6.4517365  80.1827621 146.2429962  -6.4167457
  80.4604492 148.3044434  -6.5427694  81.2688751 148.9093781  -6.9533968
  79.2789536 148.4038544  -7.5529165  78.4522934 147.8474731  -7.1111236
  79.0239258 149.4529877  -7.7025132  79.5878143 147.7890625  -8.9042187
  80.5363007 148.1476898  -9.3040562  79.7208710 146.7077179  -8.8714075
  78.4831161 148.1423492  -9.9919977  77.3167191 148.5446014  -9.7888823
  78.8763351 148.2077026 -11.1681185  80.1456299 148.9696655  -5.2139015
  79.6722565 148.3530579  -4.2845612  80.4045334 150.2593079  -5.1607800
  80.7952881 150.7862244  -5.9287443  80.1626282 151.0983887  -3.9406044
  79.2000122 150.7475891  -3.5685658  81.2875443 150.7652283  -2.9754560
  81.2071838 149.7118683  -2.7070041  82.7072144 150.9344177  -3.5400732
  82.7200546 151.8212433  -4.1736765  83.4451599 151.0628204  -2.7482078
  82.9305191 149.9868469  -4.0303426  81.2795563 151.6016235  -1.8908758
  81.8213654 151.2194519  -1.1966169  79.9107437 152.6018372  -4.2855482
  80.2769165 153.0736389  -5.3679800  79.2585373 153.3591156  -3.4113410
  78.9611740 153.0031433  -2.5141454  78.8100052 154.7093658  -3.7636571
  79.5982361 155.1423645  -4.3795414  77.4668884 154.6865845  -4.5756140
  77.5013046 153.9230652  -5.3527703  76.3094177 154.3716125  -3.6777477
  76.1509247 155.1751862  -2.9585488  75.4297180 154.2886200  -4.3159819
  76.5318298 153.3825684  -3.2772014  77.2023468 155.9350739  -5.3129616
  78.0230942 156.0361633  -6.0230746  76.2309189 155.8890686  -5.8052139
  77.0663681 156.7787170  -4.6362967  78.6750946 155.5789795  -2.5513685
  78.1929169 155.0904999  -1.5078743  79.1638947 156.8333740  -2.6217127
  79.5140305 157.0371857  -3.5468946  79.2689514 157.7979126  -1.4906143
  78.8580704 157.3081665  -0.6077604  80.7386246 158.1263885  -1.3620797
  81.0955582 158.9247589  -2.0126965  80.8027191 158.5718231  -0.3693193
  81.7260895 156.9179077  -1.3383147  81.4880600 156.2399292  -0.5186924
  81.6611023 156.2821503  -2.2213125  83.1720810 157.4039154  -1.0829555
  83.4626846 158.1161041  -1.8552492  83.2049637 158.0223389  -0.1859669
  84.2172775 156.2303009  -0.9461864  84.0479584 155.7565460   0.0207629
  84.1141815 155.6015167  -1.8305465  85.6021576 156.7824860  -0.9743683
  85.8049469 157.3434906  -0.1593506  86.2494431 156.0076752  -0.9462857
  85.8483582 157.2441101  -1.8383102  78.3580399 159.0240479  -1.7826787
  78.4199524 159.5778656  -2.9077911  77.4511261 159.3482666  -0.8742675
  77.2936783 158.7732391  -0.0590016  76.4251938 160.3649902  -1.1318122
  76.7483368 161.0099335  -1.9489654  75.1282272 159.7008362  -1.6480464
  74.4906158 160.5095520  -2.0051529  75.4002991 158.7371216  -2.8478312
  75.9472885 157.8776550  -2.4602146  74.4825134 158.4717102  -3.3725436
  76.0472260 159.2675781  -3.5465453  74.3267746 158.9373016  -0.5559872
  73.8965378 159.6303101   0.1670199  73.4124069 158.5291138  -0.9865912
  75.0681076 158.2772522  -0.1055958  76.1145172 161.2607422   0.0773650
  76.2098389 160.8332367   1.1978900  75.7219315 162.4994507  -0.1696900
  75.6490707 162.8159943  -1.1260329  75.3082047 163.4190674   0.8068085
  75.2490234 162.9871368   1.8058269  76.4350052 164.5193939   0.8995131
  76.7695465 164.7200165  -0.1182978  76.0175171 165.4377441   1.3123500
  77.6292496 164.1195068   1.7836171  77.2809830 164.2021027   2.8131742
  77.7976837 163.0540314   1.6270363  78.8132324 165.0809174   1.5571227
  79.5652084 164.8604126   2.3147552  79.1498489 164.8010254   0.5588998
  78.5193939 166.5736389   1.5950800  77.7949448 166.7905121   0.8100752
  78.0041580 166.7023621   2.5469525  79.7737961 167.4375000   1.4792635
  80.1976852 167.2844696   0.5753807  79.4905777 168.3994293   1.6000674
  80.4008789 167.2219543   2.2411087  73.9387054 163.9942474   0.3929276
  73.7734833 164.3694458  -0.7928761  72.9632492 164.0090027   1.3050873
  73.2720337 163.6603699   2.2013047  71.5848999 164.2414246   1.1762174
  71.3696594 164.6480560   0.1880808  70.9682236 162.8316803   1.2380890
  70.8701477 162.3804474   2.2254446  69.9574509 162.9481506   0.8471009
  71.5293427 162.1898804   0.5588760  71.0181122 165.1906433   2.2361097
  71.7062836 165.5001678   3.1956480  69.7918930 165.6765594   2.0657015
  69.2916870 165.5282135   1.2008944  69.2615051 166.6575775   2.9680736
  69.5263977 166.4694977   4.0085344  69.9606094 167.9800262   2.6278892
  71.0016556 167.6588135   2.6616189  69.5237579 168.5116272   1.2731154
  68.5113220 168.9153595   1.2825246  70.1994476 169.2513428   0.8437340
  69.6115799 167.6805878   0.5732941  69.7632523 169.0583954   3.7087994
  68.7147217 169.3469696   3.6351907  70.0221481 168.6686859   4.6932759
  70.5223999 170.4183655   3.5001597  70.1329041 170.8748322   2.5901978
  70.1626587 171.0556946   4.3079419  71.5947647 170.2393494   3.4221723
  67.7454453 166.7451477   2.9832153  67.1361008 166.5507965   1.9610262
  67.1991882 166.9480438   4.1731038  67.7552185 167.1507874   4.9915309
  65.7071686 166.7835693   4.2146277  65.4293137 165.9289246   3.5978010
  65.4360428 166.5254211   5.2383227  64.8986740 167.9739838   3.6555598
  64.8085480 169.0645905   4.2486520  64.1641235 167.6773987   2.6049981
  64.2196579 166.7616272   2.1826560  63.2812347 168.6957092   1.9210193
  63.7589874 169.6700287   2.0237944  63.2071915 168.2913513   0.4864474
  63.0634041 167.2113800   0.5193303  62.4051323 168.6995544  -0.1285002
  64.5313644 168.5446167  -0.3595742  65.3975296 168.1555176   0.1756509
  64.4887161 167.9476013  -1.2705401  64.7265854 170.0476685  -0.7660170
  65.2919922 169.9267883  -1.6900297  63.7804451 170.5527649  -0.9604952
  65.4396591 170.7824860   0.2939496  64.7899094 171.1553345   0.9713767
  66.7119522 171.2734528   0.3386108  67.5946274 170.9176178  -0.5790065
  67.4128571 170.1628418  -1.2250478  68.5269699 171.2994690  -0.6499753
  67.0681686 172.0407257   1.3197914  66.4974213 172.3102875   2.1082652
  68.0110321 172.4027405   1.3124352  61.9658928 168.9236603   2.6534543
  61.5448608 170.0450134   2.9807918  61.2001343 167.8186798   2.8718119
  61.5521278 166.9145203   2.5912483  59.7286644 167.8132629   3.2136483
  59.5632172 168.8126526   3.6160996  58.8975906 167.4896851   1.9289836
  59.0743446 166.4304504   1.7422200  57.8632278 167.7415161   2.1630380
  59.2927170 168.3718719   0.7391815  58.8681831 169.3549194   0.9427969
  60.3643265 168.5682831   0.7048908  58.8338127 167.8384094  -0.5739585
  58.2160072 168.4900208  -1.3742286  59.1840973 166.6073608  -0.9105532
  58.8956070 166.2495880  -1.8099283  59.8691788 166.1078949  -0.3616487
  59.4910774 166.7600555   4.2751560  60.0835114 165.6538544   4.1399279
  58.5635185 166.8919525   5.3009830  58.0857353 167.7796936   5.3621912
  58.0047798 165.8684387   6.1671581  58.8252602 165.1795807   6.3681197
  57.5256004 166.4500580   7.4834814  56.7411842 167.1748352   7.2655487
  57.0246849 165.6753082   8.0639496  58.5745621 167.0607147   8.3376589
  59.3191109 166.3117676   8.6075001  59.0465927 167.9068604   7.8383279
  57.9790459 167.5427551   9.5961294  57.2489891 166.8540497  10.0213385
  58.7849007 167.7404327  10.3029690  57.2020454 168.8317261   9.4623470
  57.6180649 169.5383301   8.8726521  55.9702797 169.1590729   9.9480314
  55.2874870 168.2368622  10.5594244  55.6732063 167.3433838  10.8296337
  54.4165230 168.5237732  10.9827490  55.4354210 170.3406677   9.8578825
  55.9943542 171.0948029   9.4850855  54.6562233 170.5670319  10.4593019
  56.8788910 165.0764008   5.4790683  56.3361588 165.5996094   4.4490361
  56.4439392 163.9615173   6.0236950  56.9432945 163.5925598   6.8203201
  55.2681236 163.2423859   5.4939618  54.4475288 163.9149780   5.2442651
  55.6347275 162.4889374   4.1748815  54.7602806 162.0421448   3.7017865
  55.9426460 163.2185974   3.4259586  56.7907257 161.4094391   4.3244219
  56.5759468 160.2800446   5.1495724  55.6300049 160.1477661   5.6536484
  57.5574989 159.3415527   5.2989950  57.3296318 158.5286102   5.9724860
  58.7704201 159.4744110   4.6227469  59.5046539 158.6857605   4.6957617
  58.9983368 160.6188965   3.7808242  59.8234291 160.5918579   3.0844860
  57.9838333 161.5863037   3.6613104  58.1541862 162.5228119   3.1510732
  54.6070557 162.3010712   6.5197754  55.3679924 161.7954407   7.3767128
  53.2718048 162.0610199   6.4437370  52.7746773 162.5983429   5.7478595
  52.5340576 160.8838348   6.9581475  52.8865051 160.6438446   7.9612880
  51.0789909 161.3176422   6.9580765  50.9646721 162.0907135   7.7179303
  50.7714310 161.7871857   6.0237184  50.0544357 160.1947937   7.2257948
  50.2921906 159.3643799   6.5609746  50.2716637 159.9483337   8.2651062
  48.5153465 160.3771362   7.0720091  48.4021492 160.6656036   6.0269861
  48.1210213 159.3939514   7.3288746  47.8308640 161.3750153   8.0505600
  48.1300583 161.1669159   9.0778284  48.2504196 162.3465271   7.7893515
  46.3442421 161.3943481   7.8473630  45.8026390 160.5941010   8.1412621
  45.9616814 162.2228699   8.2801580  46.1986771 161.5668335   6.8629026
  52.7310791 159.7265930   6.0088639  52.8085327 159.9381256   4.7782755
  52.8768158 158.4929504   6.5306473  52.7317886 158.4116211   7.5268650
  52.8873215 157.1641846   5.8321486  53.2984772 157.2530670   4.8265824
  53.8552246 156.1104279   6.5240164  53.5095367 155.9871674   7.5503726
  53.9174919 154.7257233   5.7372103  54.0368233 154.9138641   4.6702180
  54.7985649 154.1743164   6.0654807  52.9976196 154.1698151   5.9185743
  55.2854881 156.7113190   6.5835299  55.3039627 157.7363129   6.9538651
  55.8376465 156.1614532   7.3456788  55.8024178 156.8281097   5.6310377
  51.4784126 156.6441498   5.7447033  50.6937218 156.7904053   6.6941276
  51.1962776 155.9698944   4.6401119  51.8859100 155.9172058   3.9040885
  49.9642982 155.3199310   4.2948403  49.2593880 155.4278107   5.1191974
  49.3550568 155.9517212   3.0584319  50.0275879 155.7226257   2.2318001
  48.4327965 155.3917847   2.9035020  49.0137749 157.4708405   3.0839667
  49.8911324 158.0594177   3.3521459  48.5675087 157.8925629   1.6828963
  47.6566467 157.4181366   1.3177242  48.4333458 158.9738922   1.7118547
  49.3761597 157.6817322   0.9830781  47.8875465 157.7582092   4.0409274
  48.1035118 157.4930878   5.0759025  47.6222267 158.8140106   3.9862690
  47.0345650 157.1445160   3.7512870  50.0729485 153.8217010   4.0943022
  49.1100922 153.1135712   4.4141488  51.2104759 153.4039917   3.5917702
  51.9734383 154.0475922   3.4375734  51.5547981 152.0381927   3.2552438
  51.4914703 151.2897491   4.0451379  50.6164398 151.5410767   2.1431820
  49.5960693 151.4909821   2.5232263  50.7024765 152.2542114   1.3233395
  50.8766670 150.1547546   1.5827694  51.9010468 150.0554962   1.2237494
  50.5803757 149.4078522   2.3192861  49.9305649 149.8951874   0.3937950
  48.7039185 149.8523865   0.5425046  50.4461975 149.7741699  -0.7275174
  53.0270157 151.9572906   2.8219595  53.6120491 152.9526520   2.4162266
  53.5533981 150.7003784   2.9420319  53.0257072 149.8923187   3.2398205
  54.9252892 150.3217773   2.6122715  55.2439003 151.0999451   1.9186931
  55.8736267 150.3583374   3.7936141  55.6199837 149.5225220   4.4456716
  57.2783203 150.1352692   3.2141218  57.6329346 150.8581543   2.4794064
  57.9686317 150.1829987   4.0563164  57.3371582 149.1694489   2.7122879
  55.9403191 151.6336517   4.6830730  56.8071556 152.2572937   4.4645123
  55.0346909 152.2321472   4.5843768  56.1120415 151.2332764   6.1543632
  57.0278473 150.6555481   6.2793550  56.1912041 152.0808868   6.8350835
  55.2909164 150.6251526   6.5338955  54.8292580 148.9802399   1.8707830
  54.4559784 147.9282837   2.4811323  55.3309937 148.8874512   0.6349941
  55.5933342 149.7671814   0.2138648  55.5536308 147.6634674  -0.1902458
  55.0752602 146.7909698   0.2547432  54.7540550 147.7483368  -1.4929571
  53.7916718 148.1855011  -1.2268667  55.2205505 148.5232544  -2.1012175
  54.6530533 146.4567413  -2.3464291  54.8604774 145.5749512  -1.7402009
  53.5802536 146.3273163  -2.4894295  55.4097595 146.5171204  -3.6561620
  55.2543602 147.5162659  -4.0631819  56.4699821 146.4248505  -3.4205592
  54.9855576 145.4774628  -4.6443720  54.7491798 144.5630035  -4.2866168
  54.7651787 145.5862885  -5.9530187  54.9950905 146.7065735  -6.5662389
  55.0182915 147.5708923  -6.0442171  54.7845535 146.7429962  -7.5533810
  54.4271126 144.5065002  -6.6134248  54.3413353 143.5690460  -6.2474847
  54.5069160 144.5998688  -7.6159286  57.0320740 147.3338318  -0.2330330
  57.8806839 148.1749115  -0.0042080  57.3820915 146.1241302  -0.5899172
  56.6977882 145.4164429  -0.8157957  58.7773628 145.7201691  -0.7583809
  59.4869270 146.5449219  -0.6921135  59.1651917 144.6308289   0.2912381
  58.5303574 143.7534027   0.1678613  60.6471672 144.2378845   0.1958475
  61.2985153 145.0853424  -0.0178080  60.9588470 143.8803101   1.1772215
  60.7843246 143.5242004  -0.6165188  59.0037613 145.1922760   1.6015984
  58.6339455 144.5989380   2.2594535  58.9319763 145.0976715  -2.0925355
  58.1140938 144.1966553  -2.4774075  59.8790627 145.5770264  -2.9189789
  60.4920044 146.3088226  -2.5890009  60.2863731 144.8954315  -4.1510348
  59.4318314 144.4005432  -4.6124873  60.8140182 145.8852386  -5.1955280
  61.5222054 146.5648499  -4.7214937  61.2656403 145.2720184  -5.9753280
  59.7745857 146.6781464  -6.0613723  59.0162201 145.9906769  -6.4360189
  59.3043480 147.2940826  -5.2948160  60.2968369 147.5884399  -7.1510277
  60.3703537 148.8066254  -7.0122623  60.5689583 147.0043182  -8.3244324
  60.9123993 147.6793518  -8.9926262  60.6672287 146.0029907  -8.4126692
  61.2282181 143.7534790  -3.8043261  61.9728813 143.8640594  -2.8157518
  61.2365456 142.7266998  -4.6740837  60.8142090 142.8718719  -5.5799866
  61.7955894 141.3823242  -4.3565650  61.3283577 140.9758759  -3.4595695
  61.5081024 140.3524780  -5.4220614  61.9978256 140.5836182  -6.3680243
  61.9074364 139.4197540  -5.0237403  60.1514473 140.0352631  -5.6740446
  59.9430313 140.6164093  -6.4091873  63.3289566 141.4820251  -4.2289214
  63.9370728 140.5866394  -3.6101785  64.0457230 142.4778595  -4.7523651
  63.5028381 143.2584229  -5.0931034  65.4634094 142.7774658  -4.4627967
  66.1028976 141.8959808  -4.5091701  66.0249557 143.6550903  -5.5622478
  67.1016541 143.8246460  -5.5538611  65.9116669 143.1476440  -6.5202489
  65.3915100 145.0016937  -5.6565747  64.3322067 145.2470398  -5.0279455
  65.9444885 145.8290863  -6.4395571  65.7627945 143.3537292  -3.0465035
  66.9513016 143.5426636  -2.7168059  64.7440796 143.4725800  -2.2187319
  63.8568001 143.3626556  -2.6885822  64.6335449 143.6769562  -0.8052158
  63.7482796 143.1340790  -0.4740147  65.5124512 143.2519836  -0.3204315
  64.4296799 145.1309509  -0.3497718  64.1430130 145.3585815   0.8039176
  64.5002060 146.1128235  -1.2700970  64.7990952 145.8675537  -2.2031562
  64.1826630 147.5105438  -1.0012897  64.7014160 147.7775726  -0.0805924
  64.8354340 148.5098419  -1.9988067  64.6579819 149.5507812  -1.7284706
  66.3929825 148.3902435  -1.9892060  66.6642609 147.3455200  -2.1411042
  66.8987808 148.8621521  -2.8315675  66.9311066 148.6893463  -1.0897316
  64.2165070 148.2689362  -3.4823697  65.0311584 148.4156189  -4.1915455
  63.8003578 147.2617645  -3.5050755  63.1342659 149.3508148  -3.7491062
  63.5452957 150.3577576  -3.8213165  62.6985359 149.0588531  -4.7046170
  62.3128662 149.3178711  -3.0333457  62.7147484 147.8302155  -0.7625912
  61.9146729 147.2176666  -1.3946489  62.3958473 148.7827454   0.1079985
  63.1299477 149.3005676   0.5695760  61.0336685 149.0999451   0.3752984
  60.3292046 148.3890839  -0.0565695  60.7393646 149.1879578   1.8289374
  61.1375999 150.1227417   2.2234907  59.6774483 149.0013885   1.9890087
  61.3807411 147.9969635   2.6072168  61.3063278 147.1249084   1.9575316
  62.4150543 148.2996521   2.7705410  60.7298813 147.8050537   4.0259638
  61.1476364 148.3886261   5.0232081  59.6857605 146.9927826   4.0692501
  59.2724266 146.7768097   4.9651356  59.4294662 146.4213562   3.2768648
  60.6776733 150.3460693  -0.3686334  61.4942513 151.2113342  -0.7405296
  59.3511581 150.4608154  -0.6390024  58.7416954 149.6804047  -0.4399659
  58.7644005 151.6076202  -1.3021091  59.4306068 152.4575806  -1.4498148
  58.3192215 151.1078339  -2.6751082  57.8513718 150.1233521  -2.6788335
  57.5632324 151.8151703  -3.0160701  59.4867439 151.1616058  -3.7167330
  60.4719009 151.1237183  -3.2518342  59.4900932 150.2239685  -4.2725544
  59.4773140 152.2881317  -4.7402864  59.2573967 153.4663391  -4.4925971
  59.7478905 152.0075989  -6.0022035  59.6922379 152.7684021  -6.6641560
  59.9353294 151.0574646  -6.2889171  57.5197525 152.0896301  -0.5920233
  56.4572372 151.4426575  -0.5831056  57.6212120 153.2864227   0.0120488
  58.5208893 153.7331543  -0.0933458  56.5324631 153.9051361   0.8246003
  55.9002228 153.1405334   1.2759968  57.2402458 154.6707001   1.9417142
  57.7750359 155.5267639   1.5302987  56.5111465 154.9493103   2.7025640
  58.0311394 154.1185760   2.4493892  55.6467857 154.9043274   0.0040236
  56.0848694 155.8227997  -0.6657888  54.3044167 154.7822418   0.1779282
  54.0119705 154.1799316   0.9340999  53.2768517 155.7551727  -0.2611281
  53.6409225 156.3825989  -1.0746920  52.0084610 155.0734100  -0.6628085
  51.8231659 154.2703400   0.0505308  51.2058563 155.8076172  -0.5929053
  52.0631676 154.4951630  -2.1132085  52.5836525 155.1231232  -2.8363028
  52.5369530 153.5146027  -2.0670023  50.6482811 154.4801025  -2.7267635
  49.9788933 153.9516449  -2.0479827  50.3328362 155.5209656  -2.7988596
  50.5590324 153.9456635  -4.1829038  49.5989799 154.2058258  -4.6286874
  51.2744675 154.5200806  -4.7713742  50.7790680 152.4668274  -4.2684155
  49.8971901 152.0291443  -4.0429707  51.0449982 152.1668549  -5.1954517
  51.4448624 152.1221771  -3.5916331  53.1299286 156.6593323   0.9782673
  52.9165230 156.2206573   2.1260295  53.2573738 157.9783630   0.6969179
  53.4480400 158.2664185  -0.2521701  53.2490082 159.0046844   1.7530394
  52.8669930 158.4954071   2.6377954  54.7746506 159.3846436   2.0360522
  54.6738625 160.0102692   2.9229152  55.7578468 158.2745972   2.3964815
  55.7400780 157.5350037   1.5959888  56.7637444 158.6923523   2.3546648
  55.4862289 157.8290558   3.3534720  55.4185753 160.2133179   0.9281509
  54.8189087 161.0798340   0.6494608  56.3193283 160.6395569   1.3698171
  55.6124229 159.5964508   0.0506586  52.3870583 160.1907654   1.3272208
  52.0634270 160.3538208   0.1821481  51.9722099 161.0543976   2.2785091
  52.2281227 160.8559418   3.2351825  51.4548225 162.4030914   1.9620706
  51.3843994 162.5467529   0.8838771  50.0327377 162.5014801   2.5778005
  49.4157486 161.6527863   2.2825880  50.1055603 162.5082703   3.6653440
  49.4168472 163.8563232   2.2799826  50.0114708 164.6583252   2.7173696
  49.3000908 163.9853821   1.2039623  48.0144691 164.0721436   2.9118993
  47.1355743 163.2195282   2.8499343  47.7289696 165.2265015   3.5232928
  46.8166008 165.4032135   3.9188476  48.4373817 165.9307404   3.6726665
  52.4634171 163.4439850   2.5893219  52.7183380 163.3832855   3.8010671
  52.9339752 164.4098358   1.8420126  52.5477524 164.4519653   0.9097216
  53.8044434 165.4682465   2.2605762  54.6503906 165.0479889   2.8045087
  54.4813995 166.1116486   1.0401266  53.7031631 166.1457672   0.2777074
  54.8264008 167.6527405   1.2290964  55.5214195 167.7970276   2.0562825
  55.3601189 168.0322113   0.3577506  53.9319916 168.2734222   1.2828840
  55.6993790 165.3941345   0.5074677  56.0087318 165.9472046  -0.3793927
  56.4893303 165.6096497   1.2269340  55.6063042 163.9020538   0.1645360
  54.6254234 163.6232452  -0.2204947  56.2769775 163.5527496  -0.6205044
  55.7930641 163.3330688   1.0752944  53.0741539 166.4771729   3.1724160
  52.0491142 167.0787354   2.8497427  53.6380730 166.6457672   4.3656263
  54.5842743 166.3239288   4.5113025  53.1219711 167.4958191   5.4294829
  52.0474930 167.5067749   5.2465234  53.4001541 166.8517914   6.7974854
  54.4455605 166.5570068   6.7061691  53.3466988 167.5672607   7.6180573
  52.5256310 165.6820374   7.1655841  52.3844948 165.0117035   6.3177357
  53.0565453 164.9692383   8.4162169  52.9759712 165.5901794   9.3084278
  52.4520950 164.0878754   8.6305761  54.0582428 164.5839691   8.2257671
  51.1163292 166.1192017   7.5301685  50.5210114 166.5638123   6.7326555
  50.5554199 165.2666016   7.9129872  51.0944862 166.8569641   8.3322487
  53.6789703 168.8833923   5.4097095  54.8891602 169.1021576   5.3833332
  52.7330284 169.8625183   5.4130411  51.3257980 169.7190399   5.2291193
  50.9029274 169.1175690   6.0338144  51.1421242 169.3174896   4.2325644
  50.7302208 171.0915985   5.2121325  50.5294456 171.4768829   6.2118020
  49.8273773 171.0751648   4.6016378  51.8324432 171.8871002   4.4706020
  51.6483994 172.9576874   4.5604382  51.8360863 171.6325531   3.4107454
  53.0897675 171.2390900   5.1399093  53.9544868 171.3546295   4.4864440
  53.4669151 171.9568024   6.4253435  52.9767609 171.6609344   7.5145001
  54.2614441 172.9860687   6.2501955  54.5828629 173.2933350   5.3433452
  54.5081024 173.9410400   7.3179817  54.7932053 173.4801636   8.2637157
  55.7679367 174.8181000   6.9222093  55.7216911 175.1475830   5.8842335
  55.8444252 175.7098541   7.5443110  57.0738716 173.9598999   7.0616279
  56.9895554 173.0931702   6.4060588  57.9612427 174.5029297   6.7363634
  57.2646332 173.4844818   8.5295229  57.8449516 174.2593231   9.3297338
  56.9904175 172.3387604   8.9472189  53.2900467 174.8732758   7.4685965
  52.7418709 175.4718628   6.5457120  52.7276306 174.9067078   8.7155981
  53.1011696 174.4300995   9.5239391  51.6512680 175.8460541   8.9842482
  51.0629005 175.9280701   8.0703573  50.7117882 175.3313599  10.1181040
  51.2882614 175.0682220  11.0049715  50.0386772 176.1689148  10.3012333
  49.9404221 174.0441589   9.6315775  49.6108627 174.1694641   8.6001749
  50.6830177 173.2469635   9.6654949  48.8027344 173.5990143  10.5481024
  48.4550858 172.6782990  10.0795479  49.1291542 173.4455261  11.5766897
  47.7386284 174.5958557  10.4854012  47.8730583 175.3733826   9.8549471
  46.4968948 174.5743103  10.9760618  46.1764793 173.7243958  11.8573713
  46.8980560 173.1028595  12.1937141  45.2519226 173.5555878  12.2272444
  45.6347885 175.5080109  10.6805334  45.8432350 176.1779327   9.9540005
  44.6676598 175.4346313  10.9622927  52.2851677 177.1932678   9.2212133
  52.6898994 177.3944244  10.3435869  52.1951523 178.1376648   8.2990055
  51.9436111 177.8778076   7.3559785  52.6187172 179.5810089   8.4590397
  53.5031013 179.6955109   9.0858221  52.9472046 180.2026672   7.0737028
  52.1940193 180.0535736   6.3000202  53.0207558 181.7420197   7.1556120
  53.4125900 182.1151123   8.1018562  53.6264114 182.0818176   6.3154836
  51.9789810 182.0543213   7.0830097  54.3369751 179.6815948   6.6452675
  54.2664719 178.6424103   6.3239961  54.6730309 180.2553558   5.7815666
  55.0802498 179.9055634   7.4104357  51.3978157 180.2923737   9.0824003
  50.3548470 180.4455261   8.4253368  51.4838142 180.5945129  10.3698997
  52.3587761 180.3688354  10.8211317  50.4989204 181.4098663  11.1125879
  49.5356560 181.2942963  10.6157312  50.2200508 180.8863678  12.5304079
  51.1209335 181.0361938  13.1254368  49.4454880 181.4716492  13.0259867
  49.7967567 179.4207306  12.6121292  50.4933510 178.8145905  12.0329456
  49.7115974 178.8842926  14.0709658  49.1039085 179.5474854  14.6866083
  49.4024773 177.8411102  14.0053530  50.7138100 178.8157654  14.4940176
  48.4436760 179.1623840  11.9607449  48.3932953 179.4390411  10.9076424
  48.3280640 178.0832214  11.8601093  47.6443634 179.7245331  12.4436550
  50.8446388 182.8710480  11.0605183  52.0215912 183.2650146  11.3976717
  49.8589783 183.7018738  10.6459541  48.5457230 183.4159393  10.0536089
  47.9784927 182.7228851  10.6749115  48.5921249 182.9449158   9.0717344
  47.7844200 184.7236938   9.8503036  47.1536140 184.9832001  10.7005005
  47.0990486 184.6311646   9.0078068  48.9466133 185.6800232   9.7234755
  48.5861053 186.6194458  10.1425257  49.2831726 185.6807098   8.6867371
  50.0987625 185.1391907  10.5639763  51.0247650 185.3420563  10.0259552
  50.2148323 185.7186890  11.9808912  49.9011269 184.9757996  12.9394693
  50.5778427 187.0113220  12.1294193  50.7961845 187.5319824  11.2919540
  50.7974968 187.7321625  13.4049740  51.6420021 187.2164001  13.8620405
  51.1451912 189.2117462  13.0659609  52.0447731 189.2761383  12.4538260
  50.4002686 189.7076111  12.4436235  51.3159180 190.0270386  14.2106295
  50.7658539 190.8052673  14.0949812  49.5714836 187.6225433  14.2794924
  48.4725571 187.8307800  13.7588806  49.6744728 187.3534698  15.5882511
  50.5751343 187.1810608  16.0115547  48.4878502 187.0213013  16.4123936
  47.9888077 186.2428894  15.8352242  48.8843994 186.4254456  17.7632923
  48.1474113 186.4406891  18.5662346  49.4066696 184.9653015  17.7435303
  50.2162933 184.8999481  17.0166607  49.7305603 184.7531433  18.7624435
  48.5030708 184.4538574  17.4118195  49.9176025 187.3116150  18.1989403
  50.0590553 187.2680359  19.1474609  47.6064072 188.2170563  16.6706562
  46.4052086 188.0141602  16.9581070  48.0866547 189.4145203  16.4345074
  49.0735435 189.4918518  16.2340469  47.2687035 190.6622314  16.5785179
  46.4529495 190.5318298  17.2896004  48.1242714 191.7630768  17.1578465
  48.9162636 191.9796295  16.4409389  47.4805565 192.6352386  17.2721195
  48.7426720 191.4998627  18.4629745  49.0944862 190.4683533  18.4451275
  49.5901299 192.1753387  18.5798607  47.6375504 191.6182098  19.9138832
  47.6930962 189.9208374  20.4625988  48.7161942 189.6040955  20.6652031
  47.0704231 189.7912292  21.3477974  47.2422562 189.2458344  19.7351265
  46.6228752 191.0457916  15.2929735  45.8919754 192.0350647  15.3047142
  46.9166336 190.3838501  14.1121902  47.4214897 189.5094910  14.0851555
  46.4832993 191.0113373  12.7746840  46.8114281 192.0506134  12.7930803
  47.2734642 190.4119415  11.6084957  47.2047882 191.1135101  10.7771187
  48.3285637 190.4164581  11.8820715  46.8546677 189.1434174  11.1223907
  47.2678833 188.9604950  10.2754011  44.9894562 191.0276184  12.4003820
  44.5044289 192.0138245  11.7828407  44.2453423 190.0379486  12.9262333
  44.6890526 189.2538452  13.3827372  42.7704239 189.9599609  12.8371973
  42.4836617 190.2165375  11.8173752  42.2595367 188.5524445  13.1593990
  42.4191093 188.5574341  14.2376451  41.1926460 188.4712067  12.9514370
  42.8170357 187.7279205  12.7150316  42.0973129 191.0897522  13.6787052
  40.9325981 191.3246613  13.6655130  42.8935356 191.7808075  14.5465508
  43.8917084 191.6293945  14.5178976  42.4186058 192.7238464  15.6165972
  41.3372116 192.6018219  15.5549345  42.7992020 192.1851654  17.0397778
  43.2294006 191.2009430  16.8544521  43.8027763 193.0189819  17.8043919
  43.4654121 194.0434418  17.9617062  43.9595337 192.5709381  18.7856064
  44.7624130 193.0162964  17.2874813  41.5988121 191.8792725  17.8683472
  41.0897064 191.0078583  17.4566021  41.9166527 191.6992950  18.8953247
  40.8945198 192.7110291  17.8522549  42.7497635 194.2451324  15.4677401
  41.8729630 195.0737305  15.7487202  43.9472504 194.6084900  15.0163202
  44.5980911 193.8457642  14.8948851  44.4930611 195.9691315  14.8442364
  44.1888199 196.5768890  15.6963911  46.0776405 195.9016571  14.9852114
  46.4872284 196.9011841  15.1310978  46.2923126 195.3650055  15.9093399
  46.7969894 195.0951080  13.8183098  46.5347099 194.0442047  13.9403534
  46.3992310 195.3275909  12.8304634  48.3291740 195.3018036  13.8030357
  48.8292961 195.9906921  14.6147013  49.0528526 194.7408905  12.8312464
  50.0394859 194.9568634  12.8332033  48.6506004 194.1190796  12.1444817
  44.0618401 196.7908783  13.6716795  44.8156128 197.5014801  13.0582285
  42.7511139 196.6583862  13.2911568  42.1888046 196.0172729  13.8323593
  42.0518494 197.3451538  12.1532373  42.7895851 197.4175110  11.3541040
  40.8228340 196.5245667  11.7412739  40.2855911 196.1164703  12.5973930
  40.1553650 197.2010498  11.2074614  41.2811546 195.3771210  10.8235559
  42.0178337 195.7998810  10.1404200  41.9491463 194.2076263  11.5299950
  41.5481339 194.1077118  12.5386114  41.7925301 193.2263489  11.0820398
  43.0133095 194.4145355  11.6433220  40.0784187 194.8310547  10.0093336
  39.5926704 195.6277466   9.4459267  40.3216591 194.0243988   9.3177748
  39.3553085 194.4429932  10.7267122  41.7291145 198.8087616  12.4497480
  40.5630455 199.2705536  12.5327578  42.7860184 199.5394592  12.7361832
  43.6873360 199.1011505  12.6112175  42.7825623 200.9086914  13.2201099
  41.9319496 201.4663391  12.8282108  42.6260872 200.8972015  14.7762032
  42.7880630 201.9195862  15.1176643  41.5900383 200.6873169  15.0420170
  43.5113182 199.9001770  15.6037817  43.1666756 198.8703003  15.5105906
  44.5444489 199.9722748  15.2638721  43.6204414 199.9964600  17.1123962
  44.3426056 199.3173065  17.7369843  42.8797569 200.9138641  17.6980152
  42.7425423 200.8441010  18.6962166  42.3108940 201.5726471  17.1856709
  44.1024971 201.6218719  12.8184528  45.1089401 200.9411316  12.6215200
  44.1406441 202.9338226  12.7447319  43.2849808 203.4519653  12.8843069
  45.2767639 203.6829224  12.2752066  45.4150391 203.4710846  11.2149687
  44.9243469 205.2040710  12.2191019  45.7787971 205.8010101  11.9002361
  44.1144867 205.3845062  11.5122309  44.5095253 205.5839691  13.5899239
  44.0897827 206.4440613  13.5145674  46.6085320 203.4958496  13.0738726
  47.6958656 203.8827820  12.5765781  46.5696411 202.8340912  14.2329531
  45.6772499 202.5409241  14.6041479  47.7961922 202.4021454  14.9748936
  48.5012779 203.2332611  14.9892883  47.3794518 202.0667419  16.4488964
  46.4475822 201.5013275  16.4458523  48.0741196 201.3536682  16.8928204
  47.3011742 203.2427063  17.4103069  48.2917252 203.6807556  17.5328751
  46.2088318 204.3142090  17.1598701  45.2418518 203.8257751  17.0395279
  46.1788101 205.0541687  17.9596519  46.4579163 204.8115082  16.2224522
  46.8477020 202.5470886  18.7377892  47.4719200 201.6650238  18.8807259
  46.9431229 203.1826630  19.6181469  45.8110771 202.2487640  18.5812244
  48.5858040 201.2345123  14.2990351  49.7554321 200.9663086  14.6872511
  48.0913277 200.5553894  13.2380743  47.1686592 200.8346405  12.9367409
  48.6640587 199.2339325  12.8098507  48.6548996 198.5641632  13.6697559
  47.7253113 198.5931702  11.7145977  48.1371918 197.6288910  11.4168787
  46.7488327 198.3707123  12.1448317  47.4797249 199.4692078  10.6269245
  46.7308006 200.0489197  10.7839441  50.1142616 199.2742157  12.2434702
  50.9903412 198.4559631  12.4741735  50.3809166 200.4324341  11.5925455
  49.5631638 200.9804230  11.3664904  51.6181145 200.9562378  10.9489641
  52.0422707 200.1422882  10.3610210  51.2432632 202.0453186   9.9566422
  52.0846901 202.1735077   9.2757111  50.4795914 201.5616455   9.3475628
  50.8497467 203.3590851  10.5841513  49.9823074 203.1660309  11.2153215
  51.6788864 203.6707611  11.2193737  50.5641670 204.5358582   9.6474915
  51.4254150 205.0646057   9.2391005  49.9688721 204.0814667   8.8554983
  49.7159348 205.5762787  10.2283392  48.7361450 205.5234680   9.9889069
  50.0560341 206.6714020  10.9097881  51.2867393 206.9320374  11.1584129
  52.0461845 206.4629517  10.6858568  51.4267960 207.6106110  11.8932667
  49.1858292 207.5284271  11.3909283  48.1979485 207.3231201  11.3456812
  49.5410805 208.3633575  11.8345242  52.7440796 201.3896027  11.9225235
  53.6662331 202.1140594  11.5031319  52.7220268 200.9144897  13.1783419
  52.1286469 200.1207733  13.3733168  53.8400497 201.2110138  14.1345377
  54.2504272 202.1940765  13.9037628  53.2704201 201.3062286  15.6016798
  52.7507133 200.3744812  15.8249426  54.1375504 201.3512878  16.2605915
  52.3524475 202.5728455  15.8789396  52.9351997 203.4710693  15.6747646
  51.5324173 202.6159973  15.1621494  51.8867035 202.7289581  17.3523407
  51.1226921 203.5052643  17.3108501  51.5044022 201.7654877  17.6894989
  52.9026985 203.1982727  18.3580608  53.3306198 204.0642242  18.0629082
  52.8404579 202.9640503  19.6498299  52.0003586 202.1289673  20.2392216
  51.4801445 201.5070343  19.6369858  51.9028282 202.0318146  21.2397957
  53.5501671 203.7061005  20.4891624  54.3114700 204.2666779  20.1338367
  53.4090691 203.5910797  21.4826221  55.0347328 200.2146149  13.9382839
  55.1362953 199.2439270  14.6727152  55.8145790 200.4152985  12.8358135
  55.6323662 201.2420044  12.2849560  56.7117119 199.4221344  12.1830311
  56.2947502 198.4261322  12.3320646  56.6472931 199.5996857  10.6431894
  55.8405266 200.1993256  10.2216969  57.6063004 200.0681915  10.4220657
  56.6026268 198.3108063   9.8200445  57.2965088 198.0270996   8.6492996
  57.0557747 196.7811737   8.3265972  57.2988014 196.2832794   7.3995428
  56.1750603 196.2669678   9.1851997  55.8388939 195.3145752   9.1779995
  55.8786621 197.2174530  10.1397572  55.1592598 197.0533142  10.9283781
  58.0714989 199.2616272  12.7410793  58.5883522 200.1048431  13.4862032
  58.7890167 198.2030334  12.3310404  58.4232330 197.6016083  11.6067457
  59.8834877 197.6082764  13.1059608  59.6135712 197.8070526  14.1431379
  59.8592873 196.0778046  13.0631418  60.6128197 195.7503815  13.7794399
  58.4649544 195.5270081  13.4399290  57.7882423 195.5782776  12.5869722
  58.5982475 194.4605255  13.6214533  58.0587921 195.9282227  14.3684568
  60.2531471 195.6079102  11.6262779  59.5526199 196.0785675  10.9364624
  61.2411766 196.0215302  11.4242287  60.3367615 194.0641937  11.5259132
  59.3310089 193.6674957  11.6644745  60.6800194 194.0251160  10.4921103
  61.0647011 193.6516266  12.2244720  61.2691689 198.2958679  12.9992123
  61.5090561 199.0184021  12.0365763  62.3169899 198.1851196  13.8043432
  63.0382957 198.8524170  13.5708246  62.8112488 196.9895630  14.5770864
  63.8205605 197.1819153  14.9409447  62.0454865 196.8629608  15.8697662
  61.0695724 196.4288788  15.6523409  62.5697937 196.1233368  16.4748936
  61.8100929 198.1241760  16.7484417  62.7616920 199.1343689  16.8628292
  63.6911430 198.9682922  16.3384762  62.6409111 200.2137299  17.7237091
  63.3851204 200.9643860  17.9452267  61.4474525 200.3043518  18.5212326
  61.3700180 201.1030884  19.2440281  60.4422951 199.3206177  18.4131317
  59.5366707 199.4104004  18.9946671  60.6068153 198.2092438  17.5148582
  59.7476845 197.5579681  17.4505882  63.2236137 195.7388763  13.6713419
  63.4223289 195.9872742  12.4852762  63.4136848 194.5460052  14.2799044
  62.5091782 193.9164276  15.1662855  61.4763336 194.2417603  15.0417929
  62.7946739 194.0313416  16.2119427  62.5762520 192.3725433  14.9039192
  61.8642387 192.0830994  14.1310310  62.4385948 191.8104401  15.8276014
  63.9399948 192.0652313  14.2110977  63.8195457 191.6010284  13.2322607
  64.5948944 191.4188690  14.7954197  64.5208664 193.5249481  14.0130205
  65.2494812 193.6522522  14.8136606  65.2295532 193.6893158  12.6637793
  64.5229340 193.5075836  11.6058960  66.5610199 193.8744202  12.5534039
  66.8329697 193.9077759  11.5812769  67.6420746 194.2009583  13.5623827
  68.5151596 194.5164185  12.9911528  68.0538788 192.9775543  14.3766613
  68.8427200 193.2962799  15.0580158  67.2055283 192.6238556  14.9625740
  68.4873962 191.9218292  13.5473404  68.6457291 191.1718140  14.1252756
  67.4016113 195.3254547  14.6112518  66.3074951 195.8545990  14.8049202
  68.5372162 195.7252045  15.2614918  69.4229813 195.2815247  15.0648613
  68.5252609 196.5433655  16.4827919  67.6790009 197.2268982  16.4140148
  68.2117386 195.6091156  17.7336597  67.5738373 194.8899536  17.2198620
  69.1340408 195.0852966  17.9848194  67.5334930 196.2158508  18.8271751
  68.1520996 196.5421143  19.4847984  69.7696304 197.4198303  16.8343105
  69.8798904 197.8450623  17.9801369  70.8316574 197.7315826  16.0690269
  71.4223404 198.3627014  16.5914059  71.5748978 197.1181335  14.9639130
  72.5792313 197.5379486  15.0202856  70.9157410 197.5164948  13.5851259
  69.9100189 197.0980682  13.5458479  70.8476944 198.6003418  13.4916925
  71.7061081 197.0114746  12.3077354  71.9421387 195.9525452  12.4130096
  70.9629822 197.1258545  11.5185709  73.0565186 197.8726349  12.0635777
  73.2956390 198.3858490  12.9949970  73.9445038 197.2997284  11.7964544
  72.8347931 198.9679565  11.0060930  71.9475708 199.4857635  11.3705406
  73.6958618 199.6318207  10.9289865  72.6031647 198.3531647   9.6793470
  71.9405823 197.5952148   9.7605810  72.2369537 199.0121307   9.0072193
  73.4659042 197.9781342   9.3117399  71.7863007 195.6412811  15.1841841
  71.0487518 194.8749237  14.6156530  72.6654663 195.2240906  16.0838680
  72.5492935 194.0121460  16.8713856  72.4494629 193.1824951  16.1715164
  71.6694107 194.1501465  17.4997692  73.8288345 193.8632660  17.6776600
  74.0166016 192.8023224  17.8426914  73.7165375 194.4717255  18.5750351
  74.8819275 194.5287781  16.7809505  75.7275543 194.9293671  17.3400040
  75.1874771 193.8470001  15.9872770  74.0584564 195.6285706  16.0823898
  74.4183426 195.6175079  15.0535707  74.3595810 197.0477905  16.6013241
  73.7505646 197.4727478  17.5958672  75.4412766 197.6086884  16.1058369
  75.8601990 197.1063385  15.3362598  76.2343903 198.7389069  16.6388988
  77.0650177 198.8536682  15.9424839  75.4529572 200.0401154  16.5142460
  74.8152008 200.0140839  15.6306829  74.7846069 200.2008972  17.3601475
  76.3349075 201.3114471  16.3478279  76.7928314 201.4823456  17.3220978
  77.1537476 201.1837463  15.6398077  75.5562668 202.5728760  16.0963173
  74.7884903 202.6027679  16.8694477  76.2454758 203.4102173  16.2056980
  75.0103683 202.7098083  14.6713753  75.7037430 202.1885529  14.0113525
  74.0667343 202.1676636  14.7324944  74.9119186 204.1731415  14.2407179
  75.8421021 204.5602264  14.3115835  74.5436325 204.3365479  13.3145638
  74.2927628 204.6645355  14.8694220  76.8970184 198.4165649  17.9679356
  77.9976425 198.9266968  18.2001057  76.2780457 197.6374054  18.8422432
  75.3520203 197.3176270  18.5966396  76.7509003 197.2735596  20.2158604
  77.4818573 198.0182800  20.5307999  75.5327835 197.3610382  21.2397251
  75.8964233 196.9893951  22.1977196  75.1696014 198.8065186  21.4308796
  74.7345886 199.3478851  20.5907688  74.2977219 198.8486786  22.0836754
  75.9627838 199.3650665  21.9278679  74.2306442 196.5641174  20.8054104
  74.4797745 195.7118073  20.1732597  73.6389236 196.1424866  21.6179371
  73.6240616 197.1751709  20.1369839  77.4530258 195.8398132  20.4199848
  77.9163666 195.5072174  21.5814095  77.6517105 195.0443115  19.3228130
  77.4908218 195.4298401  18.4032536  77.8673325 193.6321259  19.4712677
  77.7966537 193.2078552  18.4697189  79.3684464 193.2510986  19.8172054
  79.6002274 193.5774841  20.8310394  79.6081467 192.1879272  19.8000317
  80.4092636 193.8300171  18.9319706  81.2953644 194.7322083  19.3426685
  81.3681870 195.0939484  20.3576775  82.0812454 195.1087494  18.2655544
  82.8602600 195.7510834  18.2909126  81.7236481 194.4185181  17.1275978
  82.2367706 194.4966583  15.7946310  83.0532532 195.1408844  15.5035267
  81.7131042 193.6815491  14.8145008  82.0956879 193.7486267  13.8067665
  80.7669296 192.7538910  15.2560625  80.4981461 192.0269470  14.5039301
  80.2626724 192.6338196  16.5555878  79.4824142 191.9384155  16.8276405
  80.6828766 193.5441284  17.5644741  76.8233490 192.9470978  20.4351349
  75.6430130 193.3143005  20.4597607  77.2807541 191.9926453  21.2763958
  78.2867126 191.9594269  21.3603344  76.4566269 191.3513031  22.2905331
  77.2385330 190.8733673  22.8807087  75.4862061 190.2792053  21.7786255
  74.8541641 190.1081848  22.6500473  74.8341599 190.7643433  21.0522861
  76.1722412 189.0227509  21.1999226  75.4289169 188.3787079  20.7300549
  76.8628922 189.3752136  20.4338417  76.8707123 188.1778412  22.2589397
  77.1587906 188.5897827  23.3698044  77.3696899 187.0105438  21.9063797
  77.9981689 186.5182800  22.5250854  77.0367126 186.5023499  21.0995464
  75.9516983 192.3304138  23.3936424  75.7281799 193.4793243  23.1973534
  75.9820557 191.7396698  24.5625019  76.2428207 190.7640228  24.5477276
  76.1599655 192.2625732  25.9361343  75.8176498 191.4165192  26.5320358
  77.6728439 192.4234619  26.3422127  77.8691940 192.7078857  27.3759727
  78.0208130 191.4280701  26.0661259  78.4530029 193.4618378  25.5379333
  78.5751877 194.5710907  26.0691147  78.9782486 193.2155914  24.4025536
  75.3717651 193.5993805  26.2352943  75.4293060 194.6938782  25.6376038
  74.5809097 193.4730377  27.3158627  74.5347672 192.5627747  27.7510395
  73.8506317 194.5747833  27.9837437  73.0760880 194.0531006  28.5458946
  74.7884521 195.2363586  29.1132011  74.2068405 195.9718475  29.6689796
  75.0647354 194.4276886  29.7898159  76.1176834 195.8997040  28.7728634
  76.8239136 195.4987183  29.4998837  76.4739075 195.6326294  27.7779350
  76.0435944 197.4681091  28.7785645  75.2285690 197.8636169  29.3847065
  76.9854202 197.7224121  29.2647705  76.0771027 198.0969238  27.4214802
  75.3440704 198.7658844  27.2336922  77.1462631 198.3559113  26.7269650
  78.2263336 197.6052856  26.6739483  78.2025375 196.7351990  27.1862850
  79.0284729 197.8043060  26.0933800  77.0789108 199.3392029  25.9158630
  77.8155289 199.5324097  25.2524147  76.3032379 199.9855652  25.8904324
  72.9835358 195.5719604  27.1198921  72.4926300 195.1206818  26.1047325
  72.5478210 196.7561798  27.6846695  72.6436920 196.8652802  28.6841736
  71.6448059 197.7271729  27.0831738  71.5043259 198.5042114  27.8345566
  72.3962021 198.3144531  25.9155617  72.7407074 197.6775360  25.1008472
  71.8184891 199.0651855  25.3763695  73.2974625 198.8421631  26.2275696
  70.1471786 197.4682770  26.7898636  69.2716980 198.2249451  27.0097866
  69.8693619 196.3607330  26.1305256  70.6148682 195.7187195  25.9022007
  68.5882721 196.1783447  25.3785381  68.1760101 197.1632385  25.1591949
  68.8843842 195.6123352  23.9842014  67.9119339 195.4923401  23.5066566
  69.4157333 196.3364410  23.3665810  69.5577850 194.2756195  23.7726936
  69.3385391 193.1204071  24.5724583  68.6746902 193.1936951  25.4211845
  69.9747543 191.9005127  24.2002583  69.8650665 191.0145569  24.8080902
  70.7444687 191.8162994  23.0112820  71.2762070 190.9176788  22.7353630
  71.0226669 193.0169373  22.2623882  71.6680222 192.9880524  21.3968925
  70.3778839 194.2354584  22.6268368  70.5984573 195.0700531  21.9778309
  67.3757019 195.5321350  26.0710506  66.2801285 195.4417267  25.5356102
  67.5571671 195.1392059  27.3822441  68.5242920 195.2305450  27.6587200
  66.5640869 194.4394989  28.2530441  66.1599808 193.6154480  27.6650524
  67.0229874 194.0372314  29.6790466  66.6886673 194.7342377  30.4474983
  66.5842743 193.0497284  29.8220558  68.5556107 193.9505005  29.8466454
  68.7505875 193.0869293  30.4825096  68.9934692 193.6916809  28.8825932
  69.1967087 195.1676025  30.5030422  70.2576828 194.9545593  30.6336212
  69.0228424 196.0201721  29.8465405  68.7257233 195.4627075  31.8513145
  68.1315994 194.7994537  32.3279877  68.8976746 196.6254883  32.4830246
  69.4382477 197.6748199  31.9622669  69.7623138 197.6718903  31.0056744
  69.3265915 198.5885925  32.3778114  68.3648224 196.8710938  33.6346092
  67.9497299 196.1705933  34.2321854  68.0814209 197.7920074  33.9374008
  65.3217850 195.4000092  28.3489170  64.1856079 194.9019623  28.3667469
  65.5403976 196.7608643  28.3471661  66.4679489 197.1450653  28.4573727
  64.4151611 197.6282043  28.3191490  63.6640053 197.3725891  29.0664940
  64.9012222 199.0367279  28.6322327  65.7508316 199.3502960  28.0256653
  64.0637283 199.7289124  28.5451336  65.3151932 199.1805420  30.1025429
  64.6284027 198.5867310  30.7057037  66.2462845 198.6650543  30.3379993
  65.3046188 200.6065826  30.5945168  65.5362473 201.5801392  29.8753853
  65.1151810 200.8178101  31.8755569  65.1237335 201.7575226  32.2456512
  65.1190872 200.1112976  32.5972977  63.7387772 197.5783539  26.9289360
  62.5583344 197.3888245  26.8710270  64.4427719 197.6474304  25.7582226
  65.3349915 198.1190796  25.7184582  63.8181000 197.5602722  24.4639511
  63.0917778 198.3703156  24.3975391  64.8615417 197.7433624  23.3625507
  65.3120117 198.7328644  23.4403439  65.6447067 196.9938507  23.4765644
  64.2141953 197.6275940  22.0119247  63.6323776 198.5911560  21.2820587
  63.5553436 199.6343842  21.5506763  63.1288681 198.0173798  20.1410427
  62.6849022 198.5561676  19.4111767  63.2040939 196.6325531  20.1899929
  62.6949692 195.5999908  19.3546486  62.0312119 195.8049774  18.5277176
  63.1005325 194.2543030  19.4845486  62.7444267 193.5115204  18.7860718
  64.0636292 193.9415283  20.5067768  64.3938141 192.9216309  20.6378975
  64.5540466 195.0274353  21.3487053  65.4160461 194.8025818  21.9592838
  64.0514679 196.3581085  21.2727337  62.9573708 196.2712097  24.2570095
  61.8980827 196.3943481  23.6964970  63.3298874 195.1174164  24.8661537
  64.2276688 195.0817413  25.3274765  62.5402794 193.8557434  24.7316017
  62.3001556 193.8587341  23.6683846  63.3435555 192.6518097  25.1087093
  64.0917511 192.9546814  25.8412209  62.7106705 191.8486633  25.4862442
  64.0883331 192.0571899  23.9931335  65.3952713 192.2175446  23.7454014
  66.1239777 192.8254089  24.2610493  65.6781158 191.4676819  22.6294613
  66.6212158 191.4227295  22.2707844  64.5877533 190.8353577  22.0650845
  64.2670212 190.0471344  20.9096737  64.9182281 189.8331451  20.0750866
  62.9734459 189.5310516  20.7383366  62.7418098 188.9081573  19.8870125
  61.9577522 189.8335571  21.6282444  60.9633369 189.4342041  21.4938793
  62.1976547 190.7215424  22.7173443  61.3919868 191.0201874  23.3716488
  63.5108986 191.2819366  22.9076157  61.1938629 193.9753265  25.4807987
  60.2590141 193.4264221  24.8842869  61.0467148 194.8052979  26.5354385
  61.9046631 195.2578125  26.8169403  59.7286720 195.2828522  27.0328712
  59.1088867 194.3889771  27.1031685  59.8060188 195.8143921  28.4843369
  60.4149208 196.7183228  28.4690361  58.8135834 196.0868835  28.8434143
  60.4323349 194.8234558  29.4073219  59.7438660 193.9811859  29.4758549
  61.3785515 194.4441833  29.0214233  60.6443787 195.4788513  30.7755604
  61.2831497 196.5209656  30.9087391  60.1970749 194.8592072  31.8840218
  60.5611687 195.2885284  32.7225990  59.7483292 193.9548798  31.8533669
  59.0361252 196.3188171  26.1678314  57.8161011 196.2798920  26.0138016
  59.7728043 197.2812195  25.5542450  60.7377930 197.3351440  25.8474865
  59.2922974 198.3261261  24.6653271  58.5084267 198.8514709  25.2109241
  60.3946304 199.2459869  24.3848801  61.0200157 199.4401245  25.2562580
  61.0381203 198.8516693  23.5984116  59.8571930 200.6111450  24.0188789
  59.1278610 200.5314636  23.2127609  59.3276520 201.0385742  24.8703442
  60.9387932 201.5937347  23.4489670  61.8219452 201.7945404  24.0554447
  61.3531685 201.0780182  22.5826950  60.4132576 203.0292206  23.0641689
  61.2621918 203.5455017  22.6160088  59.5474091 202.9750214  22.4042683
  60.0891418 203.8591309  24.2615013  60.9449844 203.9639435  24.7874813
  59.8857460 204.8341827  24.0941143  59.3171692 203.4822998  24.7926826
  58.6411362 197.7565460  23.4373398  57.5618134 198.1626587  23.0185375
  59.3579178 196.8370209  22.7550640  60.2410202 196.5295868  23.1367893
  58.7780380 196.1659241  21.5870552  58.5792961 196.8917389  20.7985077
  59.8777275 195.2959442  21.0447254  60.7526245 195.8963013  20.7952633
  60.2559738 194.6066895  21.7996750  59.5640984 194.3240967  19.9055595
  59.1313057 194.7912445  18.6097527  58.9553070 195.8404083  18.4234486
  58.8190689 193.9008789  17.5569057  58.4596329 194.2588348  16.6034508
  59.1158676 192.4929199  17.7713203  58.7978630 191.5077362  16.8470726
  58.0140572 191.6137238  16.3029995  59.5151939 192.0382996  19.0120850
  59.5593224 190.9655609  19.1290722  59.6501312 192.8901215  20.0705738
  59.9878998 192.5401001  21.0348358  57.5348511 195.2807465  21.8848896
  56.4771805 195.4266052  21.2557430  57.6578865 194.5615540  22.9937801
  58.5385818 194.5799713  23.4878807  56.5271034 193.8300934  23.5561638
  56.1379356 193.0620575  22.8877430  57.0836296 193.1415558  24.8729763
  57.8886833 192.4652252  24.5856628  57.5301743 193.8233032  25.5968018
  56.0361099 192.4074554  25.7297611  55.3937836 193.1558228  26.1939316
  55.3670616 191.6877594  25.2580414  56.6824188 191.6631927  26.8747654
  57.6576195 190.9357758  26.7397060  56.0147324 191.6124420  28.0529251
  56.4746552 191.2621765  28.8811111  55.2546921 192.2772980  28.0730667
  55.3448257 194.8302002  23.8894348  54.2267075 194.5809021  23.3235149
  55.6123428 195.9940033  24.5361443  56.5407486 196.2280426  24.8576832
  54.5452423 196.9965057  24.7693958  53.7986450 196.3713074  25.2591076
  55.0146179 198.0010681  25.7904682  55.6545868 197.5344238  26.5393276
  55.6701317 198.6697693  25.2325802  53.8648872 198.7642212  26.5347137
  53.2884178 199.3612213  25.8280468  53.2452354 198.0391693  27.0623856
  54.4703522 199.6071625  27.6401329  54.8683968 199.0082092  28.4592323
  55.2020302 200.3045654  27.2322445  53.3356705 200.4154510  28.2397366
  52.9190903 201.1383972  27.5383644  52.4823875 199.8337097  28.5884094
  53.8200111 201.2509460  29.4001541  54.6373215 201.8024902  29.1812840
  53.0839310 201.8919678  29.6597195  54.0509415 200.7084656  30.2202072
  53.9354553 197.7072144  23.5252323  52.6943092 197.7781067  23.3927307
  54.7004128 198.0453949  22.4956875  55.6950455 197.9875793  22.6614094
  54.2882919 198.5628052  21.1457863  53.5428238 199.3395691  21.3161259
  55.5492058 199.2153015  20.4712524  55.7817497 199.9778137  21.2146225
  56.2974815 198.4647369  20.2166367  55.2030983 199.9208221  19.1202793
  54.6988983 199.2261810  18.4484596  54.6114235 200.8008728  19.3723412
  56.4828033 200.4254761  18.4290028  57.2764320 199.6783295  18.4332314
  56.2460213 200.6551971  17.3901272  56.9753876 201.6415405  19.1005840
  56.7365608 201.6730499  20.0814381  57.5996475 202.6726532  18.5576954
  57.7790375 202.7941895  17.2696285  57.4783363 202.0628204  16.6413155
  58.2705040 203.5798035  16.8679237  57.9721832 203.7301636  19.2784100
  57.8071327 203.7895660  20.2730598  58.4748268 204.4981537  18.8569584
  53.5645103 197.5457916  20.2425270  52.5271263 197.8927765  19.6389732
  54.1123695 196.2985382  20.0756073  55.0446281 196.1615143  20.4392281
  53.5341225 195.2231903  19.2007980  53.1665726 195.6482086  18.2667923
  54.6268959 194.2250671  18.8230286  55.3486710 194.7942200  18.2371902
  55.0323677 193.7786713  19.7310085  53.9823265 193.0626373  18.0645123
  53.4005508 192.3705292  18.6732922  53.3391113 193.4797516  17.2896576
  55.0667000 192.2451782  17.2816238  55.4764595 192.9135742  16.5243645
  55.9245148 191.9863739  17.9023209  54.4694824 191.0520935  16.6278744
  55.2174301 190.2930145  16.3987980  53.7233887 190.6065521  17.2858601
  53.7344131 191.4115906  15.3804150  54.3603554 191.7203827  14.6503859
  53.2446594 190.6522675  14.9291143  53.0486069 192.1202393  15.5985279
  52.3388252 194.6165619  19.7588120  51.4003487 194.2971191  19.0466938
  52.2384338 194.3915710  21.0935898  52.9929504 194.7793427  21.6417160
  51.0790405 193.6496582  21.6950111  50.4021568 193.4210663  20.8718014
  51.4283943 192.2423553  22.3737144  51.9124336 192.3959198  23.3381939
  50.4885712 191.7213135  22.5563469  52.2934341 191.4252625  21.4763451
  51.7831230 190.5299377  20.4724751  50.7102699 190.5066071  20.3506470
  52.6430435 189.6880646  19.7926807  52.2303200 188.9585114  19.1116276
  54.0061226 189.7426453  20.0049286  54.6459808 189.1142883  19.4031410
  54.5362854 190.5609283  21.0238743  55.5917053 190.7844391  21.0742302
  53.6810913 191.4232178  21.6903706  54.1362953 192.1339264  22.3642330
  50.3081589 194.5781403  22.6141911  49.3321724 194.1248932  23.2574883
  50.5173225 195.9075928  22.5310898  51.3140144 196.2296906  22.0003910
  49.5286446 196.9129639  22.9383316  49.6611214 197.1072083  24.0026722
  49.7671127 198.2415924  22.1317749  50.8168602 198.5222168  22.0458813
  49.5040016 198.0432434  21.0927658  49.0873260 199.4970551  22.4768906
  49.5615540 200.3030853  23.4977913  48.9609032 201.4897156  23.2647572
  49.2280922 202.4133148  23.7566662  48.0405655 201.4117126  22.2965889
  47.4759483 202.1816711  21.9672623  48.1248322 200.1366730  21.7470722
  47.7441292 199.7964630  20.7953777  48.0618706 196.6693268  22.5911961
  47.1720276 197.0592651  23.3375187  47.7045975 196.0466156  21.4487076
  48.5065804 195.6899261  20.9490128  46.3376198 195.8101807  21.0190945
  45.7488823 196.6870422  21.2885075  46.2626419 195.6938934  19.4577618
  46.8193741 194.8025208  19.1686115  45.2239990 195.5447693  19.1626663
  46.9370880 197.1864014  18.6621628  45.8741875 197.9130554  18.3056355
  45.6222496 194.6459198  21.7100582  44.4548416 194.3718567  21.4568195
  46.2772255 193.9862366  22.6198521  47.2172127 194.3184814  22.7815514
  45.8143272 192.9143829  23.5280418  45.4460144 192.0824280  22.9277782
  47.0073013 192.4060669  24.3700142  47.2625313 193.1643524  25.1102619
  46.7658272 191.4973145  24.9213409  47.7753029 192.0436554  23.6866875
  44.6295776 193.4610291  24.3496151  43.7883110 192.6606293  24.7536869
  44.5765381 194.7158508  24.6026993  45.0423927 195.3878021  24.0097694
  43.4216347 195.3457794  25.3291359  43.4127731 195.0268250  26.3713951
  43.7532921 196.8617096  25.3143139  42.9853706 197.3937988  25.8758087
  44.6069450 197.0955505  25.9504738  43.9205284 197.3436890  24.0097008
  43.8441467 198.2897644  24.1536789  42.0834274 195.1022797  24.7234039
  41.1117020 195.1141357  25.5057220  41.9450302 194.9082336  23.4024773
  42.8146553 194.7728882  22.9069653  40.7052193 194.6528015  22.6883354
  39.8816757 195.2058258  23.1400528  40.8768654 195.0538177  21.2064590
  41.4877853 194.3196411  20.6812439  39.9425392 195.0092010  20.6468678
  41.4856720 196.4830627  20.9080467  42.5025749 196.5705261  21.2906322
  41.5673943 196.6219025  19.4048138  40.5469360 196.6419220  19.0222416
  42.0614929 197.5868225  19.2912445  42.0949211 195.7902679  18.9376984
  40.6192093 197.6344604  21.3937893  40.3327751 197.5070801  22.4377441
  41.2073097 198.5430756  21.2647343  39.6823730 197.6395111  20.8366356
  40.2649269 193.1522369  22.7234287  39.1127052 192.7951965  22.2613049
  41.0566750 192.1704559  23.1734848  41.9968681 192.4339294  23.4317837
  40.5742798 190.8632355  23.5511017  39.5238533 190.7132874  23.3016644
  41.4231911 189.7728424  22.7933159  41.1365814 188.8073730  23.2102528
  41.2346649 189.5875397  21.3303947  41.4835930 190.5611877  20.9083157
  41.8756561 188.7654877  21.0118713  40.2228432 189.3038788  21.0407925
  42.7642784 190.0022125  23.0749531  43.2574387 189.3323212  22.5957527
  40.6327209 190.6756439  25.0882740  40.7205696 191.6273041  25.8939686
  40.4655571 189.3760223  25.5029011  40.3086166 188.6439056  24.8250561
  40.3190994 189.0352020  26.9195881  39.8239937 189.8357391  27.4692364
  39.2456703 187.9295044  27.0263367  39.0515404 187.8805542  28.0977936
  38.3038673 188.1576996  26.5273037  39.7947426 186.7159119  26.5599079
  39.4506798 186.5502625  25.6791229  41.5698929 188.6786346  27.7093887
  41.4920654 188.4863281  28.9152279  42.7248840 188.7079163  27.0484962
  42.6658707 188.9481354  26.0692520  44.0924492 188.4368896  27.6122093
  43.9960823 188.1434784  28.6575451  44.7530212 187.1529388  26.9314957
  45.2238464 187.3469391  25.9677582  45.6428261 186.8368530  27.4759617
  43.8891602 185.9385529  26.7435970  43.3403244 185.5060272  25.5983028
  43.4385719 186.0288086  24.6583862  42.6591301 184.2872772  25.7718678
  42.1953087 183.7806854  25.0313759  42.8159981 183.8818970  27.0754204
  42.4858437 182.6854401  27.6889095  41.8565254 181.9470062  27.2144909
  42.9977493 182.4690704  28.9766235  42.7269669 181.4814911  29.3198090
  43.7714462 183.4345551  29.6938705  44.0090446 183.2615814  30.7331142
  43.9509201 184.6804962  29.0984707  44.4519424 185.5009766  29.5906105
  43.5881805 184.8897095  27.7538662  45.1270065 189.5961151  27.5913906
  45.1150436 190.4975281  26.7458839  46.0339890 189.5603485  28.6175156
  46.1718826 188.5668182  29.6809273  46.3341942 187.5797577  29.2479496
  45.2981262 188.6633453  30.3253918  47.4066811 188.9158478  30.4357052
  48.2053146 188.3802185  29.9224968  47.4063492 188.6775665  31.4993401
  47.5478439 190.3945465  30.2001686  48.5449638 190.7888947  30.3960209
  46.8288612 190.9107819  30.8363094  47.0247650 190.5560455  28.7711544
  46.4748611 191.4926147  28.6787281  48.1889343 190.4422150  27.7234612
  48.3889503 189.4501801  27.0682068  49.0843048 191.4861450  27.6435051
  48.7649460 192.8314667  28.2152653  49.0822105 192.7816620  29.2568817
  47.7090721 193.0568390  28.0654430  49.5922279 193.7746887  27.4489155
  49.8426781 194.6354675  28.0689392  49.0788803 194.0833588  26.5382557
  50.8047905 193.0053406  27.0331478  51.4822769 192.9352112  27.8841438
  51.2948112 193.5308685  26.2135124  50.1869240 191.6234589  26.6747513
  49.8031540 191.6651764  25.6553993  51.2385902 190.4713593  26.7858181
  51.6665382 190.0324249  25.7164726  51.6463776 189.9578857  27.9283810
  51.1453667 190.3496857  28.7129745  52.6544952 188.8507233  28.0976028
  53.5842819 189.1707001  27.6272621  52.9823990 188.7446289  29.5847397
  53.7553787 187.9778900  29.6368427  53.5440254 189.6447906  29.8344879
  51.9005165 188.4985962  30.6844425  51.3025894 189.4034424  31.5040359
  51.5052185 190.4642639  31.5002365  50.3050804 188.7830658  32.2190819
  49.7283249 189.3367615  32.8362198  50.1770020 187.4635315  31.9322338
  49.4032021 186.3955078  32.4126930  48.5704422 186.6313934  33.0586548
  49.5099297 185.0870514  31.9604053  48.8799057 184.2592926  32.2507248
  50.5718346 184.8781281  31.0539093  50.6616745 183.9220123  30.5597610
  51.4827728 185.8437195  30.6445312  52.2244835 185.6035614  29.8971386
  51.2502899 187.1910248  31.0406780  52.2657280 187.5045929  27.4917011
  53.1685867 186.7173767  27.1743793  50.9759941 187.2475586  27.2851715
  50.3517914 187.9951935  27.5525894  50.5005951 185.9890900  26.7796783
  50.9222679 185.2443390  27.4546890  48.9834557 185.8986969  26.8780479
  48.6863213 186.0481567  27.9160614  48.5586739 186.6972809  26.2698383
  48.4302597 184.5231476  26.3668690  48.8409157 184.3282471  25.3761730
  48.5936508 183.3647156  27.3315983  48.0746574 183.5589447  28.2702255
  48.1219063 182.4608917  26.9460316  49.6480484 183.2603760  27.5874748
  46.9175758 184.5268250  26.0552120  46.6515045 185.2690125  25.3025723
  46.5622139 183.5867462  25.6332226  46.3873940 184.6933289  26.9929199
  51.0951691 185.7226562  25.3919125  51.7248306 184.7215424  25.1632252
  50.9156952 186.6507263  24.4503632  50.4860916 187.5191956  24.7355194
  51.3055611 186.5905914  23.0329494  50.8299217 185.7271881  22.5677490
  50.6096535 187.7528381  22.3152466  51.0841293 188.6846924  22.6228561
  50.7996445 187.6274719  21.2492771  49.0741920 187.8569183  22.5076084
  48.1845932 187.0554962  21.6899796  48.6576538 186.4556274  20.9265766
  46.7805290 186.9822998  21.9422436  46.1642876 186.3750610  21.2957821
  46.3009605 187.7937927  22.9540348  44.9621277 187.6997375  23.2333260
  44.4336967 187.4847260  22.4612255  47.1550941 188.6149292  23.7625389
  46.7929344 189.1722870  24.6137733  48.5016594 188.6611633  23.4962654
  49.1003304 189.3971558  24.0123291  52.7916145 186.6029510  22.8613548
  53.3114815 186.1101532  21.8762665  53.6150284 187.0335999  23.8656654
  53.1418991 187.6010742  24.5543060  55.0906067 186.8324280  23.8442841
  55.3897705 187.3146362  22.9136562  55.8060074 187.5418854  24.9452515
  55.7098694 186.9812622  25.8750763  56.8414688 187.6007843  24.6099129
  55.2966766 188.8516235  25.2098217  55.5392647 189.3137360  26.0155563
  55.4112930 185.3440857  23.8315487  56.3574791 184.9850769  23.1035023
  54.6356125 184.5354614  24.5655060  53.8766670 184.9432678  25.0925751
  54.7644958 183.0767212  24.6216278  55.8241081 182.8257141  24.6697826
  54.1334572 182.5678711  25.9585552  53.0585289 182.4244385  25.8487473
  54.4376373 181.5278015  26.0762081  54.5107803 183.3319550  27.2469444
  54.0692291 184.3264618  27.1830311  53.9245033 182.6380157  28.4632702
  54.3149452 181.6356659  28.6392097  54.0159950 183.2843781  29.3361645
  52.8863449 182.4467163  28.1917305  56.0163345 183.5309906  27.4658031
  56.3465576 184.1962738  26.6680241  56.2904892 184.0424500  28.3884888
  56.5746765 182.6217041  27.2431602  54.0390091 182.3932648  23.4543419
  53.8209686 181.2033539  23.5353374  53.6466522 183.0992584  22.3933277
  53.7829094 184.0984039  22.4501667  53.1573410 182.5467072  21.1685123
  53.5754814 181.5451355  21.0679665  51.6449013 182.2742310  21.2424889
  51.0291443 183.1078033  21.5802689  51.3202400 182.0728912  20.2216263
  51.2087517 181.1109009  22.0645962  50.7501106 181.3829498  23.3741779
  50.9159164 182.3748627  23.7678833  50.1165733 180.3939972  24.0544262
  49.6873131 180.5756836  25.0286598  49.8856316 179.0752411  23.4633884
  49.1145592 178.1283569  24.0850887  48.8991394 178.3531189  24.9932041
  50.3856049 178.8058777  22.1785011  50.1282272 177.8695374  21.7057915
  51.0534515 179.8443298  21.4636669  51.3388977 179.5913239  20.4532661
  53.6726112 183.2419739  19.8727703  53.3438721 182.7998352  18.7481213
  54.5756302 184.2370148  20.0261593  54.6288452 184.5829926  20.9735603
  55.2598534 185.0286560  19.0152531  54.5751686 185.3279419  18.2216949
  55.6141624 186.3420105  19.6856289  54.7287903 186.9754486  19.7400131
  56.0088959 186.1249695  20.6781960  56.5901527 187.1987762  18.9115448
  56.4695511 187.3529816  17.6702633  57.4283676 187.8343201  19.5967846
  56.4630051 184.3252411  18.3646374  57.3742485 183.8867340  19.0583286
  56.5272598 184.2389832  17.0364723  55.7696762 184.5813904  16.4629478
  57.6792068 183.5848999  16.3389549  57.8323174 182.5543823  16.6594315
  57.3259277 183.5474396  14.8606043  57.1750031 184.5241394  14.4008465
  58.0451965 183.0228577  14.2316647  56.4377098 182.9530334  14.6464729
  59.0249329 184.2570038  16.5979900  60.0185852 183.5405731  16.6391659
  59.0903893 185.6278839  16.6585636  58.1736336 186.0477142  16.6002407
  60.3148651 186.3837585  16.9477425  61.1381035 186.0622253  16.3097820
  60.0998077 187.9163666  16.5944023  59.3575630 188.3517151  17.2634697
  61.0154915 188.4557037  16.8367691  59.7051468 188.2205658  15.1232929
  58.7532158 187.7054596  14.9944649  59.5369835 189.2911072  15.0059013
  60.8131714 187.7630920  14.0801439  62.0541725 187.8993683  14.1937323
  60.3372040 187.3351898  13.0186415  60.8334732 186.2337189  18.3860531
  62.0212440 186.0679779  18.7019787  59.9004211 186.2252502  19.3794594
  58.9625130 186.5542755  19.2000961  60.3143120 185.9466248  20.7848244
  61.2393646 186.4716797  21.0229130  59.1445847 186.3897858  21.7134304
  58.1651573 185.9536591  21.5169125  59.4554634 186.2414856  23.2123871
  60.4106674 186.7437286  23.3654804  58.7246323 186.7343597  23.8535233
  59.5143890 185.2080994  23.5540829  58.9366379 187.7981720  21.6113434
  58.5727272 187.8388214  20.7239189  60.7168083 184.4824371  20.9483738
  61.8125076 184.2367401  21.4030571  59.8425331 183.5984344  20.5021362
  59.0089912 183.8838806  20.0083466  60.3097115 182.1809845  20.5673695
  60.4761276 181.9646759  21.6226501  59.2083054 181.2516632  20.0700130
  59.0191078 181.6607361  19.0775585  59.6187057 180.2447052  19.9944878
  57.8675423 181.1460724  20.8045864  57.4831352 182.1147766  21.1238384
  56.7641373 180.4351196  19.9829063  57.1522484 179.5145721  19.5469532
  55.8943520 180.1831207  20.5895901  56.4060440 181.0741730  19.1757584
  58.1168060 180.3112030  22.0568428  58.8645439 180.7235107  22.7343311
  57.2123642 180.2766266  22.6642036  58.4444542 179.2814026  21.9145012
  61.6362686 181.8131714  19.8667412  62.3338509 180.8805084  20.3275833
  62.0599709 182.5149841  18.8191986  61.5425835 183.3438110  18.5633564
  63.3573761 182.3353119  18.2252464  63.5147133 181.2599030  18.1426182
  63.5781288 182.9949341  16.9062634  63.2081490 184.0173187  16.9832497
  64.6404572 183.0742035  16.6754570  63.0119171 182.3234558  15.6746140
  63.5616608 181.4017029  15.4842196  61.9825554 182.0548248  15.9120169
  63.0947151 183.3653259  14.2045965  64.8434830 183.0906677  13.7714453
  65.4120865 183.2218323  14.6920929  64.8903580 182.0978088  13.3240833
  65.1205673 183.8198853  13.0101461  64.4436951 182.8249359  19.1777725
  65.4400711 182.0977325  19.4795246  64.3639908 184.1032410  19.5559673
  63.6199074 184.7194366  19.2614632  65.3565292 184.6903229  20.4338837
  66.2547836 184.6194611  19.8205109  65.1398468 186.1992340  20.5663395
  64.9218369 186.7221222  19.6351242  64.2267609 186.2415314  21.1601295
  66.2176819 186.9879303  21.3899975  65.8039932 187.9442291  21.7100620
  66.3783646 186.5321045  22.3669834  67.5591888 187.0909271  20.6496239
  67.5674896 187.4445038  19.4698963  68.6357651 186.9253235  21.3520813
  65.5578613 184.0062714  21.7937794  66.7256012 183.8508911  22.2183914
  64.5521164 183.4114838  22.3951492  63.6086960 183.5499420  22.0621567
  64.7695084 182.5713501  23.6168480  65.2437134 183.1311340  24.4230042
  63.3961334 182.1992950  24.2355976  62.8675690 181.5920410  23.5007744
  63.6209679 181.5820160  25.1053734  62.6320419 183.4358063  24.6992321
  63.0776215 183.9674835  25.5399895  62.4572296 184.0536804  23.8184605
  61.1948929 183.0211945  25.2321663  60.5614014 183.8748169  25.4732723
  60.7494507 182.5324097  24.3656960  61.3065300 182.0747528  26.3812351
  62.1934776 181.9707642  26.8530560  60.3331718 181.1838837  26.7857342
  59.0846405 181.1824341  26.2891636  58.8762321 181.8730316  25.5822372
  58.3579254 180.5861816  26.6585846  60.6054077 180.2685242  27.6400204
  61.4910545 180.3163452  28.1231804  59.9219131 179.6142731  27.9934273
  65.6439896 181.3459625  23.3964005  66.4435959 180.9727936  24.1976967
  65.6227798 180.7660370  22.1906223  64.9313126 181.0219879  21.5003643
  66.6259537 179.7937927  21.7458706  66.8530197 179.1558075  22.5999966
  66.0185547 178.8632812  20.6320457  65.5611420 179.4118500  19.8086720
  67.1032257 177.8379059  20.2779675  67.4351883 177.3549652  21.1970291
  66.6623535 177.0333252  19.6894302  67.8829880 178.3477478  19.7121639
  64.8202438 178.0892181  21.2252045  63.9801445 178.7836914  21.2186546
  64.6228638 177.3108978  20.4880714  65.1549225 177.6910858  22.1831074
  68.0471268 180.4549408  21.4499607  69.0439682 179.8001251  21.7878742
  68.1819153 181.7100983  20.9039898  67.3495483 182.2201843  20.6450024
  69.5100784 182.2862549  20.6482143  70.1205826 181.5644989  20.1055756
  69.4009933 183.6036835  19.8048363  68.7489853 184.3559570  20.2487392
  70.4254837 183.9721222  19.7521381  68.9328918 183.3604126  18.3297253
  69.5923767 182.5692596  17.9729919  67.8905716 183.0438080  18.3674622
  69.0233994 184.5881195  17.5177002  68.2581635 185.3087616  17.8060951
  69.9825211 185.0764618  17.6900539  68.7950897 184.4214020  15.9879713
  69.2956390 183.5727234  15.5218315  67.7497101 184.1866913  15.7874899
  69.2303848 185.6206970  15.2138119  70.1373291 185.9540710  15.5077944
  69.4294052 185.3679199  14.2564240  68.6803970 186.4610138  15.3210268
  70.2757568 182.5851593  21.9566422  71.4957657 182.3473358  22.0358696
  69.4414597 182.8550720  22.9575272  68.5084534 183.1905518  22.7649918
  69.9476471 182.9956970  24.3784428  70.8985062 183.5192719  24.2792072
  68.9259949 183.8740540  25.1695518  68.5389023 184.6527557  24.5123787
  68.1436310 183.2261963  25.5648956  69.5847321 184.5809937  26.3187218
  69.9134674 183.8329315  27.0401382  70.4185104 185.2125854  26.0121441
  68.6027679 185.5317383  27.1209030  69.1259613 185.8290710  28.0297279
  68.4556961 186.4518433  26.5553112  67.3348007 184.8071594  27.4637527
  67.4107437 183.8170929  27.6484032  66.1116867 185.2415771  27.4892235
  65.8503113 186.5373383  27.3160725  66.6537552 187.1113434  27.1037216
  64.8893051 186.8467255  27.2869453  65.1138382 184.4553986  27.8603554
  65.3544235 183.6091156  28.3563595  64.2278061 184.9011230  28.0511074
  70.2833405 181.6686554  25.0305729  70.7295074 181.6089630  26.1835232
  69.9696198 180.5017395  24.3674946  69.3742599 180.5642395  23.5540199
  70.7077713 179.2386627  24.6655045  71.0850983 179.3187103  25.6849747
  69.7619934 177.9939117  24.6753254  69.0028305 178.1998138  25.4298992
  69.2397690 177.9374237  23.7202358  70.3596649 176.6591949  25.1396332
  69.5629501 175.9323120  24.9815292  71.2199020 176.3493347  24.5462704
  70.7806625 176.6381531  26.6201305  69.9407043 176.6104279  27.4897404
  72.0623932 176.5977631  26.8605480  72.3846130 176.6248627  27.8173847
  72.7237473 176.5443420  26.0990658  71.9483719 178.9991455  23.8134556
  73.0354767 178.7962036  24.3469028  71.7386932 179.0353699  22.4636688
  70.8599396 179.3825531  22.1068077  72.7820053 178.7805023  21.4193153
  73.0719681 177.7304840  21.4577885  72.1875992 179.0092010  20.0088882
  71.8917618 180.0561066  19.9411316  73.0307083 178.9278870  19.3228436
  70.9764786 178.1853027  19.5340328  70.1539841 178.2929840  20.2411442
  70.6226807 178.8360443  18.1418762  71.4222031 178.6493073  17.4249363
  69.7263412 178.3996887  17.7011166  70.4961929 179.9084778  18.2901306
  71.3393784 176.6856995  19.3847122  71.5627975 176.2897949  20.3753948
  70.4142990 176.1936493  19.0843449  72.0817413 176.4947510  18.6097698
  74.0467377 179.7291412  21.5809212  75.1654892 179.3267670  21.2323818
  73.9475937 180.9272766  22.1381397  73.0336609 181.3428192  22.2483654
  75.0951080 181.8214722  22.4507599  75.7335129 181.8170471  21.5672894
  74.7139816 183.2787018  22.6863384  73.7803802 183.3621216  23.2426968
  75.4613724 183.7037659  23.3562851  74.5896912 184.0483246  21.4509163
  75.6862106 184.4151917  20.5910568  75.1702957 185.1765594  19.5985470
  75.7490463 185.7809753  18.9158077  73.8387451 185.2601624  19.7777386
  73.2427979 185.8622437  19.2277851  73.4358673 184.5641937  20.9326630
  72.4417114 184.5643921  21.3546410  76.0774155 181.2930603  23.5259438
  77.2487946 181.6358032  23.4755821  75.5456772 180.5521393  24.4603863
  74.5622101 180.3287354  24.4057446  76.3041306 179.8407440  25.4414482
  77.2607040 180.3395691  25.5971470  75.5265808 179.6738434  26.7215366
  74.6528854 179.0676575  26.4821815  76.1127472 179.1924744  27.5043583
  75.1062775 181.0228729  27.2735195  75.8265457 181.7660065  26.9313889
  74.1758957 181.3124237  26.7849998  74.9432678 180.9963074  28.8241348
  75.4794312 181.8984985  29.4819775  74.2564621 180.0749969  29.3792400
  76.7642517 178.4663696  24.9323292  77.8711472 178.0627899  25.2848034
  76.0859070 177.7354279  24.0648994  75.2321014 178.0475311  23.6247787
  76.7165756 176.5211029  23.4788837  77.2525330 176.0077515  24.2772026
  75.6284790 175.5506744  22.8938904  75.0782242 176.1628265  22.1793423
  76.1999969 174.7804565  22.3759766  74.6609344 174.8998260  23.8380928
  74.8744888 174.8627930  25.1778030  75.7057190 175.2413788  25.7541142
  73.7806778 174.1782990  25.7835903  73.7117310 173.9957886  26.7745705
  72.8352356 173.8545380  24.8209648  71.5790176 173.2611084  24.8629589
  71.2119827 172.8823547  25.8054218  70.7994537 173.0662079  23.7084713
  69.7787933 172.7186127  23.7704334  71.3195724 173.4331970  22.4329662
  70.8269119 173.2415161  21.4911880  72.5787430 174.0924377  22.4431801
  73.0210037 174.4119720  21.5111313  73.3494644 174.3498077  23.6317310
  77.7942123 176.8000641  22.4021912  78.4916840 175.8706665  21.9830399
  77.9324112 178.0681152  21.9581337  77.4381638 178.7695160  22.4909267
  78.8750229 178.4622650  20.9416752  79.7917709 177.8786926  21.0260525
  78.2111664 178.2066650  19.6073933  77.8764191 177.1694183  19.6197376
  77.3299866 178.8404846  19.5077877  79.2249222 178.3945618  18.4725590
  80.4034805 178.6467438  18.7334747  78.8195038 178.3295135  17.2728653
  79.2903595 179.8987885  21.1109619  78.6908112 180.8236389  20.6085167
  80.3070221 180.0531006  21.9549923  80.5526962 179.2746429  22.5497684
  80.8541870 181.3226471  22.3181171  80.0585709 182.0115814  22.6017838
  81.8564148 181.1003418  23.4650402  82.7425842 180.5202484  23.2075806
  82.1885757 182.0862274  23.7903061  81.3161392 180.4104156  24.6632729
  81.7355347 180.8261566  25.5794449  80.2362442 180.4705048  24.7986298
  81.6860504 178.9125977  24.7008915  81.4021072 178.2006378  23.7252560
  82.3546600 178.4630890  25.6379528  81.5552750 182.1596222  21.2407188
  82.2779236 183.1107330  21.4896927  81.3906326 181.8675079  19.9430447
  80.6393585 181.2111816  19.7851295  81.9637680 182.6093292  18.8442669
  82.2115402 183.5801544  19.2734566  83.2163086 181.9081421  18.3718796
  82.8915710 180.9399261  17.9908123  83.6541290 182.3940735  17.4999352
  84.3262100 181.7351990  19.3857689  84.4976578 180.6967010  20.0193024
  85.1950760 182.7383575  19.4648056  85.9287033 182.6510620  20.1534710
  85.0833435 183.6360321  19.0155926  80.9464188 182.8020172  17.6769314
  81.3549652 183.0553589  16.5414143  79.6712723 182.4399261  17.9406681
  79.5293198 182.2005920  18.9115810  78.5886459 182.4325714  16.9860706
  78.7729263 181.8660431  16.0732765  77.4877090 181.6176300  17.7052498
  78.0064774 180.7117157  18.0187550  77.0814056 182.1098480  18.5888481
  76.3332901 181.1123810  16.7788677  76.7548370 180.6955109  15.8641901
  75.5213165 180.0964508  17.4946289  74.9606018 180.4929657  18.3410835
  74.7908249 179.7432404  16.7668114  76.2473907 179.3411560  17.7953529
  75.3517303 182.2032013  16.3962021  75.9188919 182.8953857  15.7738628
  74.4960709 181.8242035  15.8373489  74.9751434 182.7083588  17.2856388
  78.2035675 183.8892365  16.5963306  77.4237747 184.4632721  17.3472824
  78.7163696 184.4547577  15.5047293  79.6096344 184.0925903  15.2030706
  78.1445465 185.6686249  14.8113184  78.0576553 186.5283356  15.4757328
  79.1919022 185.9952393  13.6577826  79.4020538 185.0629425  13.1336155
  78.7536850 186.6747589  12.9268055  80.5121841 186.5727997  14.2122250
  80.3184662 187.5273132  14.7016077  80.9761200 185.9370422  14.9663334
  81.5301208 186.8786011  13.0941706  82.4549561 187.2746735  13.5135765
  81.8596649 185.9149017  12.7058315  81.0984650 187.7674255  11.9051876
  81.7915268 187.8155060  11.0652723  80.1664200 187.4440308  11.4417105
  81.0788116 189.1634521  12.4163580  81.9558029 189.5671082  12.7130890
  80.6558380 189.8297119  11.7860470  80.4958649 189.2281952  13.2386007
  76.8123856 185.2678680  14.2484894  76.8103027 184.1813354  13.6469917
  75.7139206 185.9097595  14.6450500  75.7391815 186.6459961  15.3360043
  74.3008881 185.4497070  14.4009399  74.0062866 184.6706848  15.1041222
  73.3002014 186.6184540  14.6570482  73.8170090 187.5691223  14.5257559
  72.5105515 186.5809937  13.9066114  72.5747604 186.6193695  16.0822716
  73.3003387 186.1673431  17.0190411  71.3611908 186.9412231  16.2223644
  74.0207596 185.0265045  12.9361553  73.1072540 184.2009430  12.7508726
  74.7393265 185.6258087  11.9496794  75.3396225 186.3599396  12.2972422
  74.7527924 185.3545227  10.4757271  73.8321304 185.7544556  10.0508261
  75.9403000 186.0941467   9.8814917  76.8341141 185.6150818  10.2810984
  75.9289322 186.0060730   8.7951136  76.1497574 187.5807953  10.2676487
  76.3564377 187.7044830  11.3307037  76.9978409 187.9101562   9.6673279
  74.9279861 188.4470215   9.9375381  74.3428574 188.2567902   8.8333035
  74.5762634 189.3954315  10.6916218  74.9078598 183.8800964  10.0264168
  74.6506195 183.4889374   8.9091015  75.4229507 183.0269928  10.9212055
  75.7433624 183.3268890  11.8308764  75.4426498 181.5721436  10.6366463
  75.6712646 181.4218597   9.5815372  76.3764038 180.8111115  11.5623693
  76.4343414 179.7526245  11.3086786  77.3976669 181.1837158  11.4829884
  76.0842819 181.0476837  12.8792610  76.6574783 180.5147095  13.4351292
  74.0330124 180.9544678  10.6934366  73.8364944 179.8475189  10.1801643
  73.0907974 181.5065002  11.3946695  73.2512970 182.4740906  11.6357775
  71.6704865 181.0252838  11.5322237  71.6523285 179.9363708  11.4870014
  71.1105423 181.3588562  12.8873310  71.1249466 182.4486237  12.9044781
  70.0664291 181.0748901  13.0188389  71.9462585 180.7488403  14.0932512
  73.0115433 180.9105835  13.9285965  71.5848923 181.3816223  15.4742899
  70.5128174 181.3099976  15.6576653  72.1893692 180.8857269  16.2337685
  71.8983078 182.4254608  15.4902411  71.6776428 179.2599182  14.1669827
  72.0865936 178.8352051  13.2502031  72.3333130 178.9360046  14.9752398
  70.6267853 179.0100250  14.3130980  70.6577225 181.5111389  10.4659977
  70.9289551 182.5079041   9.7921505  69.5525513 180.7888641  10.2054682
  69.2763824 179.4651794  10.6144266  68.8238068 179.5029755  11.6053057
  70.1390762 178.8015137  10.5559874  68.2840958 179.0118408   9.4965830
  67.6295166 178.2363892   9.8944397  68.8507690 178.7596436   8.6002674
  67.4038391 180.2280121   9.2710905  66.6043396 180.3345795  10.0042658
  66.9924545 180.2135468   8.2618074  68.4880142 181.3020630   9.3971395
  68.8892136 181.5509796   8.4146996  67.8031998 182.5434265  10.0966148
  67.5554810 182.4855804  11.2778845  67.4084549 183.5274658   9.2667923
  67.9034195 183.6623993   8.3967886  66.4582901 184.5505676   9.7211628
  66.7569962 184.7807922  10.7438412  66.6163330 185.8427124   8.9803286
  65.8318558 186.5481262   9.2543573  67.9320755 186.4492188   9.3488474
  68.7988586 186.0080414   8.8567686  67.9885178 187.4606781   8.9465075
  68.1622086 186.4233856  10.4139643  66.5734253 185.6123047   7.5415320
  65.8025131 186.0511017   7.1744385  64.9611740 184.1822357   9.7019701
  64.1232224 184.8376617  10.3428802  64.6258850 183.0506744   9.0565500
  65.3147583 182.4991150   8.5652981  63.2466202 182.5994263   8.8838072
  62.5506248 183.4126587   9.0895576  63.0777512 181.9923553   7.4432826
  63.2195358 182.7296295   6.6530824  63.7957001 181.1817627   7.3183908
  61.6566429 181.5438232   7.2697744  60.6896515 182.1554718   7.6111698
  61.4269218 180.3589020   6.8232470  60.4714394 180.1091919   6.6115966
  62.1639519 179.7260437   6.5468721  62.8722496 181.6100922  10.0323286
  63.6349144 180.6566620  10.1582661  61.7585678 181.7695160  10.7985916
  60.9609566 182.9702911  10.8891096  60.6868057 183.3898010   9.9211473
  61.4205246 183.7926025  11.4374828  59.7020988 182.5531464  11.6898975
  58.9043083 182.2990417  10.9920006  59.4317856 183.4065552  12.3117714
  60.1896973 181.4146118  12.6156435  59.4031410 180.7680817  13.0047865
  60.6429939 181.8508606  13.5057564  61.3654060 180.8369904  11.8505735
  62.2018852 180.7757416  12.5467434  61.1359291 179.3317413  11.4774342
  61.5589828 178.4827881  12.2223892  60.6612244 178.9905090  10.2571163
  60.2988319 179.7388458   9.6837311  60.4792976 177.5811920   9.8667231
  59.8987427 177.1455078  10.6798868  59.7488022 177.5541534   8.4870100
  60.2552986 178.2788086   7.8494763  59.9234734 176.2145996   7.7565107
  59.6697350 175.3934174   8.4268780  59.4022827 176.0472870   6.8139229
  61.0043449 176.1155701   7.6564798  58.1964760 177.7867584   8.5478411
  57.6181984 177.4555054   7.6853046  57.7433815 177.2306213   9.3685293
  57.9000320 179.3031616   8.8350115  58.5301743 179.9252930   8.1994181
  56.8879509 179.5693817   8.5301933  58.0741158 179.5459442   9.8832712
  61.8649521 176.9137878   9.9423628  62.1142693 175.9531708  10.6439505
  62.8123360 177.4113922   9.0383940  62.5661964 178.1886597   8.4422560
  64.1885910 176.9048309   8.9894381  64.1048813 175.9275970   8.5139160
  65.0073929 177.7574768   7.9968324  65.3563232 178.6184235   8.5670137
  65.8005829 177.1023865   7.6365452  64.4209213 178.3420105   6.7273040
  63.1937065 178.3008270   6.4547529  65.1944962 178.7968750   5.8504925
  65.0136566 176.8425293  10.2355509  65.6894531 175.8212128  10.4080038
  64.9736862 177.8431396  11.1400537  64.4297104 178.6581268  10.8951321
  65.6316452 177.8968048  12.4777441  66.7097931 177.7613373  12.3921032
  65.4718323 179.2892151  13.0691757  65.8381424 180.0066986  12.3349085
  64.4179688 179.5560608  12.9900875  66.0250931 179.6509247  14.4509058
  65.3438873 179.0781250  15.5579433  64.4869461 178.4439697  15.3850193
  65.7718658 179.3563232  16.8634911  65.2777100 178.9211426  17.7195377
  66.8715591 180.2308960  17.1287975  67.2822418 180.4546814  18.1022739
  67.5562057 180.7328033  15.9662170  68.4327545 181.3117828  16.2168808
  67.1769714 180.4295807  14.6790171  67.7952042 180.7745056  13.8634157
  65.0412827 176.8542328  13.4085951  65.7982025 175.9701691  13.8614454
  63.7167053 176.8361206  13.5669136  63.0692291 177.4786835  13.1333313
  63.1288948 175.7681885  14.3886461  63.4922104 175.8633575  15.4118977
  61.6675529 175.8916168  14.6072140  61.3461571 175.1410675  15.3293514
  61.3637733 176.8945923  14.9069939  61.1133499 175.7478943  13.3580408
  61.2423553 176.5296478  12.8160000  63.5878181 174.3981476  13.8834600
  63.9794846 173.5615234  14.6742249  63.6828423 174.1943359  12.5241165
  63.2124443 174.8920898  11.9655771  64.1599884 172.9533844  11.9134293
  63.5366478 172.1837463  12.3686171  63.8987312 172.7966003  10.4544640
  64.1210785 173.6541290   9.8193941  64.6850281 172.1434631  10.0759697
  62.5750275 172.2437439  10.0488844  62.0207024 171.0619812  10.6184874
  62.5153084 170.6266174  11.4741831  60.8961945 170.5068970   9.9601755
  60.4561386 169.5730286  10.2774143  60.2827148 171.2037201   8.8995724
  59.1200104 170.6992188   8.3300667  58.4938927 171.3953857   8.1180811
  60.7194099 172.4661102   8.4839764  60.2873421 172.9875793   7.6426721
  61.9289627 172.8983002   8.9970961  62.3908195 173.7668457   8.5513220
  65.5927505 172.6621552  12.2770252  65.8279724 171.5375671  12.7070580
  66.5093536 173.6032410  12.2433262  66.2252350 174.5242767  11.9415874
  67.8944092 173.4086304  12.5980387  68.2756348 172.5817566  11.9988184
  68.6886673 174.6446228  12.2153835  68.4790344 174.8438568  11.1644545
  68.3888092 175.4967804  12.8253002  70.1652756 174.3615875  12.4888945
  70.7369995 175.2879181  12.4328537  70.3209763 173.9464264  13.4846344
  70.9301300 173.4784851  11.4812517  71.9599838 173.3728638  11.8223572
  70.4663544 172.4921875  11.4967527  70.9120102 174.0864410  10.1161156
  70.1647873 173.7725677   9.5134277  71.8792953 174.7849426   9.4954596
  72.9216080 175.2848663  10.1398745  73.0451126 175.1278381  11.1299191
  73.7029037 175.5899506   9.5771952  71.8293457 175.0358582   8.1855717
  71.1706314 174.5200043   7.6198158  72.5137405 175.6552887   7.7756681
  68.0217590 173.0335236  14.0675745  68.6377258 172.0052338  14.3704357
  67.3119659 173.7481537  14.9182453  66.8675385 174.5732269  14.5416222
  67.1797485 173.4574585  16.3266602  68.1717224 173.4258118  16.7773113
  66.4501190 174.6109161  17.0109711  65.4749603 174.7983704  16.5614929
  66.3708954 174.2639771  18.5465260  67.3775711 174.0593567  18.9109821
  65.8978729 175.1322021  19.0053616  65.7664108 173.3707123  18.7039509
  67.2047424 175.9816132  16.9552937  67.3884888 176.2358856  15.9114103
  66.6289444 176.7690582  17.4416065  68.1780624 175.9037323  17.4397316
  66.5410843 172.0643158  16.6400223  66.9524078 171.3398438  17.5419884
  65.5236130 171.6671448  15.8356943  65.1443558 172.3947296  15.2467203
  64.8152084 170.4186707  16.0627785  64.4891281 170.2792816  17.0934792
  63.5654259 170.3119812  15.2261267  63.8033600 170.5343781  14.1859179
  63.0370216 169.3593292  15.2630796  62.8609352 171.0213623  15.6603775
  65.8316345 169.2501068  15.6972294  66.0650558 168.3339233  16.4924412
  66.5336304 169.3450012  14.5970221  66.2454605 170.0853729  13.9733992
  67.5709763 168.4088440  14.1868582  67.0850830 167.4501495  14.0054398
  68.0648956 169.0114441  12.8426752  68.3202591 170.0680084  12.9236813
  68.9790802 168.4930878  12.5534019  67.2857895 168.9161072  12.0863657
  68.6706009 168.3153229  15.2383356  68.9312897 167.1771088  15.6486835
  69.1752472 169.3931427  15.7800484  68.7634430 170.3099670  15.6803722
  70.3707504 169.3618927  16.6355400  71.0132599 168.5062256  16.4279232
  71.2928772 170.5119781  16.3796787  72.2838364 170.2611694  16.7580814
  71.4552002 170.6741028  15.3140945  70.6398392 172.0374298  17.1309795
  71.6986084 172.8258972  16.9254589  70.1724777 169.2164612  18.1415195
  71.1217651 169.0038910  18.8636818  68.9110031 169.2464447  18.6621895
  68.1337891 169.4645538  18.0551720  68.5934830 168.8446503  20.0104637
  69.1892548 169.4641113  20.6808567  67.1402359 169.0447998  20.3014164
  66.5804596 168.8480530  19.3870678  66.8859329 168.4206238  21.1580582
  66.8665695 170.4557343  20.7218685  67.2516785 171.1437225  19.9692326
  65.3508072 170.5411987  20.8544540  65.0955811 170.0540466  21.7955360
  65.1928253 171.6144714  20.9604244  64.8830795 170.1305237  19.9596500
  67.4522705 170.8180542  22.1196060  68.5158081 171.0195770  21.9916058
  66.9681244 171.6642914  22.6070290  67.1972046 169.9898529  22.7807693
  68.9721832 167.3766174  20.3365421  68.4681396 166.5014496  19.6187534
  69.6889725 167.0559692  21.4051361  70.6039429 167.9448853  22.1007805
  70.2074280 168.8816833  22.4923038  71.4161377 168.2493896  21.4406967
  71.0810471 167.1585541  23.3231621  70.3319397 167.1781158  24.1147099
  71.9706039 167.6465302  23.7215042  71.0631332 165.7117004  22.8245754
  71.0274124 165.0503998  23.6903152  71.9910126 165.4677429  22.3072548
  69.8449326 165.7191315  21.8836098  69.9745331 164.9417267  21.1306553
  68.6160049 165.3099823  22.7615299  68.3293304 165.9347534  23.7543488
  67.9328079 164.2169495  22.3880749  68.1713257 163.6446228  21.5907993
  66.7988052 163.5708008  23.1212463  67.1362839 163.5217743  24.1565247
  65.4448853 164.4278107  23.0659428  64.6050034 163.7704620  22.8410072
  65.2330780 165.1574402  24.4351864  66.1349030 165.7022858  24.7144146
  64.3784866 165.8327179  24.3930073  65.0778580 164.4992981  25.2900791
  65.3710403 165.4766388  21.9207401  65.8844833 166.3756409  22.2617397
  65.8868408 165.0385895  21.0662441  63.9791832 166.1033936  21.5134811
  63.5303230 166.7323761  22.2822475  64.0584946 166.6701355  20.5857887
  63.2861176 165.2910004  21.2949448  66.5570602 162.1569672  22.5903053
  67.1128006 161.7939148  21.5187817  65.6974487 161.3336792  23.3005085
  65.2864914 161.6147919  24.1792507  65.2264481 160.0137177  22.8297863
  66.1000137 159.4640045  22.4793777  64.6433945 159.2253723  24.0479393
  64.2256775 158.2880707  23.6803780  65.4405212 159.0022583  24.7570953
  63.5559959 159.9453583  24.8227882  63.8725014 160.9093933  25.5658169
  62.4150848 159.4197235  24.8306370  64.2665482 160.1022034  21.6508217
  63.5479622 161.0940399  21.4424229  64.2242813 159.0032959  20.8809547
  64.8184509 158.2209320  21.1153946  63.4616203 158.9987640  19.6204987
  63.7659149 159.8428345  19.0015831  63.7289200 157.7371674  18.7577648
  63.4496765 156.8356476  19.3030739  63.0901299 157.7242126  17.8746605
  65.1364441 157.6389008  18.2381401  65.5864410 158.6518707  17.6711636
  65.8561630 156.7005920  18.5279770  61.9482193 159.2790222  19.7993011
  61.3251762 160.0066376  19.0608215  61.4101906 158.6862030  20.8875122
  61.8913155 158.1256714  21.5763016  59.9375153 158.8084869  21.0368538
  59.5306664 158.5714722  20.0538006  59.5029373 157.6893768  22.0547962
  60.1199532 157.7170715  22.9529171  58.4682655 157.7530670  22.3916931
  59.6571503 156.6761169  21.6838207  59.3978882 160.2167053  21.3778992
  58.1831360 160.3816223  21.3276997  60.3090897 161.1893616  21.6462975
  61.2305946 160.8333740  21.8565311  60.0452499 162.6125946  21.8475437
  59.0025444 162.7553864  22.1312180  60.8333855 163.0780792  23.0464439
  60.3966408 162.4872589  23.8516064  61.8678360 162.8214722  22.8180637
  60.7875900 164.4869995  23.3515816  61.4052086 165.0940399  22.6896648
  59.4184875 165.1732178  23.3832893  58.7594109 164.6733246  24.0930882
  59.5489769 166.2339020  23.5978260  59.1074638 165.1667480  22.3386250
  61.3494186 164.6744537  24.7539177  62.4352837 164.5970612  24.8087826
  61.0569611 165.6439362  25.1572380  60.9455185 163.8812866  25.3830910
  60.3554878 163.3304901  20.4832592  59.4527245 164.0906067  20.0910282
  61.4226875 163.0514832  19.7776127  62.0380783 162.3303375  20.1259480
  61.6276131 163.5404510  18.4045467  61.6125565 164.6295013  18.3613644
  62.9892273 163.0782013  17.8190880  63.0103645 161.9885712  17.7998314
  63.0935173 163.4853668  16.8133831  64.2001419 163.6321259  18.5974197
  64.2410431 164.7213287  18.5894203  64.1060333 163.3378143  19.6427059
  65.5518341 163.0562439  18.1161690  66.3262558 163.3297272  18.8328094
  65.5066681 161.9717865  18.2161961  66.0201721 163.3670044  16.7222557
  65.7741241 162.6957245  16.0088596  66.9316559 164.2552795  16.4286594
  67.2459259 165.2470703  17.1697769  66.8491821 165.3135681  18.0962067
  67.8189697 166.0264282  16.8794041  67.6111298 164.1127167  15.3408632
  67.3157806 163.4783173  14.6125727  68.2629776 164.8371887  15.0756760
  60.5152664 163.0838928  17.4333954  60.3014412 163.8164673  16.4632740
  59.7444763 162.0245972  17.7303925  60.1677513 161.3305969  18.3298073
  58.5078354 161.6807404  17.0568581  58.7430153 161.6441650  15.9931545
  58.0106125 160.2267303  17.4887562  57.9615517 160.1844635  18.5768318
  56.5282326 160.0518646  17.0596066  56.4243393 160.2089996  15.9860067
  56.2515717 159.0162659  17.2572803  55.9374352 160.7640076  17.6357384
  58.9218254 159.1131439  16.8245773  58.8662567 159.2743835  15.7480021
  59.9175758 159.2472229  17.2471905  58.4887390 157.6497040  17.2189255
  57.5689392 157.3092804  16.7433300  59.3051796 157.0289307  16.8499260
  58.4901657 157.5160217  18.3006973  57.4886246 162.8204956  17.2524643
  56.9407997 163.3427429  16.3233471  57.2123528 163.1630554  18.5282173
  57.7874298 162.7621002  19.2552834  56.3675880 164.2602997  18.9093895
  55.4162674 164.0011292  18.4447155  56.1579208 164.5230408  20.4444447
  56.9792023 165.0694885  20.9081268  55.2966042 165.1829834  20.5479412
  55.9262772 163.2305145  21.2823391  56.8704414 162.6859589  21.2711830
  55.6301041 163.5723724  22.2740612  54.7913704 162.2843018  20.7232018
  53.7594643 162.7017365  20.2271042  55.0018425 160.9809418  20.8731728
  54.2503014 160.3392029  20.6646900  55.8793831 160.6312714  21.2305889
  56.8427925 165.5927887  18.3461723  55.9918709 166.3794250  17.9404716
  58.1718330 165.7869263  18.1540203  58.7694054 165.1622772  18.6763420
  58.7970848 166.9822235  17.5090027  58.2629242 167.8357391  17.9264832
  60.2482910 167.0684967  17.9080067  60.2995224 166.8218689  18.9685040
  60.7308578 166.2987366  17.3057423  60.9565392 168.4953003  17.7464714
  60.9005623 168.7080383  16.6788998  60.3771858 169.6965790  18.4194908
  60.4369621 169.5216827  19.4937096  60.9058838 170.6304779  18.2287388
  59.3390541 169.7784424  18.0974998  62.4028778 168.3025818  18.1515446
  63.0070572 167.5518799  17.6421185  62.8704453 169.2790527  18.0250950
  62.4287987 168.0416107  19.2095222  58.5954056 166.9966583  15.9797344
  58.2563553 168.0334625  15.4157629  58.6707115 165.8363647  15.3091211
  58.9687614 165.0173340  15.8194647  58.4025459 165.7209320  13.9113293
  58.8891411 166.5349274  13.3739929  59.0623169 164.4137115  13.4009876
  60.0528145 164.2839203  13.8370724  58.5039673 163.5517426  13.7661695
  59.0817757 164.3401031  11.8245478  58.3930473 165.0501862  11.3667936
  60.3794327 164.8856354  11.3094282  61.2332497 164.2081299  11.3003263
  60.3165512 165.0277710  10.2305660  60.6759720 165.8255768  11.7749252
  58.7965317 162.9637146  11.2453957  57.8221931 162.5696869  11.5343847
  58.7489738 163.0973511  10.1646633  59.5284462 162.1928253  11.4865150
  56.9269485 165.8373718  13.5657749  56.5953445 166.3060455  12.4810686
  56.0062408 165.4581299  14.5252056  56.3066216 165.0175934  15.3829861
  54.5587997 165.5144806  14.2901678  54.2346306 164.9742889  13.4006701
  53.8853035 164.8301544  15.4537954  54.4714737 164.9170074  16.3686523
  52.9500732 165.3413696  15.6820612  53.4917336 163.3339539  15.1567812
  52.6200676 163.3705902  14.5033588  54.3178291 162.9035645  14.5907221
  53.1007385 162.5998383  16.4816856  53.9102135 162.4555054  17.1972408
  52.3902969 163.2093658  17.0401230  52.4761505 161.2698212  16.0083485
  51.7133102 161.6442566  15.3257313  53.2768364 160.7353821  15.4970980
  51.8959732 160.4894562  17.1071072  51.8845520 159.5023346  16.8936520
  52.3325729 160.6423340  18.0049477  50.9051247 160.6829071  17.1370182
  54.0048523 166.9560852  14.0999632  52.8205910 167.0822906  13.7347126
  54.7674561 167.9438171  14.4847116  55.7089767 167.7370758  14.7862043
  54.1856499 169.2739105  14.7887611  53.2870407 169.0617981  15.3680868
  55.1508560 170.1432648  15.6588840  56.0854530 170.2850494  15.1161785
  54.5674629 171.5476227  16.0110092  53.5749893 171.5226593  16.4609852
  55.2265892 172.0492096  16.7195797  54.5438881 172.1859589  15.1277981
  55.5394936 169.3937683  16.9589729  55.7936440 168.3670044  16.6957436
  56.4387207 169.8727417  17.3463612  54.4721489 169.3569183  18.0733337
  53.5392723 168.9281921  17.7072315  54.8448715 168.6943665  18.8544903
  54.2930870 170.3464661  18.4938450  53.6582298 170.0918274  13.5690136
  54.2180138 170.0587158  12.4935780  52.5798683 170.8937988  13.7056046
  52.1500435 170.9500275  14.6178493  51.9957848 171.6381836  12.5313873
  51.9897537 170.9163666  11.7146559  50.9915047 171.9731293  12.7909012
  52.8964615 172.8018646  12.2022400  53.4194794 172.9044800  11.1403732
  53.0840416 173.7387085  13.1539307  52.6245079 173.5767975  14.0386410
  53.6209984 175.0566101  12.9643631  53.7987366 175.1904449  11.8973074
  52.5707970 176.1109009  13.4598179  51.6281700 175.9809418  12.9281559
  52.3854523 175.8377228  14.4986229  52.9351006 177.5055084  13.3790550
  52.8755074 177.8283691  12.4769440  54.9901924 175.3154297  13.6794071
  55.2270660 174.7986908  14.7680149  55.7692184 176.2392120  13.1538267
  55.4599266 176.5996704  12.2624779  57.0740433 176.5316772  13.6844788
  57.5836143 175.5807343  13.8398724  57.8605194 177.2845001  12.5895338
  57.3463326 178.2373962  12.4642506  58.8968887 177.5267029  12.8248606
  57.8142509 176.7127075  11.6626997  57.0429420 177.3231659  15.0474968
  58.0122795 177.2001953  15.7761354  55.9855881 178.1195831  15.2929211
  55.3424606 178.2930603  14.5337162  55.5912552 178.5784454  16.6725578
  56.2773247 179.2686005  17.1635799  54.2577438 179.3621216  16.6218281
  53.5645638 178.7749786  16.0194530  53.6386337 179.5408478  18.0439873
  54.2885590 180.0074615  18.7842407  52.7127800 180.1148682  18.0064449
  53.4172173 178.5281982  18.3810177  54.6121407 180.6597748  15.9562531
  55.3319397 181.1626129  16.6021194  55.1149788 180.4258728  15.0178804
  53.3518105 181.4168854  15.5148325  52.8512955 181.8025665  16.4029980
  53.8054047 182.2814178  15.0301113  52.7372894 180.7991791  14.8599348
  55.5648460 177.3798065  17.6281567  56.2714272 177.3372040  18.6081409
  54.7059898 176.3609772  17.4044495  54.0949326 176.3923798  16.6008778
  54.4848442 175.2308197  18.3232651  54.1546478 175.5683441  19.3056889
  53.5137634 174.3566284  17.6135941  53.8039474 174.1010437  16.5944939
  53.4507103 173.4311676  18.1860027  52.0567436 174.8430176  17.4519997
  51.6210518 174.7641449  18.4480171  52.0490036 175.8945923  17.1652775
  51.2229652 174.0689545  16.4680233  51.6715469 173.3785553  15.5924282
  49.9199944 174.2377319  16.5183258  49.4050941 173.7906952  15.7732573
  49.5383492 174.9552765  17.1179886  55.7180595 174.3976593  18.4884415
  55.9313545 173.8562775  19.5366688  56.5720215 174.2446136  17.4277267
  56.1839256 174.6105194  16.5700645  57.8524094 173.5309906  17.4003601
  57.6563568 172.4954834  17.6785145  58.2714424 173.3870239  15.8878279
  57.3852119 173.0880890  15.3280621  58.6438065 174.3342590  15.4977236
  59.3504906 172.3186951  15.6239233  60.2874374 172.7404022  15.9877892
  59.1729431 171.4540405  16.2634201  59.4701920 171.8781281  14.0935984
  60.2932854 171.1664124  14.0298262  58.7016525 171.1881104  13.7452831
  59.7130508 173.0690918  13.2767973  60.3917732 173.7218323  13.6419897
  59.1382294 173.2114105  12.0812149  58.1869431 172.5204315  11.5550823
  57.7900734 171.7228699  12.0310011  57.8303185 172.7584381  10.6406050
  59.5509491 174.2616882  11.4505749  60.3240967 174.8014832  11.8124704
  59.1764908 174.3525085  10.5169601  58.8317146 174.1618958  18.3733120
  59.2417030 173.5207520  19.3064079  59.0511322 175.4927826  18.2385139
  58.7343063 175.8684692  17.3561401  59.7791443 176.3314056  19.1899319
  60.7667656 175.8930206  19.3332100  59.8721809 177.7602081  18.6849232
  58.8580551 178.0948486  18.4665718  60.4026756 178.3842468  19.4041309
  60.6577301 177.9945221  17.3780041  60.4068756 177.2224579  16.6506138
  60.1988983 179.3395538  16.7528820  60.5315666 180.1825867  17.3584766
  60.6307373 179.5028687  15.7654886  59.1140366 179.4236298  16.6887741
  62.2258224 178.0302734  17.4694195  62.5996742 177.1442719  17.9825764
  62.6349297 178.1063843  16.4619751  62.5819664 178.9258270  17.9785919
  59.2280655 176.1851501  20.6523571  60.0311890 175.9748688  21.5352154
  57.9057198 176.2110901  20.8783665  57.3116531 176.3373871  20.0713806
  57.2137718 175.9961090  22.1814308  57.6203651 176.7079315  22.8998337
  55.7062454 176.1564636  22.1285591  55.2548103 175.5812683  21.3201847
  55.2424011 175.8205414  23.0559826  55.2400894 177.6678925  22.0625839
  55.7507477 178.1682892  22.8853416  55.5452766 178.0733185  21.0979118
  53.6848145 177.8176270  22.1201019  53.4270401 178.8725433  22.2139015
  53.3341942 177.3564606  21.1967964  53.0304260 177.0083771  23.2591858
  52.7475777 176.0541077  23.0875320  52.8805122 177.4758759  24.5048466
  53.2197952 178.6848907  24.8827000  53.1050987 179.4370575  24.2184639
  53.1793213 178.8637848  25.8759079  52.4640236 176.6316223  25.4259033
  52.0279350 175.7662811  25.1410751  52.5572548 176.8572845  26.4059448
  57.5466309 174.6373596  22.7469082  58.0259781 174.5438690  23.8893967
  57.4992905 173.5378723  21.9901409  57.2130470 173.7117157  21.0372829
  58.0668221 172.2611694  22.3962536  57.4800377 171.9617615  23.2646694
  57.6652527 171.2970581  21.2812481  56.5949516 171.3039856  21.0750790
  58.1181259 171.5938568  20.3352470  58.2373924 169.6011963  21.6860676
  57.3162842 168.9634705  20.9582195  59.6165848 172.2606964  22.6699791
  60.0570450 171.8126068  23.7676258  60.4690056 172.7862549  21.7587795
  60.1467361 173.0862274  20.8497906  61.8551292 172.9533386  22.0687256
  62.2861824 171.9529114  22.1070976  62.6151810 173.6858826  20.9423790
  62.0934906 174.6088257  20.6891708  63.6222496 173.7799530  21.3486614
  62.5886383 172.8668060  19.5886078  63.3486938 172.0870361  19.6373081
  61.6185951 172.3888702  19.4518757  62.6679039 173.8288727  18.4121151
  63.4024696 174.8446960  18.5103168  62.0692215 173.4715576  17.3823414
  62.1591301 173.6484680  23.4404812  63.1186562 173.2209778  24.1522655
  61.4978027 174.7807770  23.8265553  60.7070160 175.0998383  23.2853050
  61.7833824 175.5339050  25.0717068  62.8706207 175.5743103  25.1378384
  61.1563148 176.9731293  24.9826527  60.1194038 176.9249878  24.6500893
  61.1064644 177.4475098  25.9627476  61.9315643 177.9147186  24.0110664
  62.0426826 177.3793793  23.0681057  61.1040535 179.1525574  23.7277317
  61.0837631 179.8217010  24.5879288  61.6250076 179.7260590  22.9610500
  60.0885811 178.9114838  23.4134083  63.3143425 178.2553101  24.5686417
  63.8310661 177.3211670  24.7887974  63.9531708 178.8627625  23.9275475
  63.1167145 178.8370361  25.4689999  61.3631706 174.8299103  26.3717632
  62.0536118 175.0526581  27.4101868  60.3355980 173.9495544  26.2990570
  59.9095573 173.9037170  25.3844604  59.9440727 172.9664612  27.2822399
  59.8142090 173.4310303  28.2596893  58.6342049 172.3901672  26.8038540
  57.9665642 173.2303009  26.6127243  58.7196198 171.8659363  25.8520107
  57.9854126 171.4239197  27.8397846  57.5032730 171.8334351  28.9655018
  57.7421341 170.3038788  27.3694782  60.9956017 171.8575745  27.4627113
  61.2996292 171.5884552  28.5795593  61.5614433 171.3398132  26.3323059
  61.1761436 171.6504059  25.4518661  62.7588425 170.4984283  26.2817497
  62.4952583 169.6191101  26.8694820  63.0817680 170.0686951  24.8613663
  63.1720963 170.9380035  24.2100353  64.4834900 169.3845978  24.9328671
  64.4076843 168.7776031  25.8350353  64.6672745 168.7548523  24.0623817
  65.2277451 170.1768951  25.0131359  61.9997253 169.1080170  24.2661057
  62.2643394 168.0902710  24.5529327  61.0526810 169.2753754  24.7791309
  61.8849487 169.1280365  22.7006168  62.8177261 168.9981079  22.1518517
  61.2257805 168.3356323  22.3460884  61.4713173 170.0940552  22.4110832
  63.9437180 171.1955566  26.9810143  64.5419006 170.6316223  27.8935127
  64.3241653 172.4208984  26.5988655  63.8328018 172.8158875  25.8097839
  65.5391235 173.1609650  27.0939560  66.3080292 172.3884888  27.1066837
  65.9790497 174.3035736  26.1640797  65.2375641 175.0947266  26.0529041
  66.8755569 174.7397614  26.6046581  66.4264908 173.8499603  24.7581558
  67.3217850 173.2311096  24.8178539  65.5974197 173.2364044  24.4055939
  66.7362289 175.2574921  23.5091743  67.1459427 174.4269867  22.0180931
  66.3266373 173.7210541  21.8820839  67.2541046 175.2070770  21.2645359
  68.1024857 173.9226837  22.1552181  65.4647675 173.6578522  28.5485191
  66.5004044 173.8349152  29.1335773  64.2924423 173.7129822  29.1665134
  63.4899292 173.7433472  28.5540180  64.1342239 174.0184631  30.6265717
  64.9605255 174.6746521  30.8999653  62.6661987 174.6229401  30.8272114
  61.9853554 174.1655579  30.1093311  62.3093681 174.4743958  31.8463860
  62.6148720 176.1803284  30.7219143  63.6250267 176.8468781  30.5749283
  61.4724121 176.8403320  30.8845215  61.5259476 177.8427277  30.7729378
  60.6349220 176.2792206  30.9467602  64.2587814 172.6810913  31.4454689
  65.0587997 172.5727844  32.3424263  63.4552231 171.6829987  31.0154877
  62.7805901 171.9255066  30.3040333  63.3201332 170.2838135  31.6053200
  63.0460663 170.4084778  32.6529121  62.1514091 169.5595093  30.9775639
  62.1864319 169.6499939  29.8918915  62.3276482 168.5120392  31.2222137
  60.8418198 170.0263062  31.5818615  60.8977661 169.9353790  32.6666222
  60.8423882 171.0968170  31.3766575  59.6515160 169.2783508  31.1094437
  59.4440689 169.3587341  30.0423908  59.6971169 168.1998901  31.2608700
  58.4268494 169.8697510  31.8799896  58.2933426 169.3793182  32.8442345
  58.6629448 170.9167786  32.0699310  57.2067184 169.7928925  31.0214348
  56.9942398 168.8114319  30.9132271  56.3885689 170.2543488  31.3926239
  57.3678627 170.2481384  30.1343727  64.5999298 169.3978729  31.5168800
  64.7238922 168.5620270  32.3946114  65.5277328 169.5413513  30.6309891
  65.2832947 170.2501373  29.9542561  66.7802734 168.7291565  30.4422607
  66.5850067 167.6990204  30.7402363  67.2275162 168.7932892  28.9572945
  66.3745575 168.3594055  28.4354706  67.4622879 169.8333282  28.7307911
  68.6897278 167.8396606  28.6006641  68.8570786 168.1894836  27.3221855
  67.9592361 169.2229309  31.3042526  68.3218689 170.3671722  31.2676544
  68.5599823 168.3176270  32.1165085  68.3414230 167.3330536  32.1709709
  69.6629791 168.7640076  33.0209465  70.0488052 169.6882629  32.5908508
  69.2438965 169.0920258  34.4730644  70.0794830 169.5365753  35.0136986
  68.1114273 170.1246643  34.6456223  67.3006134 169.9189453  33.9467888
  67.7903976 170.0486298  35.6844978  68.4629517 171.1309509  34.4177437
  68.7817764 167.9367981  35.1382256  69.2859573 167.8767548  35.9529610
  70.8456802 167.8060608  33.0474968  71.9987640 168.1999054  32.7625694
  70.6370544 166.5361633  33.4067726  69.7279816 166.2575073  33.7474022
  71.6612396 165.4630127  33.3081818  72.6788330 165.8506622  33.2598038
  71.5452957 164.6333771  34.5830383  71.7864075 165.2610931  35.4409065
  70.5307693 164.2645416  34.7340736  72.4790115 163.5387268  34.5919495
  72.4295807 163.2325134  35.5004616  71.4221725 164.5327454  32.0389519
  70.2862244 164.4293518  31.5870380  72.4783936 163.8556366  31.5832443
  73.3434067 163.9716339  32.0915718  72.5602112 162.8945007  30.4328575
  71.5108109 162.6766968  30.2342834  73.1900101 163.5518188  29.1142673
  74.2086792 163.8035431  29.4093037  73.2016907 162.8692627  28.2645092
  72.4321289 164.8365784  28.6665707  72.2980881 165.5244751  29.5013924
  73.3115616 165.5277863  27.6182823  73.5974274 164.9559784  26.7354374
  72.7823410 166.4075470  27.2521629  74.2508163 165.7455902  28.1266766
  71.0910645 164.4400024  27.9446373  70.4507370 163.9326630  28.6662159
  70.6436768 165.3345490  27.5113373  71.3316040 163.8122711  27.0866241
  73.2483139 161.5709686  30.7175541  74.4662476 161.4523773  30.7886925
  72.3531189 160.5818939  30.9796295  71.3675690 160.7974854  30.9316578
  72.8603134 159.2595673  31.4365692  73.8023453 159.3549347  31.9765568
  71.7572556 158.7566376  32.3724174  70.8479538 158.6802521  31.7762280
  72.0294189 157.7170563  32.5548973  71.7263947 159.7641602  33.8687019
  70.5624466 159.3484802  34.3759995  73.0709839 158.2230225  30.2883415
  72.8217010 158.5367584  29.0821609  73.5423203 156.9946747  30.6323490
  73.5051193 156.7180328  31.6030121  73.4539261 155.8558350  29.7105045
  73.6841431 156.2237091  28.7106171  74.5747070 154.8953705  30.0756512
  75.5522003 155.3286133  29.8637600  74.6055679 154.7430115  31.1545105
  74.4962692 153.2796936  29.1654224  75.5422363 152.6789856  29.7398739
  72.0453110 155.2004089  29.7875710  71.4897385 154.9375610  30.8375359
  71.5471802 154.8455811  28.5841484  72.1415482 154.9730835  27.7775688
  70.2436371 154.2731476  28.3761272  69.4694061 154.8548889  28.8763580
  69.8924637 154.1175690  26.8778553  69.7773819 155.1059723  26.4329700
  70.6718903 153.5466614  26.3732204  68.5130310 153.4865723  26.6080055
  68.6593246 152.5246735  27.0993862  67.6929932 154.0781250  27.0150833
  68.2647552 153.1796417  25.0898075  69.1864624 152.7876892  24.6597805
  67.4713211 152.4364471  25.0108833  67.8300323 154.4076691  24.2863560
  66.8628693 154.7118378  24.6865902  68.5130615 155.2498169  24.3975525
  67.7257843 154.0825348  22.8255634  67.3892288 153.1525269  22.6208401
  67.1078033 154.6917572  22.3087883  68.6213913 154.2523346  22.3906498
  70.1136169 152.9174957  29.1199493  69.1355896 152.7700958  29.9162769
  71.1700134 152.1171265  28.9833775  71.9875183 152.4035797  28.4640293
  71.1465225 150.7463379  29.5750580  70.1697388 150.3648224  29.2776680
  72.1941071 149.8821259  28.9176712  72.1265335 150.0010834  27.8362904
  73.2030716 150.2020721  29.1778965  72.0184326 148.4140472  29.2993088
  72.2973022 148.2445221  30.3393078  70.9806442 148.1113434  29.1597786
  72.8852158 147.4737244  28.4204254  73.0432281 147.7188873  27.1966000
  73.3338013 146.3698120  28.8996582  73.7343140 145.6233673  28.3496532
  73.1734924 146.1571808  29.8739243  71.1470947 150.6969910  31.1254749
  70.3823853 149.9751129  31.7318344  71.8094940 151.6322021  31.8047009
  72.4948044 152.1256256  31.2506428  71.7150803 151.7869415  33.2867699
  71.6939163 150.8560944  33.8534927  72.9957352 152.5258942  33.6952362
  72.9314651 153.5801544  33.4260216  73.1535797 152.5182648  34.7737198
  74.4985275 151.8881073  32.9551277  75.1535187 151.6660919  34.0981903
  70.4850922 152.5678101  33.7590027  69.8464203 152.3773041  34.8114738
  70.0626221 153.4408569  32.8247223  70.6702194 153.5142365  32.0212631
  69.2370987 154.6634827  33.0886307  69.3049088 155.1775970  32.1298904
  67.6886902 154.3752747  33.2709846  67.4769058 153.9027100  34.2301102
  67.1567535 155.3229523  33.1870041  67.2027817 153.5106964  32.1497803
  67.3276596 154.0427704  31.2067013  67.7055054 152.5478821  32.2412300
  65.7021561 153.1533661  32.3050880  64.9605408 153.3529968  33.2731934
  65.2173233 152.3404846  31.4316311  64.2740021 151.9873505  31.5061131
  65.8047028 152.0536041  30.6617050  69.7526779 155.6029358  34.2012749
  69.5509796 156.7990875  33.9532928  70.2919388 155.2023468  35.2961540
  70.1311722 154.2273254  35.5049248  70.6196823 156.0328217  36.4445572
  69.9799500 156.9114685  36.3618774  70.1947784 155.3190155  37.7596359
  70.3103104 156.0781097  38.5332832  69.1677856 154.9677887  37.6595459
  71.0353775 154.1072693  38.2413979  71.6205902 153.4617462  37.3892365
  71.0207291 153.7147980  39.4261360  72.0772247 156.4314728  36.5632286
  72.4002380 157.2872314  37.4266891  72.9468918 156.0000458  35.6221695
  72.5548401 155.3359528  34.9699516  74.3560486 156.3930664  35.6152802
  74.5669785 156.6416779  36.6553726  75.2583771 155.2187042  35.1819229
  74.9306870 154.9769440  34.1708527  76.7523346 155.4032135  35.0935326
  77.1784897 155.4221954  36.0965958  77.2052155 154.5927124  34.5225029
  76.9876633 156.3128357  34.5409698  75.0702286 154.0270996  36.0337067
  74.7127991 154.2842712  36.8867645  74.5730057 157.5843964  34.6609192
  74.3713531 157.4798737  33.4659309  74.9437866 158.7684937  35.1769791
  74.9237442 158.8704681  36.1816177  75.2803421 160.0097504  34.4945145
  74.4520264 160.2878571  33.8428726  75.4122391 161.1113281  35.5763168
  74.5589523 161.1560516  36.2530785  76.2953491 160.7755127  36.1198769
  75.8526001 162.5175934  34.9916801  76.8670578 162.4361725  34.6013756
  75.1643677 162.7930756  34.1925850  76.0192032 163.6675110  36.0566864
  75.9755707 163.4133759  37.2649155  76.3858719 164.8443909  35.6913376
  76.5458450 159.9374695  33.6708603  77.5916138 159.5134430  34.1546593
  76.4306107 160.4150085  32.4236755  75.5411377 160.8282928  32.1825676
  77.5761108 160.2544556  31.4665508  78.3943634 159.7213745  31.9506798
  77.1307449 159.5447388  30.1586304  76.0415955 159.5024414  30.1670284
  77.5475006 160.1134491  28.8122749  78.5457153 160.5418091  28.9027233
  77.5824051 159.4126587  27.9781399  76.8588181 160.9051514  28.5172825
  77.6844559 158.0941315  30.1770687  77.2703400 157.5960846  29.3003941
  78.7584229 158.1217041  29.9927979  77.4514008 157.2501221  31.4678135
  76.4429932 157.2946930  31.8791924  77.8375854 156.2455597  31.2950859
  78.1247864 157.7306519  32.1775589  78.0626984 161.7047729  31.2306919
  79.2922668 161.8330994  31.0581818  77.1618576 162.6326447  31.0201550
  76.1797943 162.3968811  31.0283432  77.3800583 164.0942383  30.7985821
  78.1648254 164.3910980  31.4943714  77.9848022 164.3635101  29.4040890
  78.7938309 163.7044220  29.0891609  76.9866638 164.2866974  28.2644272
  76.3320160 165.1547852  28.3416557  77.4367905 164.2334900  27.2731419
  76.2415085 163.5083160  28.4286728  78.5245209 165.6880341  29.3970184
  79.4771805 165.6122131  29.3058968  76.1246338 164.9619598  31.1423836
  75.1070023 164.4494171  31.6622467  76.2266235 166.3327789  31.1116123
  76.9979553 166.7303162  30.5947762  75.2579880 167.3244934  31.6707287
  74.2944641 166.8429871  31.8376598  75.7900696 167.8281708  32.9983292
  75.6622620 166.9990540  33.6942711  77.2020340 168.3370514  33.0797081
  77.4141159 169.0032349  32.2434616  77.3434753 168.8544922  34.0285759
  77.9495468 167.5505066  32.9763145  74.9952469 168.8967590  33.4112549
  74.4668045 168.7337646  34.1959686  75.0547485 168.4528961  30.6374130
  75.9810333 168.7649384  29.8819008  73.8586502 169.0674438  30.6232777
  73.1794434 168.6557922  31.2472305  73.4901276 170.1902008  29.7873707
  73.2461777 169.7960663  28.8008385  72.1633453 170.7329254  30.3333893
  71.3347092 170.0265656  30.2830830  72.2324677 170.8930664  31.4093437
  71.7947769 171.9664917  29.5164604  72.5165863 172.7509155  29.7439556
  71.7664948 171.8230133  28.4363136  70.4238434 172.5174103  29.8430500
  69.6425552 171.7957153  29.6045837  70.4257736 172.6061859  30.9294262
  70.1341705 173.8530731  29.1385784  71.0760345 174.4016266  29.1474400
  69.6989822 173.7157288  28.1487064  69.1381226 174.6304474  29.9212360
  69.2417450 174.5018005  30.9176350  69.1069946 175.6187439  29.7152615
  68.1981354 174.2885895  29.7810440  74.6954117 171.2132111  29.7510967
  74.9974442 171.7230225  28.6639061  75.4072495 171.4968414  30.8243561
  75.0343094 171.0824738  31.6665707  76.3139725 172.6650391  30.8859711
  75.8509674 173.4580688  30.2987461  76.4485779 173.1456451  32.3654976
  76.6189346 172.2782898  33.0032845  77.3076172 173.8131104  32.4335709
  75.3090897 173.9855957  32.8965302  74.7453156 174.8339233  32.1520653
  74.7654114 173.6806030  34.0014572  74.1403809 174.3492889  34.4284172
  75.1160126 172.8843384  34.5144272  77.6834412 172.4211731  30.2145233
  78.4154816 173.3422394  29.9249821  77.9146805 171.2182465  29.7461033
  77.2589569 170.4608154  29.8743324  79.1445007 170.9020844  28.9430370
  79.8187027 171.7508850  29.0574722  79.7214432 169.5961456  29.4744816
  79.0107422 168.7698364  29.4588356  80.5656586 169.3322906  28.8374767
  80.1829987 169.6557770  30.8693142  79.2926254 169.6408539  31.4978905
  80.7190399 168.7434387  31.1308346  81.0607071 170.8706207  31.2808342
  81.9193268 171.2833252  30.4797287  80.9859238 171.3636627  32.4601326
  78.8332367 170.7021942  27.4699192  79.7344818 170.4751434  26.6440334
  77.5605240 170.8350525  27.0761509  76.8723145 171.1181946  27.7590141
  77.1346436 170.8847656  25.6195583  77.4343414 169.9561157  25.1338806
  75.5469437 171.0093384  25.5077000  75.1102448 171.8363953  26.0674782
  75.2120743 171.2267609  24.0498848  75.4177551 170.3189545  23.4827213
  74.1341934 171.3208923  23.9178867  75.7467804 172.0897217  23.6530647
  74.7858658 169.7402039  26.0547791  75.1417770 168.8755798  25.4945450
  75.0331879 169.6321106  27.1108322  73.2940826 169.8520203  25.9304562
  73.0150757 169.6504211  24.8962345  72.7497406 169.1472931  26.5590763
  73.0291901 170.8605804  26.2478313  77.8655930 172.0162964  24.8938522
  77.8695679 173.1825714  25.3827038  78.5083694 171.7456207  23.7470360
  78.3540649 170.8206177  23.3720093  79.1769638 172.7535706  22.8990574
  78.5777359 173.6602173  22.9827042  80.5835190 173.0797577  23.3184719
  80.7516785 174.1566467  23.3064365  80.6439209 172.8776550  24.3878689
  81.6918716 172.3169250  22.6229954  81.9845963 171.0193329  23.0803318
  81.4424896 170.5566101  23.8917580  82.9299393 170.2103577  22.4247131
  83.1283951 169.2348175  22.8434601  83.6022339 170.7938995  21.3474655
  84.4172516 170.3033447  20.8361015  83.3758621 172.1002960  20.8722496
  84.0619125 172.5710144  20.1836567  82.4074936 172.8903656  21.5650826
  82.2756729 173.9107971  21.2368488  78.9915466 172.4385071  21.3877335
  79.0653229 171.2633362  21.0728855  78.7667999 173.4348602  20.5662708
  78.5654068 174.3312378  20.9858780  78.6556396 173.3274841  19.0907707
  78.1352081 172.4202576  18.7838440  77.8299332 174.4915924  18.5889606
  78.2209091 175.4821777  18.8212833  77.8822708 174.5653534  17.5027199
  76.4789276 174.4286499  18.8626194  76.2143631 175.3117981  19.1303310
  80.0897064 173.3749695  18.4082413  80.6236725 174.4215851  18.0738983
  80.6946716 172.2200775  18.2156982  80.3019180 171.3782501  18.6121750
  81.8720474 172.0626373  17.4570866  82.5299530 172.8712616  17.7754631
  82.5469208 170.7503815  17.9210377  82.6609955 170.8063354  19.0036087
  81.8133774 169.9609070  17.7575378  83.8990326 170.3798370  17.2755737
  83.7152176 170.1552124  16.2249279  84.9534607 171.4685059  17.5180531
  85.3228912 171.5184937  18.5423222  85.8280640 171.3003540  16.8896351
  84.6460648 172.4768829  17.2409935  84.4493256 169.0399780  17.8605156
  83.6881790 168.2801819  17.6830616  85.3429413 168.6972046  17.3389244
  84.5498657 169.1263275  18.9424286  81.6214294 172.1293030  15.9037447
  82.4732208 172.6373444  15.1470499  80.3626251 171.7602386  15.5018616
  79.7704773 171.4879761  16.2734470  79.7710190 171.8215332  14.1508951
  80.5495911 171.8490143  13.3885450  78.8904419 170.5366821  13.9572382
  79.5884781 169.7036133  14.0398865  78.0976562 170.5439301  14.7052679
  78.3543701 170.5209351  12.6554947  78.2570572 169.6834106  12.1965046
  78.8806000 173.0102234  13.8795919  78.2162018 173.5107269  14.7883520
  78.8673248 173.5258179  12.6459026  79.4796982 173.0622711  11.9899912
  77.9431381 174.5029602  12.1303720  77.9153061 175.3025818  12.8705940
  78.4428711 175.0847626  10.8084459  78.8277969 174.2687531  10.1968279
  77.5404892 175.3613586  10.2631941  79.4384918 176.2368317  10.9382706
  80.3247299 175.8674316  11.4542446  79.7653122 176.5667877   9.4784431
  78.8565826 176.9025421   8.9788685  80.5079269 177.3637543   9.4404469
  80.0708389 175.6443634   8.9845810  78.7915115 177.4672546  11.5784588
  78.9508286 177.5230713  12.6553087  79.3177109 178.3019104  11.1152411
  77.7362747 177.4774780  11.3055611  76.4862518 174.0640106  12.0073404
  75.5252304 174.8937378  11.8748503  76.2369614 172.7551880  12.2414274
  77.0673141 172.1877899  12.3345585  74.9345016 172.1387024  12.5848379
  74.1394119 172.5968628  11.9966002  74.9515915 170.6642456  12.1859894
  75.6958466 170.0694885  12.7155762  73.9960175 170.1635437  12.3418036
  75.2603378 170.6316833  10.3861437  75.4643326 169.3143005  10.2978888
  74.5456009 172.2189331  14.0999432  73.5265808 171.7369385  14.4726820
  75.2987976 172.8715515  14.9892559  76.0763779 173.3947144  14.6127319
  75.1149216 173.0112305  16.4185028  75.4909744 173.9757385  16.7597103
  74.0377197 172.9812622  16.5823593  75.8991165 171.9160309  17.2284298
  76.9891052 171.4957275  16.8516235  75.3408279 171.4541931  18.3620319
  74.1421814 171.8821106  19.0658951  73.3504257 171.6080475  18.3686771
  74.1334763 172.9657440  19.1832027  74.0679932 171.0590820  20.3420887
  73.5322037 170.1399384  20.1050549  73.6613007 171.6448364  21.1664619
  75.5563202 170.6972046  20.5870075  75.6865692 169.8110962  21.2082500
  76.0976257 171.5008850  21.0862083  76.0392456 170.4460754  19.1468658
  77.1194534 170.5615082  19.2359524  75.8168106 169.0122986  18.6853085
  76.3368530 168.1023712  19.2778072  75.1816635 168.7805481  17.5404224
  74.8461838 169.5926514  17.0423756  74.8306885 167.4905396  16.9638195
  75.6852798 166.8545074  17.1945667  73.6090698 166.9887695  17.7025223
  73.7076874 167.2739868  18.7499142  72.7608032 167.4758606  17.2215958
  73.3888321 165.4442291  17.8353386  73.2594223 164.8695068  16.9182529
  74.2670822 165.0438080  18.3417339  71.9961624 165.0770721  18.9359760
  70.6719742 165.3898010  17.6851177  70.9710922 164.7882538  16.8267670
  69.7334747 164.9136353  17.9689960  70.5217972 166.4605713  17.5472546
  74.7334824 167.5724792  15.4229383  74.2847214 168.5422974  14.8491497
  75.1956329 166.4800873  14.7958450  75.7545471 165.8728638  15.3780766
  74.8823242 166.1288147  13.4096584  73.8771591 166.4506378  13.1373053
  75.8670731 166.9235840  12.4748726  76.8204956 166.4745178  12.1966372
  75.3613205 167.1835632  11.5449629  76.0860977 167.8790436  12.9515810
  74.8962555 164.5744476  13.2407827  74.9416351 163.8143158  14.2191172
  74.8878937 164.1634979  11.9785242  75.0655594 164.8697357  11.2787027
  74.9355087 162.7517090  11.5879536  74.8493805 162.0866089  12.4472189
  73.6757050 162.4586334  10.6249733  73.5963821 163.2563477   9.8864126
  73.7450333 161.5127258  10.0877943  72.7764587 162.3907471  11.2372141
  76.2608109 162.5475159  10.7857018  76.5851669 163.3720245   9.9609547
  76.9149475 161.4217834  11.1123238  76.7065506 160.8820953  11.9402142
  78.2342911 161.1071625  10.5429039  78.2794418 161.5828552   9.5632238
  79.4172287 161.6418152  11.3443966  79.3800354 160.9482422  12.1844387
  80.3619614 161.4839020  10.8241568  79.3339539 163.0153656  11.8572598
  79.7625732 164.1289673  11.0328798  80.0431519 164.1223602   9.9899855
  79.8476562 165.3825073  11.6181593  80.3097458 166.1405182  11.0031204
  79.6022110 165.6109467  13.0060730  79.5725861 166.8294830  13.4748631
  79.6952820 167.4798126  12.7794285  79.1602783 164.5119629  13.8368864
  79.0041122 164.6691132  14.8939219  79.0391693 163.2338104  13.2212858
  78.6924438 162.4022369  13.8168287  78.2521515 159.5191803  10.4732189
  77.4513702 158.8661957  11.1140289  79.0710754 158.9451599   9.6314411
  79.6327438 159.5754089   9.0769854  79.0923233 157.4733429   9.3166313
  78.4553223 156.8501129   9.9442530  78.5201721 157.0866699   7.9019828
  78.7209702 156.0371399   7.6868587  76.9988632 157.2689972   7.7331729
  76.7274094 158.2960968   7.9770145  76.5434875 156.9173889   6.8073702
  76.4697037 156.6363983   8.4458427  79.1502762 157.8427734   6.7154660
  80.2345657 157.7787170   6.8066349  78.8082504 157.4567719   5.7552009
  78.8453140 158.8878326   6.7697773  80.4876785 156.7973328   9.4803753
  81.4689636 157.4090576   9.0515509  80.5833130 155.6206055  10.0809650
  79.7160416 155.2149506  10.4025269  81.7555466 154.6909180  10.1060753
  82.6437149 155.2776184  10.3407011  81.5722351 153.6631622  11.2302856
  82.5678253 153.2597656  11.4151859  81.2568741 154.1102905  12.1730032
  80.6099472 152.4897614  10.8905077  80.0891342 152.4579010   9.8104219
  80.5058365 151.4864960  11.6981487  80.2050323 150.5831299  11.3611898
  80.8753510 151.5832825  12.6331291  82.1204529 154.1445007   8.6984148
  81.2488937 154.2495270   7.8204455  83.2362900 153.3487396   8.5090055
  84.3372345 153.0795135   9.3965902  84.1790695 152.1288605   9.9058495
  84.4744644 153.8301544  10.1749249  85.5413055 152.9010315   8.4879141
  86.3173523 152.3497772   9.0189285  85.8950272 153.8680878   8.1304121
  84.8988724 152.0504913   7.3793316  84.8481979 151.0268860   7.7504907
  85.4137573 151.9673462   6.4222045  83.5497971 152.7243347   7.2026744
  83.6769409 153.5963898   6.5612187  82.5059967 151.7195587   6.5843396
  82.4167709 151.4962006   5.3797140  81.6850586 151.1751099   7.4677272
  81.9397049 151.5076141   8.3868046  80.6955261 150.1222992   7.3328772
  80.9421082 149.4221191   6.5347137  80.7712631 149.2691040   8.6229858
  80.5994720 149.9254608   9.4760828  80.0305405 148.4733887   8.5437479
  82.1381836 148.6946716   8.8508606  83.1922989 149.3448486   9.4949942
  84.1752167 148.4455872   9.5373926  85.1654282 148.6731873   9.9035683
  83.8159561 147.2742615   9.0065985  84.5020599 146.5520325   8.8400497
  82.4952164 147.3649750   8.6624489  81.8682861 146.6038971   8.2218399
  79.3272324 150.7890625   7.1875958  78.3543701 150.0975647   7.5102110
  79.1930847 152.0304871   6.7433147  80.0138168 152.6035614   6.6088452
  77.9283905 152.7926483   6.3738136  78.2624054 153.7914734   6.0929198
  77.5010910 152.3641205   5.4672408  76.8275223 152.9117126   7.4086628
  75.7394791 153.4080963   7.0909743  77.0564880 152.5075836   8.6457453
  77.9911423 152.1949005   8.8665676  76.1802216 152.7458954   9.7759781
  75.1577530 152.4675140   9.5207376  76.6620102 151.7605133  10.8907404
  76.8019867 150.7808228  10.4339008  77.6665497 152.0181732  11.2263126
  75.6705093 151.6634369  12.0606337  74.7705002 150.5971222  12.0952663
  74.8510361 149.7997589  11.3712854  73.7562866 150.5229645  13.1035738
  73.1141663 149.6641846  13.2323828  73.7720108 151.4387360  14.1563368
  72.8846741 151.3310547  15.1514854  72.4047699 150.5055389  15.0524607
  74.6722336 152.5145569  14.0556278  74.6439819 153.2887573  14.8081017
  75.6373978 152.6580505  13.0460463  76.3514404 153.4665985  12.9930649
  76.2043915 154.2059479  10.3253727  77.3149567 154.8092804  10.4705935
  75.0608597 154.7858124  10.6550570  74.2131958 154.2401886  10.5928831
  74.8807678 156.1627350  10.9660988  75.6357422 156.7596741  10.4544621
  73.6319962 156.7845917  10.2112837  72.7511215 156.4897308  10.7815647
  73.6379776 158.2805939  10.4044981  74.4161453 158.8000336   9.8452692
  72.6896973 158.6283417   9.9946842  73.6236343 158.4548340  11.4803858
  73.5278625 156.3620148   8.7286053  74.0137863 157.0475159   8.0343103
  74.0571365 155.4389038   8.4922915  72.0696793 156.2587585   8.2867088
  71.7182999 157.2901306   8.2568617  71.9786072 155.6945801   7.3585296
  71.4161377 155.6967163   8.9538536  74.8187103 156.4277649  12.4768429
  73.9470139 155.9073792  13.1339750  75.8015671 157.1976929  12.9440346
  76.5217133 157.5527344  12.3313007  75.9762573 157.5685272  14.3464298
  75.2326431 157.0729370  14.9705486  77.4192276 157.2516022  14.8239889
  78.0504913 157.6557159  14.0325985  77.6307449 157.6635284  15.8107376
  77.6898422 155.7919922  15.0519648  77.2576447 155.0382538  16.1513996
  77.8108444 153.8284912  15.9878607  77.7264252 153.0086212  16.6857700
  78.6481628 153.8241730  14.9084415  79.2536011 153.0709991  14.6147346
  78.4960938 155.0352783  14.2633972  79.0522766 155.4047089  13.4145250
  75.7039261 159.0236969  14.4739809  76.3566513 159.8303223  13.8366327
  74.6223145 159.3557739  15.1613836  73.9828262 158.7218933  15.6189489
  74.4042053 160.7001495  15.6194248  74.8581467 161.4411469  14.9614296
  72.8973160 161.0337067  15.6928205  72.3819733 160.1842346  16.1410675
  72.6986771 161.8962555  16.3289375  72.2774963 161.3346100  14.3523808
  72.7548065 162.2332764  13.9616365  72.4744568 160.5270691  13.6472731
  70.7931366 161.5566864  14.4505806  70.1091995 160.9469604  15.3159742
  70.2710571 162.3331451  13.6323662  75.1548996 160.9770050  16.9583511
  74.8043060 160.3258209  17.9235668  76.0815125 161.9064026  17.0035076
  76.1518173 162.5453033  16.2244205  76.8963013 162.1631927  18.2333679
  76.5956039 161.4466553  18.9977264  78.4425507 162.0713348  17.9696579
  79.0682907 162.4461060  18.7796535  78.7724762 160.6430969  17.7256718
  78.2215805 160.1682892  16.9137802  79.8263855 160.5323486  17.4705353
  78.5911026 160.1370850  18.6739044  78.8351669 162.6458588  16.7634449
  79.7212601 162.3100586  16.6095428  76.7134705 163.5505829  18.7417068
  76.7529984 164.5285950  17.9725437  76.5336227 163.7316132  20.0424671
  76.4352570 162.8818359  20.5794182  76.5456009 164.9635925  20.8069534
  76.0939407 165.8014374  20.2758179  75.5932541 164.7666626  21.9568729
  74.5677948 164.6260071  21.6151829  75.8636856 163.8646240  22.5057755
  75.6048660 166.0058899  22.9513798  76.6280899 166.3671417  23.0543861
  74.7691498 167.2069397  22.4722538  73.7880020 166.8507233  22.1583290
  74.5818558 167.9771423  23.2204552  75.2006073 167.5688324  21.5389919
  75.1113968 165.6345367  24.3728008  75.5760803 164.6987610  24.6834259
  75.4530334 166.4187164  25.0484200  74.0480270 165.3952942  24.3831406
  77.9658966 165.2642670  21.2571335  78.7089462 164.4066315  21.7685165
  78.3414078 166.4857788  21.0985203  77.8268738 167.0587463  20.4450207
  79.6998138 167.0155029  21.5067234  80.2873154 166.1229095  21.7217121
  80.4230957 167.8428192  20.4014950  81.3125839 168.2895508  20.8457184
  80.9238052 166.9836121  19.2479305  80.0546341 166.4954529  18.8070793
  81.3296738 167.7141418  18.5481491  81.6550446 166.2765503  19.6396408
  79.5944061 168.8132019  19.7804012  79.5450668 169.6529694  20.2429581
  79.5799561 167.7270203  22.8718643  78.7171555 168.6318665  23.1049557
  80.4265442 167.2863770  23.7641449  81.0921631 166.6073914  23.4235287
  80.6863632 167.9081421  25.1080647  80.3965454 168.9568787  25.1733818
  79.9143600 167.1213379  26.2138195  80.2126007 167.5622101  27.1650238
  78.4065399 167.2554016  26.0108280  78.1476517 166.7580414  25.0761051
  77.8820038 166.7360535  26.8128529  78.0555191 168.2853851  26.0742130
  80.3564224 165.6547394  26.3132725  81.4391251 165.5632782  26.3997879
  80.0011292 165.2186584  27.2469254  80.0460434 165.0379791  25.4698410
  82.1558914 167.9479523  25.3426762  82.9103088 167.0338898  24.9264755
  82.6484070 168.9515076  26.0836067  82.0539169 169.7371979  26.3058224
  84.1455841 168.9354248  26.4960232  84.6696014 168.6204834  25.5936260
  84.6334915 170.3494720  26.9370251  84.3178787 170.5918121  27.9517956
  85.7200699 170.3431854  27.0230999  84.3050156 171.4580688  25.9872894
  85.0626144 171.6840820  24.8179398  85.8401260 170.9739380  24.5779800
  84.8343430 172.8707428  24.0518684  85.3997879 173.1041412  23.1618156
  83.8622742 173.7826080  24.4795437  83.6950760 174.9912720  23.8415470
  83.8987427 174.8881378  22.9090862  83.1131897 173.5357819  25.6104870
  82.3919296 174.2953644  25.8736019  83.3168640 172.3685913  26.3629265
  82.8211517 172.2004242  27.3075981  84.5123520 167.9030914  27.5487747
  85.6558151 167.3929901  27.6173191  83.5508347 167.6057739  28.4370956
  82.6268616 168.0097351  28.3805618  83.7059784 166.7450104  29.6061630
  84.6653519 166.2299652  29.5568390  83.7650375 167.6982574  30.8262596
  84.5327911 168.4528351  30.6552048  82.8094559 168.2136383  30.9229527
  84.0746994 167.1229401  32.1897850  83.3257217 166.3754120  32.4512291
  85.0044937 166.5797882  32.0207520  84.1894150 168.2731934  33.2264900
  84.8774414 169.0394440  32.8693085  83.2415466 168.8027649  33.3223038
  84.6072159 167.6978149  34.6284142  84.3802872 168.4139252  35.4182167
  83.8749161 166.9050446  34.7812080  86.0053101 167.2731781  34.7932968
  86.6943512 167.7137756  34.2006721  86.3950119 167.4558868  35.7070007
  86.1922531 166.3123169  34.5445175  82.6761093 165.6191559  29.7047062
  81.4863663 165.7533722  29.4771996  83.1153488 164.5139465  30.2014027
  84.1062012 164.4672546  30.3914661  82.3482513 163.3401184  30.5981903
  81.3118057 163.5679016  30.8471832  82.1831818 162.4721222  29.3210411
  83.1785583 162.1540833  29.0109329  81.5441437 161.6152039  29.5341473
  81.7879944 163.1540375  28.5680943  82.9042740 162.6582184  31.8576965
  84.0469818 162.8128815  32.1895752  81.9977493 161.8956146  32.4795837
  81.0949783 161.7763367  32.0426865  82.1895981 161.4737244  33.8597069
  83.1238785 161.9867554  34.0877647  81.0163116 161.9713135  34.6802635
  80.1058350 161.6560669  34.1705933  81.0631790 161.7333832  35.7429428
  80.8000259 163.7791443  34.3968201  82.0247421 164.0146790  34.8758698
  82.4923782 159.9724121  34.0687256  83.6516495 159.6323700  34.3559761
  81.5220261 159.0220337  34.0593452  80.6183701 159.3712158  33.7737198
  81.6628952 157.5633392  34.2809982  82.5231018 157.4031067  34.9309845
  80.3364639 157.0109558  34.9671974  79.4625931 157.3342438  34.4015656
  80.3437195 155.9218445  34.9240036  80.2091217 157.5661163  36.3235703
  81.1281433 157.3190308  37.1343384  79.1689301 158.2515564  36.6217613
  79.0186005 158.5146790  37.5852280  78.5441360 158.5067902  35.8703690
  81.9216995 156.7888641  32.9779015  81.2027969 155.7664642  32.6818886
  82.9488373 157.1632538  32.2254219  83.4332428 157.9910889  32.5418625
  83.3608170 156.5365448  30.9453468  82.6610794 155.7495575  30.6640625
  83.3410492 157.5671997  29.8020687  84.0270309 158.3865051  30.0171642
  83.6279526 157.0940247  28.8629742  81.9751129 158.0997772  29.4192066
  81.5809402 158.6464386  30.2758770  81.9817581 159.0541229  28.2396965
  82.1458588 158.5338898  27.2960186  80.9734573 159.4480438  28.1122570
  82.7355270 159.8380127  28.3135929  81.0169373 157.0165710  28.8845081
  80.7391968 156.3657379  29.7135944  80.1196594 157.5108185  28.5120754
  81.4396820 156.4162598  28.0788822  84.7681198 155.9708710  31.1085339
  85.7094269 156.6305084  31.5386105  84.9764175 154.6836395  30.6131649
  84.1463623 154.2498474  30.2350922  86.2717667 154.0498657  30.4600315
  86.9308777 154.6309052  31.1050606  86.2813797 152.5578918  30.9075642
  85.5935440 152.0462799  30.2343311  87.2703094 152.1502075  30.6979942
  85.9039612 152.3486481  32.3962746  85.8218918 153.2548370  33.1941910
  85.7433472 151.0835571  32.7449837  85.6582718 150.8669891  33.7278137
  85.8585739 150.3356628  32.0760460  86.7594376 154.1809082  28.9863911
  85.8899231 154.5086823  28.1236858  88.0852203 154.0444489  28.7762566
  88.5664444 153.5879517  29.5379295  88.6809464 154.1499786  27.4730473
  87.9878540 154.6045837  26.7651920  89.8893509 155.0982056  27.5698757
  90.6489792 154.5962982  28.1691742  90.2688065 155.2234192  26.5557537
  89.6616364 156.4752808  28.3210907  89.0550690 156.3877106  29.2224808
  90.9413834 157.1453247  28.6598034  91.4298325 157.4296722  27.7277813
  90.7515640 158.0260010  29.2733746  91.6269989 156.5041962  29.2138557
  88.8805008 157.3498688  27.2875824  87.9181213 156.8644409  27.1253910
  88.6702271 158.3579407  27.6448975  89.5243149 157.4523315  26.4140263
  89.0515671 152.7557831  26.9434700  89.4923935 151.9212036  27.7155476
  88.8106995 152.4081879  25.6712818  88.3598709 153.1048737  25.0955391
  89.2616348 151.1056366  25.0697289  90.1918716 150.7848816  25.5386372
  88.2225571 149.9933167  25.3548470  88.5695572 148.9677277  25.2288933
  87.9585266 150.0074615  26.4122925  87.1141663 150.1977997  24.5162659
  86.3175659 149.8714294  24.9411373  89.6782379 151.3437653  23.6300793
  89.2998657 152.3511505  23.0211315  90.4464188 150.4127045  23.0782642
  90.6251602 149.5520325  23.5756798  91.1500778 150.7168121  21.8215065
  91.5650635 149.8272247  21.3476734  90.5233765 151.2377472  21.0976486
  92.4062958 151.5735168  22.0397530  92.7236481 151.9622192  23.1664600
  93.1250992 152.0263519  20.9807167  92.7716141 151.7850342  20.0658855
  93.9771576 153.2184448  21.1147823  93.9328156 153.6640015  22.1085701
  95.4293823 152.8763580  20.7920151  95.4908829 152.4578552  19.7874393
  96.0127945 153.7956085  20.7401047  96.1594696 151.8559418  21.7583256
  95.4907379 151.0057068  21.8924351  97.0157776 151.3726196  21.2879696
  96.4620514 152.4765472  23.0777969  97.1081619 153.3538208  23.0455818
  95.5185623 152.8873901  23.4371471  96.8569031 151.4837799  24.1081924
  97.7574463 151.0438232  23.9833927  96.2093887 151.1200714  25.2087135
  95.1085510 151.6787262  25.7364693  94.7376862 152.4963531  25.2738190
  94.5950241 151.1669922  26.4396896  96.7072906 150.0923920  25.7947292
  97.4560013 149.5425262  25.3982754  96.2854538 149.7147522  26.6311169
  93.5116272 154.2943420  20.1095448  92.7908249 153.9782562  19.1562214
  93.8087387 155.6025391  20.3547573  94.6304398 156.0922241  21.5545731
  95.6997757 155.8817902  21.5362988  94.1324615 155.6682587  22.4265747
  94.4845657 157.5841827  21.5443115  95.3875275 158.1713409  21.7116680
  93.7825928 157.8587952  22.3316689  94.0509720 157.9058533  20.1091518
  94.8657761 158.2998505  19.5017414  93.2751617 158.6709290  20.1388416
  93.4476089 156.6829529  19.4647408  92.3583450 156.7039948  19.4987869
  93.8174667 156.5148010  17.9575310  94.9164886 156.0929108  17.5622749
  92.7839584 156.6161957  17.1172829  91.8732300 156.7154541  17.5425243
  92.8936996 156.5787506  15.6541786  93.9706879 156.6594696  15.5069609
  92.4727554 155.2699432  15.0732241  92.9980164 154.4511719  15.5649815
  91.4272919 155.1591492  15.3610287  92.6344986 155.1938782  13.6667442
  92.5236359 154.3028107  13.3271866  92.4602356 157.8415833  14.9145432
  91.4560089 158.4592590  15.3496046  93.1669998 158.2785034  13.8451529
  94.1078110 157.9313202  13.7250042  92.6622009 159.3172760  12.9333677
  91.9507751 159.9790497  13.4273567  93.8340225 160.0450134  12.2862930
  93.5454407 160.7585602  11.5144892  94.5643463 160.8104401  13.3933792
  94.9966583 160.1452789  14.1408939  95.3209076 161.4657440  12.9617805
  93.8386383 161.4711304  13.8676348  94.6521378 159.0528412  11.6340446
  95.5038147 159.3398285  11.2965651  91.9273453 158.6645203  11.7546911
  91.3629456 159.4631500  11.0071554  91.9562607 157.2954254  11.5487185
  92.5107727 156.6873322  12.1342459  91.3136978 156.7507935  10.3477774
  91.7825394 157.2242584   9.4851532  91.5404739 155.2855988  10.3524275
  91.1803818 154.8894501  11.3019018  90.9125595 154.8052979   9.6020041
  92.9898224 154.8202515   9.9494839  93.7567062 155.0216522  10.6974344
  92.9154358 153.7329102   9.9332495  93.3468094 155.2449646   8.5480070
  94.2451248 156.1080933   8.3582783  92.8336868 154.7452545   7.5279646
  89.7831497 157.0110779  10.2965231  89.0107117 156.7595673  11.2506151
  89.3549881 157.6044006   9.1764679  89.9734421 157.5882416   8.3781271
  87.9489441 158.0312653   8.8867197  87.9180145 158.4330444   7.8739433
  87.1137085 156.6914825   8.6694689  87.7994919 155.9253845   8.3076620
  86.7019272 156.3257904   9.6101131  85.9725952 156.7710114   7.6768169
  84.6041336 156.7714386   8.0844030  83.9041672 156.6060791   6.9380436
  82.8314362 156.5502319   6.8260903  84.7961655 156.4900513   5.9055333
  84.4816360 156.1650848   5.0024490  86.0966187 156.6053772   6.3133655
  86.9864731 156.5770721   5.7020092  87.3411255 159.0559692   9.8112011
  86.0954285 159.1010284   9.8884974  88.2091675 159.9172821  10.3716631
  89.1994019 159.8495636  10.1847420  87.6922836 160.8534241  11.4056206
  87.0623169 160.2425232  12.0521841  88.8754730 161.4191437  12.2425652
  89.4160690 160.5165558  12.5275192  89.4309540 162.1658478  11.6751432
  88.2296066 162.0751801  13.3157940  88.8523178 162.6995850  13.6951942
  86.8174667 162.0274658  10.9431114  87.1953354 162.9378510  10.2024632
  85.6647491 162.0979156  11.5855370  85.4423218 161.4081116  12.2889528
  84.6328049 163.1722107  11.3450298  84.3712997 163.1982422  10.2871838
  83.3565445 162.7349091  12.0744076  83.4673996 162.8964081  13.1466618
  82.5603104 163.4348755  11.8210926  82.9324570 161.3125153  11.8635187
  83.3042679 160.4677124  10.8664427  83.7454681 160.8198547   9.9457188
  82.8184662 159.1938629  11.0744629  82.7611847 158.5041809  10.3388290
  82.1614075 159.0782471  12.2478151  81.5650864 158.0041962  12.9168682
  81.4486542 157.0453491  12.4337158  81.0159225 158.2525940  14.1943865
  80.5578995 157.4115143  14.6935692  81.1638489 159.4632568  14.9031649
  80.7950287 159.6184692  15.9063005  81.8245316 160.5031891  14.1725655
  81.8998337 161.4618225  14.6642380  82.2786102 160.3706665  12.8606968
  85.0548019 164.6009979  11.7660284  84.3213730 165.5553131  11.3919716
  86.1390762 164.7061462  12.4894123  86.6129456 163.8334808  12.6738119
  86.6968689 165.8883057  13.1405735  86.2507172 166.7776794  12.6955290
  86.3190460 165.8315430  14.6059437  86.7041779 164.9208679  15.0646868
  86.8323288 166.5842285  15.2043724  84.8432159 165.9496918  14.9615469
  84.2140884 167.1830597  14.7409954  84.7696228 168.0421448  14.3949213
  82.9118881 167.3348846  15.1276522  82.4449005 168.2906952  14.9412136
  82.1320343 166.3437805  15.7024527  81.1159210 166.5370789  16.0131760
  82.7012787 165.0611420  15.7542181  82.1348724 164.1576843  15.9255781
  84.0643616 164.8533478  15.4005661  84.4187622 163.8331604  15.4007444
  88.1842651 166.0548401  12.8847513  89.0186462 165.5828705  13.6821280
  88.6440964 166.6840210  11.7701340  87.8236923 167.1323090  10.6724167
  87.3300095 168.0672455  10.9374876  87.0264664 166.4374542  10.4083977
  88.7418594 167.3619995   9.4863434  88.4344864 168.1281891   8.7746115
  88.8819580 166.4459076   8.9125366  90.0804214 167.6620331  10.1404762
  90.1019440 168.7432556  10.2768488  90.9505844 167.4865875   9.5079098
  90.1034622 166.8260651  11.4306288  90.5102615 165.8364258  11.2226648
  90.9827042 167.3583527  12.4938860  90.6808929 168.3878021  13.1697693
  92.2125015 166.8924866  12.6197176  92.3985901 166.2408142  11.8708515
  93.2105026 167.2406311  13.6141901  94.1706467 166.8048096  13.3379984
  93.2621841 168.3249969  13.7120209  92.9833069 166.6707458  14.9804106
  93.5337372 167.2066040  15.9542294  92.0814438 165.7059479  15.1406384
  91.4598770 165.4845886  14.3759375  91.8677139 164.8925323  16.3472576
  92.5611496 165.1377869  17.1516838  90.4586716 165.1720581  16.9373627
  89.7695847 164.8824615  16.1440105  90.3030243 164.5704956  17.8329010
  90.2405777 166.6659851  17.3105316  90.6566467 167.1574554  18.5657635
  91.0209885 166.5362854  19.3706360  90.4021912 168.4731598  18.8348465
  90.7679672 168.8622742  19.7735729  89.7102966 169.3624878  18.0166206
  89.5358200 170.6949921  18.3920956  89.9429016 170.8580933  19.2460728
  89.2928162 168.8901672  16.7885475  88.7831116 169.5320587  16.0852795
  89.5499420 167.5056458  16.4288330  89.1871643 167.0441132  15.5223055
  92.0009995 163.4005280  16.0248508  91.7281265 162.8831635  14.9553003
  92.3762283 162.6314850  17.1088696  92.6519852 163.0473328  17.9870014
  92.2740250 161.1739044  17.1980953  92.0855408 160.7112122  16.2293339
  93.5347900 160.6157837  17.7927647  93.6006012 160.9067688  18.8411465
  93.3241196 159.5485535  17.7238064  94.4090805 160.9873199  17.2582855
  91.0360641 160.8626099  17.9903126  90.8064651 161.4610748  19.0456924
  90.1435318 159.9919891  17.5312920  90.3661804 159.4403229  16.7150841
  89.0197372 159.3727417  18.2123051  88.6296387 160.1320496  18.8900814
  87.9184952 159.0402069  17.1566410  87.0599594 158.6563721  17.7077274
  87.6101379 159.9738922  16.6862907  88.2446747 158.1243134  16.0042057
  88.4373779 158.5330963  14.7499495  88.5268402 159.5454254  14.3844490
  88.6015930 157.3854218  14.0106087  88.8578720 157.3495789  13.0343227
  88.5664444 156.2055359  14.7002754  88.7819901 154.8598633  14.2994165
  89.0912018 154.5573730  13.3098240  88.5330429 153.8592682  15.2781124
  88.7579422 152.8298492  15.0412493  88.0223770 154.2480469  16.5883884
  87.8990631 153.4462433  17.3013496  87.8738861 155.6086578  16.9366264
  87.5112686 155.7972107  17.9363041  88.2054138 156.6175385  16.0242214
  89.5041962 158.0568237  18.9631672  90.3638687 157.3404236  18.4696884
  88.9446259 157.7798004  20.1439228  88.4801483 158.5730591  20.5623913
  89.3080368 156.5350494  20.9307632  89.5595169 155.7809143  20.1850109
  90.4864731 156.8381805  21.8139305  91.2760696 157.1630096  21.1363373
  90.3704834 157.9790955  22.8120594  89.6050797 157.7166290  23.5423832
  91.3620529 158.0197449  23.2628803  90.1051254 158.9580994  22.4130154
  90.8202896 155.6192017  22.4083881  91.7027359 155.5999451  22.7859211
  88.0431900 156.0968628  21.7654858  87.2964020 156.9159698  22.3611450
  87.6608505 154.8003387  21.5684109  88.3538666 154.2254486  21.1108837
  86.3677368 154.2960968  21.9150238  85.6024475 154.8947906  21.4210644
  86.2237701 152.8780212  21.4341316  86.7777863 152.1231384  21.9920959
  84.6654434 152.5939331  21.4596348  84.0581589 153.3370667  20.9428635
  84.4981613 151.5475311  21.2043877  84.4172974 152.7035370  22.5153370
  86.6339874 152.5969849  19.9678135  86.2314987 153.3811035  19.3265038
  87.7140427 152.7297516  19.9048100  86.3607025 151.2320862  19.3981838
  85.2934952 151.1819763  19.1821709  86.9399338 151.0779572  18.4877796
  86.6702499 150.4234924  20.0603466  86.0980606 154.5170898  23.3887520
  86.8709717 154.1959381  24.2394447  84.8683624 154.9848633  23.7279720
  84.2939224 155.2847900  22.9532623  84.3028412 155.1843109  25.0958366
  85.1445541 155.1235809  25.7857170  83.7325439 156.6031342  25.1900673
  82.9817581 156.7605438  24.4156952  83.4324875 156.7253571  26.2308006
  84.4626617 157.3788300  24.9591312  83.2253647 154.1209564  25.4395752
  82.3446579 153.8130493  24.6424122  83.2263412 153.5448151  26.6597271
  83.9760590 153.7765350  27.2956009  82.2299728 152.6102448  27.2141743
  81.3469620 152.7498474  26.5905457  82.7822800 151.1714020  27.2158909
  83.7649307 151.1665039  27.6875687  82.1445007 150.4893341  27.7781258
  83.0572205 150.5868988  25.8001270  82.1250610 150.6439667  25.2380619
  83.8210907 151.1966248  25.3175735  83.7392731 149.2680817  25.8862476
  84.9331131 149.2049866  25.9581509  82.9650497 148.1980438  25.8494110
  83.4415665 147.3075104  25.8521996  81.9553223 148.1906738  25.8269768
  81.7330933 153.0886230  28.5623188  82.4611130 153.7667694  29.2773151
  80.5054474 152.6699066  28.9503899  79.8493729 152.1909027  28.3502045
  79.9659042 152.9206238  30.3012352  79.9104538 153.9901276  30.5041695
  78.4405289 152.5792236  30.3176479  77.9816132 153.0262451  29.4357948
  78.3397217 151.5139313  30.1100273  77.7198257 153.0911865  31.8932114
  76.6377487 152.3166046  32.0116653  80.6933670 152.1422577  31.4145546
  81.0815430 150.9741516  31.2605801  80.9365387 152.7865448  32.5840645
  80.6052094 153.7379761  32.6554680  81.7507248 152.2642975  33.7403030
  82.5923767 151.6862793  33.3586769  82.3540039 153.3916016  34.5550232
  82.9424744 154.0971527  33.9685249  81.5328903 153.8606110  35.0971603
  83.2853241 152.8966370  35.6820221  82.6959457 152.2346497  36.3164597
  84.1001587 152.2608795  35.3356705  83.9381485 154.0469055  36.3912811
  83.1656342 154.6407471  36.8798141  84.5589066 153.7286224  37.2288170
  84.7936554 154.8138733  35.4490738  85.1363831 154.2716675  34.6689072
  85.4680862 155.9924774  35.6441193  85.4540253 156.7015686  36.7755699
  84.9922409 156.3855896  37.6164131  85.8973007 157.6090851  36.7811699
  86.1995392 156.4562988  34.6894722  86.2836456 155.9155426  33.8405800
  86.9480362 157.1020355  34.8965454  81.0347824 151.1537933  34.5100555
  81.6825027 150.2753448  35.0769043  79.6632462 151.1833038  34.4875183
  79.2245178 152.0027924  34.0924606  78.8017120 150.2191315  35.2175636
  79.3510208 149.8616180  36.0885124  77.5501633 150.9799347  35.7681732
  77.0389023 151.4202728  34.9121361  76.5324097 150.1702118  36.5368042
  76.9597626 149.5633087  37.3350143  75.7680206 150.7777100  37.0213089
  75.9392090 149.4855042  35.9306793  78.0543442 152.1515656  36.7088280
  78.4783325 153.0031281  36.1766891  77.1695709 152.4864960  37.2502251
  78.9560547 151.7588654  37.8536415  79.9429245 151.5373535  37.4472809
  78.9754486 152.5465698  38.6067848  78.6211777 150.8940277  38.4263649
  78.3539886 148.9862518  34.4111862  77.8620071 147.9686584  35.0096283
  78.4111710 149.0907440  33.0270538  78.6830444 149.9645844  32.5997391
  77.7909698 148.1085510  32.1647415  77.7098923 147.1510315  32.6792183
  76.3557968 148.5316162  31.8694534  75.8459167 147.6446686  31.4933548
  75.8402176 148.7978363  32.7921715  76.1993790 149.8426361  30.6581173
  74.9259262 150.1139374  30.9574890  78.5620117 147.6758881  30.9011879
  78.1505585 146.6729126  30.3557873  79.6367874 148.3998566  30.4286575
  79.8646240 149.2014008  30.9993744  80.3880157 148.2260895  29.1786556
  81.3344269 148.7633362  29.2400551  80.6751175 147.1747131  29.1622467
  79.6584625 148.5219421  27.8551807  80.0950928 148.0704498  26.7986107
  78.5378113 149.2899017  27.8744946  78.1123276 149.5116730  28.7632504
  77.7777176 149.6795349  26.6496830  77.6569366 148.8432159  25.9611397
  76.3629150 150.2551575  26.9663124  75.8069458 149.5715637  27.6079445
  76.5124283 151.2530518  27.3786049  75.6309357 150.4207916  25.6647301
  75.5568771 149.5399933  24.8709202  74.9568558 151.5556030  25.5149345
  74.6437759 151.7071686  24.5667210  74.9017563 152.3083649  26.1860619
  78.6307449 150.6651917  25.8628197  79.2651596 151.5527039  26.4510994
  78.6143417 150.5437927  24.5282288  78.0390930 149.8074341  24.1448746
  79.2691422 151.5562134  23.6394482  80.3171616 151.5688019  23.9387894
  79.1603012 151.0561829  22.1844730  79.6401520 150.0840454  22.0714817
  78.1360550 150.9476624  21.8277493  79.7982101 151.9718781  21.1821404
  79.2055130 152.3567505  19.9798832  80.1022186 153.2292938  19.3930626
  79.7943268 153.7138367  18.4782867  81.1873016 153.3645325  20.1854000
  82.0040817 153.9368744  20.0260601  80.9923019 152.5767670  21.3311863
  81.6588135 152.4703064  22.1742954  78.5935135 152.9978943  23.7122822
  77.4336319 153.2098846  23.4067001  79.3621674 154.0091248  24.0850563
  80.3510590 153.8562317  24.2222347  78.9818115 155.4041901  24.3558483
  77.8987579 155.4121399  24.2332306  79.2029419 155.7963257  25.7593784
  80.2710953 155.8750763  25.9617214  78.7871552 156.7822266  25.9673100
  78.6197891 154.9110107  26.8500938  79.1805115 153.9837341  26.9677830
  78.6370697 155.3948059  27.8266926  76.8375473 154.4561005  26.6176395
  76.0161362 156.0257721  26.9209843  76.5299683 156.7913818  26.3396778
  74.9919052 156.0047607  26.5486813  76.1116180 156.2257080  27.9882355
  79.5279007 156.3938141  23.3417969  79.1415558 157.5411987  23.3926678
  80.2949905 155.8751221  22.3268471  80.4000702 154.8708496  22.3049393
  80.8959351 156.7052612  21.3310833  80.6797943 156.2749329  20.3532295
  80.4807816 157.7127533  21.3578835  82.3386307 156.7940369  21.5742092
  83.0332718 155.7623596  21.7727470  82.8754349 158.0052185  21.4762554
  82.2348404 158.7295990  21.1846924  84.3658371 158.2176971  21.4059410
  84.8765945 157.3919983  21.9013596  84.9722672 158.0829163  19.9974766
  84.7745743 159.0153503  19.4686966  86.0485382 158.0051117  20.1513786
  84.3791504 157.0609741  19.1176834  84.9259491 155.8320618  18.8080673
  85.9561081 155.6274567  19.0596771  84.1045990 154.9879303  18.1418839
  84.3582230 154.0975342  17.7381687  82.9054489 155.6792908  17.8302059
  81.6975021 155.3405151  17.1836929  81.5008469 154.3422241  16.8215599
  80.6844025 156.3234863  17.1956310  79.7411346 156.0089264  16.7740841
  80.8472595 157.6750336  17.7110481  80.0122528 158.3567963  17.7770729
  82.0913239 158.0545807  18.2841568  82.3254166 159.0330658  18.6768131
  83.1035843 157.0272827  18.3711948  84.8541489 159.4728088  22.1347828
  84.1717758 160.5034027  22.0585651  86.0194626 159.3649750  22.8312435
  86.4691849 158.4659576  22.9293404  86.8180161 160.5475769  23.2412052
  86.1456604 161.2722931  23.7003822  87.8080521 160.1645203  24.3722095
  87.1907578 159.6892700  25.1345749  88.5520782 159.4157104  24.1004944
  88.4910583 161.4081573  24.9893589  89.0502853 161.9902191  24.2568455
  87.7232132 162.0223083  25.4598293  89.3129959 161.0114441  26.2385712
  88.6942596 160.4502258  26.9387836  90.1812057 160.4245453  25.9388237
  89.7071838 162.2603149  27.1212769  90.0906754 163.0522461  26.4779415
  88.8752823 162.7246246  27.6508427  90.6917801 161.8410187  28.1840687
  91.5831604 161.6345673  27.7563801  90.8856430 162.5174103  28.9086514
  90.4048767 160.9669037  28.6008511  87.5609360 161.0942993  21.9814091
  88.0918198 160.2433472  21.2252693  87.7568893 162.4067078  21.8822155
  87.2047119 163.0895081  22.3811989  88.5844498 163.0149841  20.8503132
  89.0589676 162.1997681  20.3040924  87.7849655 163.8307495  19.8358669
  87.0943909 164.5055847  20.3416462  88.4498978 164.4439545  19.2276344
  86.9459305 163.0370483  18.8273087  87.3447113 163.0496216  17.4302940
  88.2024994 163.5911255  17.0596695  86.4587708 162.4240723  16.5434437
  86.6528168 162.3082275  15.4873533  85.3017578 161.7716827  16.9725304
  84.7775879 161.1263428  16.2831917  84.8697739 161.8390045  18.3055096
  83.9796677 161.2850952  18.5649204  85.7072449 162.5151215  19.2420750
  85.3737793 162.5055542  20.2692642  89.6866837 163.8453217  21.5446033
  89.4633942 164.9903870  21.9375477  90.9161377 163.3345337  21.5871754
  91.0418320 162.4407043  21.1339798  92.1172562 164.0682678  21.9940453
  91.8119965 164.8130646  22.7290306  93.1308212 163.1520996  22.7294350
  94.0558853 163.6827545  22.9547634  92.5162582 162.6727753  24.0826893
  91.5656738 162.1922607  23.8511639  93.1399994 161.9205322  24.5655632
  92.2284317 163.5086517  24.7203159  93.4576263 161.8914490  22.1312103
  93.8672333 162.2151184  21.3255653  92.8364182 164.6369324  20.7612343
  92.7060013 164.1102448  19.7043571  93.3893585 165.8480682  20.8587627
  93.3916397 166.4327393  21.6823158  94.0922394 166.4995575  19.7523136
  93.4396744 166.4937134  18.8792515  94.2317276 168.0209656  20.0230598
  94.8138199 168.2167358  20.9235859  94.6245117 168.4951172  19.1236095
  93.2566147 168.5045166  20.0817661  95.4170151 165.7660828  19.4495411
  96.1305618 165.3318939  20.3596859  95.7995605 165.7455902  18.1452808
  95.1434326 166.0743866  17.4513874  97.1192703 165.2918396  17.6262035
  97.5332184 164.5824890  18.3428497  97.0033646 164.6294708  16.2108231
  98.0132065 164.5599365  15.8064852  96.3639221 163.3229523  16.2563152
  95.2935791 163.4214020  16.4373646  96.4716568 162.8213196  15.2946196
  96.7700653 162.7816925  17.1108265  96.1950836 165.4852142  15.3501129
  96.3957748 165.2031250  14.4547091  98.1513367 166.3781128  17.5416851
  99.2329559 166.1719208  18.0989819  97.8954239 167.5270081  16.8665524
  96.9980469 167.5309601  16.4030857  98.7095566 168.7345276  16.9246864
  99.7629852 168.4711151  16.8298283  98.2637024 169.6550293  15.7361679
  97.1788712 169.6113739  15.6395044  98.7124023 170.6419373  15.8491783
  98.8564682 169.0634308  14.4313583  99.9186783 168.8957367  14.6093445
  98.5607605 168.0287170  14.2580452  98.7123337 169.9080048  13.1261597
  99.0160904 170.9165649  13.4065962  99.3892365 169.5008850  12.3750496
  97.2770691 169.8589935  12.6641693  96.9490509 168.8479614  12.9056606
  96.6856766 170.5515137  13.2631655  97.2241058 170.1626740  11.2399902
  97.7044296 169.4757996  10.6764441  96.2712021 170.0658112  10.9195280
  97.6318283 171.0669250  11.0497541  98.6837311 169.4348907  18.3100834
  97.7417908 169.2576752  19.1143723  99.6646805 170.3095856  18.4884930
 100.3364868 170.3270416  17.7345238 100.0776520 170.8975677  19.8017826
  99.8480682 170.0769806  20.4815235 101.5986557 171.1062469  19.9900112
 101.8030243 171.2733612  21.0475578 102.1610718 170.2529449  19.6109695
 102.1125946 172.3444366  19.2600613 102.0343781 172.2535400  18.1766777
 101.6439133 173.2388153  19.6706066 103.5878983 172.5279846  19.5342598
 103.6639252 172.5158844  20.6215382 104.1583481 171.7354584  19.0499058
 104.0864105 173.8914795  19.0294209 103.5222397 174.6331024  19.5949268
 105.1129456 174.0577393  19.3560524 104.0138474 174.0995026  17.5707951
 103.0831070 174.2103882  17.1945858 104.5692444 174.8793793  17.2492027
 104.3162918 173.2664642  17.0863438  99.2833252 172.1253204  20.2331085
  99.2023163 172.3638153  21.4359245  98.6729736 172.9111176  19.3117237
  98.7257843 172.6283112  18.3435669  98.0576935 174.2168884  19.5880280
  97.9632187 174.3893890  20.6601353  98.9776230 175.3613281  19.0908165
  98.5152359 176.3314362  19.2730446  99.9018097 175.4048767  19.6670933
  99.3508911 175.3747559  17.6076565  99.3116455 174.3139954  16.9674454
  99.7290955 176.5007629  17.0563831  96.6294479 174.2799377  19.2280331
  96.1259232 175.4010010  19.0356655  95.8491058 173.1835480  18.9925575
  96.1700897 172.2481232  19.1976433  94.4038620 173.2290192  18.7759056
  94.2267914 174.1432648  18.2094135  93.9342117 172.0689240  17.8703632
  94.0525055 171.0849762  18.3241844  92.8841934 172.2423248  17.6347923
  94.7341309 172.1224670  16.5798283  94.3519897 172.9554901  15.9897995
  95.8080597 172.1317139  16.7660828  94.4794083 170.6384888  15.5209103
  92.9074478 171.0382233  14.7521057  92.9185104 172.1103973  14.5561247
  92.8304825 170.4828033  13.8173914  92.0795975 170.6860657  15.3675356
  93.5428391 173.3233032  19.9703026  93.8493195 172.5850525  20.9178543
  92.4823532 174.1327820  19.9470806  92.3201523 174.6745300  19.1102448
  91.5713959 174.3043671  21.1193371  91.9200211 173.6513062  21.9193878
  91.6644440 175.6820984  21.7625790  92.5503922 175.6820221  22.3975544
  91.7809448 176.4407959  20.9886971  90.5335388 176.0749664  22.5607033
  90.7792358 176.3975372  23.4308624  90.1471939 173.8717499  20.6868725
  89.7896042 174.4644470  19.6872406  89.4374161 172.9607849  21.3637295
  88.0165482 172.7076569  21.1582375  87.7684326 172.4506073  20.1284466
  87.4079056 173.5506592  21.4853268  87.6649399 171.4892883  22.0411224
  87.8632431 170.5155792  21.5931702  86.6295624 171.5307770  22.3793125
  88.5909958 171.6652069  23.2038479  88.8768005 170.6808929  23.5747032
  88.2291946 172.2524719  24.0478439  89.8285065 172.3735352  22.6354980
  90.1649170 173.1690369  23.3004189  90.9075012 171.3082428  22.5252361
  91.0101395 170.6199646  21.5327644  91.7474289 171.1782227  23.5527458
  91.5842514 171.7929230  24.3373623  92.8432007 170.1109772  23.4749165
  93.3536987 170.2541504  22.5225525  93.8156586 170.2933502  24.6938801
  93.9543915 171.3572388  24.8862438  93.2293091 169.8869629  25.5179844
  95.0954590 169.4814606  24.6528740  95.5145111 169.7537537  25.6215572
  94.8144760 168.4285889  24.6779099  96.1865997 169.8881683  23.6061153
  96.0578690 170.8845978  22.9112110  97.2263336 169.1217041  23.5322037
  97.8408966 169.3408203  22.7612286  97.3380432 168.2424164  24.0164242
  92.2265854 168.6987000  23.5563030  92.8492203 167.7227173  23.0359688
  91.0690079 168.5090027  24.2272873  90.6337357 169.3144531  24.6537800
  90.2801666 167.2592621  24.3213577  90.4991684 166.5965118  23.4841557
  90.6823120 166.4866791  25.6229877  90.2672119 165.4850464  25.7348995
  91.7638092 166.3511810  25.6329880  90.2349472 167.1457214  26.8864479
  90.2097397 168.2294769  26.7727413  89.2162476 166.8609009  27.1495533
  91.1565475 166.8498840  28.1172466  90.6206512 167.1774750  29.0080891
  91.3687057 165.7810974  28.0897331  92.4785767 167.6159821  28.0909233
  93.2221603 166.9898682  27.5978107  92.3031006 168.5045929  27.4845448
  93.0027161 167.9342651  29.4329147  93.0159454 167.1587219  30.0797997
  93.9019241 168.3852539  29.3427238  92.5234375 168.7331696  29.8229828
  88.7368240 167.6363068  24.2940140  88.2466125 168.5773010  24.9275627
  87.9290848 166.7735291  23.6713066  88.3662033 165.9830627  23.2194252
  86.4369583 166.7034149  23.7598209  86.1132050 167.0324860  24.7472439
  85.7727814 167.6191254  22.6970463  84.7862473 167.8720398  23.0854855
  86.2922440 168.5771637  22.7179699  85.6067505 167.1129913  21.2979584
  86.7068100 167.2469788  20.4081154  87.5355530 167.8449097  20.7574768
  86.7279205 166.7466431  19.1216221  87.5804138 166.8927307  18.4748421
  85.6466599 166.0213165  18.6633053  85.6563263 165.5351868  17.6989422
  84.5253143 165.9056702  19.4447918  83.7072906 165.2928772  19.0959225
  84.4392090 166.5006714  20.7290764  83.5385818 166.3887024  21.3145161
  85.9169083 165.2656403  23.7305336  86.6863556 164.3048859  23.5829182
  84.6053314 165.1570282  23.7999554  84.0114288 165.9421844  24.0256195
  83.8654785 163.9607086  23.5752296  84.5908890 163.2801208  23.1294861
  83.3804855 163.3174591  24.8613548  82.6408691 163.9855804  25.3025646
  82.8529434 162.3910217  24.6343632  84.3670349 163.1789551  25.9860573
  84.7995605 164.1610870  26.7919140  84.4837036 165.1929779  26.7490959
  85.6779099 163.6567383  27.7386780  86.2196503 164.2249451  28.3740978
  85.7394028 162.2687683  27.7496662  86.2745361 161.3698425  28.6285973
  86.7210846 161.7096558  29.5513763  86.0516891 159.9714355  28.4129391
  86.4463806 159.1830597  29.0367050  85.4285889 159.6044006  27.2396946
  85.1722260 158.5673218  27.0811424  84.9417343 160.5839996  26.3363380
  84.4004288 160.1478729  25.5097866  85.0346375 161.9582825  26.5262489
  82.7641907 163.9970398  22.5193958  81.9744110 164.9257507  22.4799194
  82.8071747 163.0601959  21.5433693  83.4675293 162.2977448  21.5953636
  81.6995697 162.7699585  20.6779213  80.9475327 163.5589600  20.6762600
  82.0216599 162.6186523  19.6476440  80.8879852 161.4959412  21.1250000
  81.3503342 160.3969269  20.9012623  79.7621231 161.7121735  21.8411484
  79.4975357 162.6625366  22.0577126  78.8792419 160.7552490  22.5282001
  79.4339981 159.8175812  22.4945412  78.6792679 161.1750488  24.0413303
  77.9967270 162.0248566  24.0505791  78.2494125 160.3658142  24.6316414
  80.0073547 161.4818573  24.7671566  80.5377808 162.2697906  24.2324638
  79.7267838 161.9261627  26.1569290  79.5755844 161.0830688  26.8310413
  80.5570297 162.5169678  26.5438919  78.8493423 162.5726929  26.1705151
  80.9103546 160.2490387  24.8739376  81.1678009 159.8829956  23.8800373
  81.7932129 160.4309845  25.4867649  80.3676682 159.4132385  25.3155556
  77.5675125 160.4224243  21.7450924  76.8761597 161.3849792  21.4286041
  77.2453156 159.1806183  21.6137447  77.6722031 158.4830017  22.2063599
  76.2179947 158.7159729  20.6802120  76.3513718 159.2114410  19.7185307
  76.4995956 157.2406464  20.2481003  75.5728760 156.9568329  19.7493668
  77.6355896 157.0701599  19.2453861  78.5908432 157.2433624  19.7409573
  77.6232147 156.0490723  18.8641434  77.4648285 157.7230072  18.3893890
  76.7838974 156.4713593  21.3839417  76.0068130 156.0113983  21.7097893
  74.8511963 158.8996887  21.2738552  74.4082260 158.1893921  22.1340637
  74.0361404 159.8121796  20.6809692  74.4156570 160.4041748  19.9559822
  72.7004471 160.1203918  21.1786575  72.7844620 160.3757477  22.2349854
  72.1378098 161.4022064  20.5411644  71.2772293 161.6500702  21.1625080
  72.8792953 162.1938324  20.6489811  71.7423782 161.3393097  19.0697651
  72.4948273 161.8337402  18.4553699  71.8009033 160.2851868  18.7986660
  70.3665619 161.9211273  18.6860256  70.2978745 162.9653015  18.9911118
  70.3085709 161.7612305  17.6093788  69.2400284 161.2244873  19.2863865
  69.0023651 161.3911438  20.2537766  68.4960175 160.3373566  18.6344967
  68.5352325 159.9301758  17.4276161  69.0780945 160.3789368  16.7037334
  67.7892303 159.3248138  17.1159515  67.4546814 159.8736877  19.2712612
  67.2132721 160.2024078  20.1952572  66.7428284 159.3825073  18.7496395
  71.6651535 158.9554291  21.0719070  70.5552673 159.0612335  21.5076351
  72.0052338 157.7996521  20.4109173  72.8996201 157.8002777  19.9416962
  71.2529221 156.5268860  20.4603157  70.1936264 156.6629639  20.2424335
  71.8449554 155.5459442  19.4421921  71.6182404 154.4854431  19.5518780
  71.5217743 155.8358459  18.4423790  73.3014069 155.6334381  19.4018803
  73.6757965 154.7852783  19.1527615  71.3239059 155.8860626  21.8990173
  70.3988419 155.2718658  22.4029102  72.4125137 156.1522369  22.6286659
  73.1154785 156.6875000  22.1393471  72.7020340 155.6654663  23.9943008
  72.1033249 154.7702332  24.1622143  74.1236343 155.1772919  23.9617329
  74.7149353 156.0635834  24.1918716  74.3318939 154.5303802  24.8139286
  74.3183441 154.7493744  22.9783344  72.5144272 156.7288818  25.0813522
  72.3274155 156.3723297  26.2343788  72.4792862 157.9784851  24.7597466
  72.5365829 158.2089996  23.7780743  72.2842636 159.0554657  25.6957989
  72.8922119 158.8117371  26.5670605  72.7630005 160.4494324  25.2363262
  72.1884918 160.7548218  24.3618107  72.6076202 161.1498871  26.0568905
  74.3123779 160.5630646  24.9299068  74.5962982 159.8755493  24.1331596
  74.5790939 161.9425049  24.3092632  74.3683777 162.6772766  25.0863285
  75.5883179 161.8023834  23.9220428  73.9059830 162.1028290  23.4670506
  75.2241058 160.5080261  26.1443100  75.0677185 159.5979004  26.7233658
  76.2883072 160.6313629  25.9433994  74.9789352 161.3282776  26.8189926
  70.8091125 159.1637268  26.1515617  69.9238968 158.9566498  25.3533154
  70.5531845 159.4959412  27.4847279  71.3702087 159.6900787  28.0458736
  69.2263336 159.5431213  28.1312313  68.4910965 159.6679840  27.3362885
  68.9058685 158.2329865  28.7325153  69.1468277 157.4278717  28.0383720
  69.6100082 158.1113892  29.5556278  67.4910431 158.1203918  29.2759247
  67.2999191 158.9104919  30.0020924  66.4428482 158.0985413  28.1216564
  66.5755005 157.3128052  27.3779488  65.4894714 158.0015259  28.6410294
  66.4142990 159.0848999  27.6586018  67.3879929 156.7604218  29.9802723
  68.1109314 156.6213074  30.7840843  66.4230347 156.6718597  30.4793835
  67.5617218 155.9431152  29.2803192  69.0870895 160.7263031  29.0772095
  69.6644363 160.7292786  30.1886978  68.3192215 161.8581390  28.7003651
  67.9211502 162.0746307  27.3442974  67.0259705 161.4769592  27.1724300
  68.6871643 161.8843384  26.5925617  67.6131058 163.5320435  27.1712151
  66.8678055 163.6220703  26.3809509  68.4833374 164.1776733  27.0531406
  67.1043930 163.7997284  28.5317745  66.0435257 163.5543518  28.4824333
  67.2203064 164.8457489  28.8155422  67.8761215 162.9664917  29.5061550
  68.7136459 163.5310822  29.9159069  67.0226517 162.5913086  30.7660885
  66.0009537 163.2394409  30.9723740  67.4214249 161.6757202  31.6331444
  68.2247925 161.1455383  31.3271732  66.8994522 161.4379578  32.9540749
  65.8137894 161.5341797  32.9402466  67.3594742 160.1033325  33.5115166
  67.1935043 159.2976685  32.7963486  68.4331207 160.2305908  33.6500473
  66.6557236 159.8002777  34.8557396  66.8044434 160.6420898  35.5319901
  65.5816879 159.7304382  34.6834984  67.1746140 158.5431824  35.5105667
  68.1710968 158.2461243  35.1836395  67.1349411 158.7452393  36.5809364
  66.2748871 157.3912048  35.2423973  65.8644028 157.4195709  34.3200073
  65.8499451 156.4751587  36.1177826  66.0470810 156.5564270  37.4062309
  66.3700714 157.4199829  37.8185806  65.6900482 155.8563385  38.0406761
  65.2497559 155.3549957  35.6278343  65.1090927 155.1440277  34.6501808
  64.8818359 154.6369781  36.2354507  67.1537323 162.6171875  33.9140320
  66.1817322 162.9830170  34.6431999  68.2399445 163.2580566  33.9471512
  83.3624878 147.6093292  12.7860899  83.6481857 148.6950684  13.2035351
  84.5381012 149.4367676  12.4687738  82.9606094 149.1842804  14.4329634
  84.9550552 150.6603546  12.8947210  82.9075928 150.2686157  15.1484556
  82.1031723 148.4983521  15.2223206  84.6555405 151.6310272  13.8262434
  83.6636963 151.3942719  14.9606791  81.9767838 149.7970886  16.0035686
  81.5703964 148.5948639  16.4952717  85.2146530 153.0091858  14.1684752
  83.5120010 152.5915375  15.8014269  85.4282837 154.2570496  14.7446423
  84.3989182 153.4321136  15.3552198  84.6138916 149.1163940  11.5105505
  85.3213959 155.6007690  14.3105240  85.4588394 156.1083984  12.9438686
  85.1350403 156.6288910  15.1217680  85.5768280 155.3484955  11.9869184
  85.3327942 157.5454712  12.7384729  85.0098801 157.8193970  15.0118427
  85.0611572 158.5283051  13.7187395  85.1673431 159.7037048  13.4695730
  85.3393250 157.8067474  11.7595596  80.5992661 149.1168671  15.6746359
  79.3337173 149.0747986  15.0650587  78.2409973 150.0065155  15.1765432
  78.8045044 147.8149567  14.3608932  77.0633469 149.6816406  14.9462681
  77.6220322 147.7343750  13.9713163  76.8854980 148.7201385  14.1463423
