Cpptraj Generated Restart                                                       
   34  4.0000001E-01
  83.4217606 147.9186554  16.5512390  83.6295013 148.9787292  16.0550232
  82.6347961 149.9284363  15.9462509  84.9841156 149.1746063  15.4692192
  82.8393936 151.0530548  15.3310118  85.5608292 150.1038055  14.7922287
  85.9709930 148.2849426  15.4067755  83.7551041 151.9450226  14.7169962
  85.0676270 151.3396912  14.4831686  86.6572800 149.3661346  14.6384878
  86.9411545 148.0053711  14.4819212  83.3790512 153.2679138  14.3177605
  85.9588623 152.2879028  13.9250803  84.4367981 154.0540314  13.9257803
  85.5247803 153.3736572  13.8661022  81.7718811 149.6431122  16.3940659
  84.3996735 155.4161072  13.6687212  85.1141968 156.0600281  12.5851812
  84.0788193 156.3735199  14.5397186  85.4590683 155.4878845  11.5962076
  85.3970032 157.4939728  12.7053757  84.2684631 157.5279846  14.7146759
  85.0673828 158.3795013  13.8049440  85.4810028 159.5349426  13.9372377
  85.9729691 157.9112854  11.9837809  82.1306763 153.8109894  14.4193535
  81.0124435 153.0954590  14.3339481  87.6310730 148.5557251  15.4636574
  88.8157425 148.6654816  16.2771626  89.2798309 147.6105347  17.1319599
  89.5311432 149.8920746  16.4962101  90.1539536 147.7760010  17.9704685
  90.3749466 149.9227753  17.4151363  90.4644012 148.9654388  18.1838799
