Cpptraj Generated Restart                                                       
   34  4.0000001E-01
  89.1447906 149.0950470  10.6218529  88.4345245 149.8402405  11.2598925
  88.2013474 151.0850983  10.6253653  87.8708038 149.4612274  12.5690727
  87.4783096 152.0356293  11.2264814  87.0575638 149.9881897  13.4640818
  88.0308990 148.3148193  13.2637520  86.6630707 152.2896118  12.3554211
  86.5218964 151.2163696  13.4646654  87.0325928 148.9091187  14.2745323
  87.9772263 147.9436493  14.5804510  86.1143951 153.5582275  12.8227692
  85.7420425 151.8035126  14.5274124  85.3140335 153.9832306  13.8356590
  85.0585632 152.9888000  14.7758512  88.7345352 151.1662445   9.7676382
  84.8695297 155.2823639  13.8698254  84.8060684 156.2420502  12.6568298
  84.8810196 156.0578003  14.9443150  84.7265244 155.8735657  11.5157642
  84.8735428 157.6485291  12.9424810  84.9297562 157.2263336  15.1738253
  84.9842300 158.3720703  14.2335320  85.1064224 159.5699921  14.4226427
  84.9038315 158.2498016  12.1275339  84.1823425 153.1234283  15.7536392
  83.4805679 152.1225586  16.2594471  86.9613113 147.3061829  13.8519659
  86.0196838 146.2617035  13.7361698  85.0179520 146.2948914  12.7030430
  85.8759232 145.0691528  14.5328398  84.1359863 145.4108429  12.6458054
  84.9681931 144.2673950  14.3922281  84.0738602 144.5276031  13.5216808
