Cpptraj Generated Restart                                                       
   34  4.0000001E-01
  89.1071243 153.0150604   4.3603048  88.7957611 152.3355560   5.3713889
  89.6723175 152.4073334   6.4401445  87.6619873 151.3738708   5.3216681
  89.4668427 151.7498932   7.6107101  87.0857468 150.5783539   6.2425418
  86.7914581 151.1283112   4.3447828  88.6047821 150.9403687   8.3430328
  87.4573593 150.3682861   7.5660357  86.1804504 150.2187042   5.3509388
  85.4836121 150.6935883   4.3096833  88.8096924 150.6664581   9.6827040
  86.6000748 149.4637451   8.3619690  87.9333115 149.8115234  10.3038292
  86.9934998 149.4467010   9.4826708  90.4382401 153.0694885   6.4787755
  87.8860245 149.4791260  11.6924229  86.6916046 149.5218811  12.6165476
  88.8396530 148.8562317  12.3429518  85.5843506 149.9464874  12.1976461
  86.8634415 148.9284668  13.9577723  88.9384918 148.3334961  13.3998089
  87.9823074 148.2324219  14.4628801  88.0210953 147.5846100  15.4985104
  86.0684891 148.9721985  14.5844402  89.8066177 151.2122345  10.4260778
  89.4659958 152.3096466  11.0562763  86.3353348 149.7843018   3.7867103
  86.2894287 148.8715210   2.6580701  85.3847427 149.0859375   1.5733806
  86.8639450 147.5583191   2.5929537  85.1321259 148.1167603   0.8253533
  86.4475937 146.6832733   1.8882515  85.4125824 146.9455566   1.1785008
