Cpptraj Generated Restart                                                       
 6223  4.0000001E-01
  90.5695801 180.3173065  24.6087894  91.5268707 180.4127808  24.3012600
  90.4821167 179.3551178  24.9031124  90.3495255 180.8935089  25.4085827
  89.5943222 180.5199585  23.4317284  88.6034088 180.3253021  23.8419685
  89.6419067 181.9729309  22.9274445  90.6105270 182.1355591  22.4547768
  88.9084320 182.1378326  22.1381874  89.3634491 183.0348206  23.9869843
  88.3933258 182.8149567  24.4326649  90.0718460 182.9538116  24.8114281
  89.4936447 184.7712097  23.3770046  87.8230896 184.9445648  22.5316086
  87.0292740 185.1857910  23.2385521  87.8678818 185.8073730  21.8670330
  87.5923309 184.0306091  21.9842968  89.6821899 179.4619751  22.3322563
  90.7818756 179.0011292  22.0265293  88.5738220 178.9711304  21.8077507
  87.7141113 179.4539795  22.0265198  88.5039062 178.0086975  20.6701431
  89.0860672 177.1505432  21.0059338  87.0458679 177.4552155  20.4972591
  86.4658890 178.3476105  20.2619801  87.0212555 176.5413513  19.2705879
  87.6382904 175.6608887  19.4498653  85.9758759 176.3363495  19.0398293
  87.3546600 177.1268158  18.4137478  86.5948257 176.8000793  21.7782707
  85.8838882 176.0333862  21.4702873  87.4565964 176.3036652  22.2243900
  85.9471283 177.6339874  22.8728428  85.0360718 177.9711761  22.3784904
  85.7831192 176.9710388  23.7223682  86.6510239 178.4476013  23.0480042
  89.2194824 178.5065155  19.4165306  89.3219528 179.6845245  19.2634354
  89.8560562 177.6468658  18.6267967  89.9246674 176.6899414  18.9425163
  90.4930801 178.1000824  17.3706055  90.0677338 179.0537109  17.0579033
  91.9697647 178.5209351  17.6698799  92.4023361 179.0453339  16.8178272
  91.9003525 179.1501160  18.5572433  92.9482422 177.3609772  17.9508553
  92.5846329 176.2232513  17.8921242  94.1511383 177.6369629  18.4444008
  94.7765427 176.8584442  18.5956936  94.4695587 178.5889282  18.5561676
  90.2700195 177.1534576  16.1836319  90.6666107 177.4050446  15.0440760
  89.5052490 176.0847931  16.3970604  89.1818695 175.9032440  17.3365116
  88.8743134 175.1822205  15.3782291  89.6652756 174.9965515  14.6515923
  88.4103165 173.8806915  16.0298080  89.2470245 173.4235840  16.5580883
  87.5922546 174.0641785  16.7263737  87.8998413 172.8190002  15.0879097
  88.7789688 171.8116455  14.6828547  89.8138123 171.8284607  14.9914579
  88.2917862 170.7329865  13.8612537  88.8802719 169.8766785  13.5665989
  86.9563217 170.7311249  13.5035124  86.4914780 169.8926239  13.0062933
  86.0859451 171.7256622  13.9620132  85.0466385 171.5661316  13.7154531
  86.5610580 172.8321533  14.6387339  85.9289093 173.6639404  14.9124546
  87.6797256 175.9052124  14.6495924  86.8917007 176.6381073  15.2249956
  87.7724304 175.8791962  13.3040857  88.4618988 175.2451172  12.9263611
  86.8726196 176.5290222  12.3309145  86.5739441 177.5165710  12.6825571
  87.5948334 176.6684113  10.9843283  88.4721375 177.3151855  10.9953928
  87.8558731 175.6497040  10.6975794  86.6522827 177.2573090   9.9097290
  85.4086456 177.1506958  10.0202808  87.1547623 177.9547729   9.0262146
  85.6045837 175.6295929  12.2611427  85.6208801 174.5021820  11.7140713
  84.4300079 176.0652771  12.7317629  84.4586716 177.0366058  13.0071058
  83.1297226 175.3053284  12.8374138  83.2087784 174.4596863  13.5205917
  82.0881119 176.1650085  13.5739613  81.0893173 175.7362671  13.4921255
  82.4966583 176.2528687  15.0443382  83.4313278 176.7682953  15.2653236
  81.7041779 176.7233124  15.6263781  82.6049652 175.2126923  15.3515625
  82.1657181 177.4731140  12.9963627  81.5118713 178.0311127  13.4238253
  82.6411591 174.8689117  11.4471416  81.7326279 174.0590820  11.3842239
  83.2459564 175.3293610  10.3290138  84.0285568 175.9520111  10.4702578
  82.9172974 174.8567200   8.9908829  81.8304596 174.8282013   8.9129086
  83.4646683 175.8417206   7.9500279  83.0903854 175.5330963   6.9739347
  83.1584396 176.8383636   8.2679014  84.8390884 175.7214050   8.0077543
  85.1515427 176.2262573   8.7621431  83.3457947 173.4086304   8.7004013
  82.7175674 172.7344971   7.9140472  84.4286804 172.8934479   9.3642292
  84.9633484 173.5750885   9.8834515  85.1129761 171.6287079   8.9325657
  85.4203339 171.7447052   7.8932528  86.4146347 171.5249481   9.6566582
  86.0811386 171.4502869  10.6916962  86.9636612 170.6095886   9.4357967
  87.3362045 172.7889862   9.4660492  86.8922348 173.6813812   9.9072027
  88.6083298 172.5158844  10.2733812  88.9351120 171.5162506   9.9869308
  89.3789749 173.2165985   9.9521360  88.5022430 172.5300293  11.3581161
  87.6231842 173.1144104   8.0368881  86.6639099 173.3609619   7.5818019
  88.2812042 173.9789886   7.9497237  88.0969543 172.2712555   7.5341516
  84.2300491 170.3521881   9.1524582  84.4044037 169.3724213   8.3794146
  83.2863693 170.2008514  10.1235962  83.1387634 170.9210968  11.3446512
  82.3630524 171.6791840  11.2366409  84.0939178 171.4074097  11.5428190
  82.7715378 169.9472961  12.4828596  82.2588577 170.4133606  13.3243179
  83.7134705 169.4378357  12.6861353  81.9064484 168.9970245  11.6339827
  80.9348145 169.4841156  11.5517530  81.7059021 168.0422211  12.1200209
  82.5317078 168.9340820  10.2517452  83.1875381 168.0673828  10.1690741
  81.4671097 168.7928467   9.1514864  81.3157501 167.7464294   8.5325871
  80.7255096 169.9032440   8.9615860  80.8980331 170.7360382   9.5063620
  79.5903778 170.1471100   8.0513000  78.8849335 169.3792114   8.3687515
  78.8804092 171.4845276   8.2168941  78.1580811 171.6581879   7.4192834
  78.3435440 171.6748810   9.6143570  79.2147064 171.7614899  10.2637234
  77.7727280 172.6020203   9.6659603  77.7062378 170.8898773  10.0214348
  79.8138962 172.5973816   8.1198702  79.9987488 172.7195740   7.1857948
  79.9049377 169.8656464   6.4959226  78.9997482 169.5550690   5.7207384
  81.1943893 170.0281219   6.1153021  81.8776245 170.3349152   6.7929163
  81.7413864 169.6404114   4.7953911  80.9442215 169.8694153   4.0881515
  82.9399567 170.5228424   4.4794645  83.2134857 170.4961395   3.4246798
  82.6111450 171.5482330   4.6483941  83.9904175 170.2947388   5.3455801
  84.7651443 170.8232880   5.1405635  82.0077820 168.1424408   4.6532483
  82.1206894 167.6837311   3.5262706  81.8671341 167.3536835   5.7313819
  81.6364670 167.8141937   6.6001887  82.0703430 165.8814697   5.7505350
  82.2651672 165.5801392   6.7797842  80.8016739 165.1716156   5.3379779
  80.5786133 165.3077240   4.2797623  80.9699249 164.1201935   5.5710077
  79.6294708 165.5332794   6.1728606  79.3724060 164.8263245   7.3486953
  78.3571320 165.5099792   7.8681288  77.9112930 165.1838531   8.7961760
  77.9090424 166.4669037   7.0321031  77.0396423 166.9322510   7.2504768
  78.7456970 166.5970154   6.0106635  78.7175522 167.2785645   5.1733451
  83.3019180 165.3518829   4.9401937  83.2539291 164.3414459   4.2521119
  84.4371643 166.0390930   5.0813375  84.4358749 166.8503876   5.6829166
  85.6388168 165.6696777   4.3550739  85.5199585 165.7741394   3.2766180
  86.7479172 166.6215210   4.8196745  86.9663315 166.3881683   5.8617592
  87.6349869 166.4344330   4.2145281  86.4715347 168.1480560   4.6093569
  86.5739441 168.3072357   3.5359156  85.4682388 168.2951660   5.0091882
  87.5304413 169.4461975   5.4861355  88.8745346 169.4698181   4.2964492
  88.4095001 169.4565430   3.3107157  89.5676880 170.3065796   4.3828545
  89.4567261 168.5592804   4.4380765  86.0990753 164.1511230   4.4922829
  86.6566620 163.5583344   3.5609386  85.7827225 163.4906464   5.6164756
  85.2474518 163.9449158   6.3425822  86.0638809 162.0786743   5.8250389
  87.1450806 161.9439850   5.7937880  85.5465698 161.6921692   7.1921253
  85.8016434 160.6844788   7.5201769  85.9869156 162.3309021   7.9577675
  84.0042725 161.6894379   7.3490725  83.4715958 162.9003448   7.8480024
  84.1305084 163.7472687   7.9703226  82.0745850 162.9871979   8.1076841
  81.6902390 163.8956909   8.5473776  81.1810913 161.9498444   7.7869453
  79.8589554 162.0396118   7.8365655  79.6808472 162.9784698   7.9282627
  81.7506943 160.7662354   7.2844110  81.1418076 159.9624634   6.8976321
  83.1529083 160.5858459   7.1453743  83.5766678 159.6985931   6.6985874
  85.4746246 161.0617676   4.8112235  86.0526505 159.9708099   4.6425500
  84.4459381 161.4751892   4.0348353  84.0771332 162.3791504   4.2935834
  83.7500839 160.8326416   2.9397027  83.6636505 159.7588501   3.1059155
  82.3877945 161.5637054   2.8909681  81.9143372 161.6887360   3.8647788
  82.6494980 162.5898132   2.6326599  81.3199844 161.0624695   1.8019964
  81.7254486 161.0196838   0.7911221  80.7103882 159.7222137   2.2035694
  80.2728271 159.7944794   3.1992762  79.8877869 159.5133514   1.5196064
  81.4338760 158.9105682   2.1267872  80.2060318 162.1028595   1.8440281
  80.6182709 163.0919495   1.6444180  79.4002609 161.9197845   1.1331717
  79.7539597 162.2267761   2.8280907  84.5087967 160.8312988   1.6196764
  84.2442245 160.0135193   0.7615788  85.3655167 161.8255157   1.4684873
  85.5214539 162.4326477   2.2604337  86.1739120 162.0032043   0.2622358
  87.1951752 162.1789246   0.6002451  86.1073456 161.1475220  -0.4096935
  85.8464813 163.2191010  -0.5863006  84.6403198 163.5136719  -0.8125473
  86.8687744 163.8815308  -1.0556835  87.7951279 163.6618805  -0.7184559
  86.8441772 165.1342621  -1.8506836  86.1482849 165.8449402  -1.4048570
  88.2895432 165.7252502  -1.9078465  88.1440430 166.7830200  -2.1270759
  88.7301483 165.6036377  -0.9183143  89.1569824 165.1063385  -2.8277130
  90.0179749 165.5235748  -2.7489011  86.3415222 164.8549347  -3.2843609
  86.1699219 163.6981659  -3.6485152  86.1654892 165.8800201  -4.1229644
  86.2081604 166.8504486  -3.8463221  85.9209061 165.7076416  -5.5312901
  85.6258698 166.6889801  -5.9028330  87.2895508 165.2917023  -6.2137766
  88.0499191 165.9480133  -5.7904801  87.6367950 164.2922211  -5.9519091
  87.2430344 165.5076447  -7.7553535  86.7714386 166.5607300  -8.2045155
  87.7827988 164.6381378  -8.5077953  84.6542130 164.8369598  -5.8888741
  84.7071152 163.7662506  -6.5281196  83.5522995 165.2066956  -5.2961373
  83.5999680 165.9745331  -4.6417360  82.2309647 164.7038269  -5.5994692
  82.2823639 163.6415405  -5.8382397  81.3365097 164.8599854  -4.4307027
  81.0304642 165.8954315  -4.2814336  80.3843765 164.3893280  -4.6756873
  81.8317032 164.0940857  -3.1732655  82.0897980 163.0577545  -3.3912179
  82.6871948 164.6091309  -2.7362821  80.6557236 164.0768890  -1.7770444
  79.7354660 162.5959625  -2.2127273  80.3589020 161.7073975  -2.1132300
  78.8485947 162.4643860  -1.5928533  79.2960739 162.7151642  -3.2030911
  81.6362534 165.4449921  -6.7974777  82.0170898 166.5588074  -7.2164588
  80.6292191 164.8242035  -7.4656596  80.3236008 163.9294891  -7.1104450
  79.6540985 165.5448151  -8.2567759  80.2796249 166.1764374  -8.8875504
  78.9759750 164.5056458  -9.1294756  79.7098312 163.9230194  -9.6863461
  78.3771439 163.8565216  -8.4906006  77.9178772 165.1193848 -10.0721264
  77.0670624 165.4213562  -9.4613628  78.3041458 166.0389862 -10.5117350
  77.5340042 164.1246643 -11.2135744  77.2875519 162.9068146 -10.9392557
  77.3007889 164.6038055 -12.3414240  78.6315536 166.4197693  -7.4043570
  78.5338058 166.1593170  -6.1967950  77.9901733 167.4653931  -7.9643040
  78.1338882 167.6911774  -8.9382000  76.9042358 168.1560059  -7.2867489
  76.4673309 167.6247559  -6.4411688  77.4722824 169.4712677  -6.7771511
  78.0352631 170.0269623  -7.5270519  76.6917572 170.1685181  -6.4726477
  78.5233765 169.2074280  -5.6426225  78.1129684 168.5323944  -4.8916297
  79.4543762 168.8467865  -6.0799675  78.8735962 170.5345001  -4.9008570
  77.9633560 171.2089081  -4.2872119  80.0727158 170.9324646  -4.9454026
  75.6763840 168.4962463  -8.0975809  75.8162842 168.6392670  -9.3184204
  74.4922256 168.6681213  -7.4005427  74.5629196 168.7153625  -6.3941269
  73.1781845 169.0731964  -7.9920063  73.3035355 169.1207886  -9.0737276
  72.1474228 167.9510651  -7.8310742  71.9178162 168.0002136  -6.7666650
  71.2367249 168.1892700  -8.3806181  72.5930786 166.5480957  -8.1377249
  72.5454254 166.0329437  -9.4520330  72.1680222 166.6261139 -10.2718630
  72.9419785 164.7259216  -9.7155409  72.8477097 164.3123779 -10.7087679
  73.5896835 164.0325012  -8.6745472  74.0071030 163.0534363  -8.8578348
  73.5435867 164.4891815  -7.3081551  73.9118576 163.9328308  -6.4588957
  73.0385818 165.7228088  -7.0833826  72.9246292 165.9971008  -6.0450268
  72.6252594 170.4417114  -7.4554129  72.3649597 170.6655273  -6.2979398
  72.2813263 171.3073425  -8.3712168  72.4791107 171.0477905  -9.3270512
  71.9261246 172.7380676  -8.1115217  72.2646790 173.0850220  -7.1352501
  72.6533737 173.7028503  -9.0669022  72.2668152 174.6894379  -8.8113194
  73.7317963 173.6626587  -8.9136066  72.5376282 173.3666687 -10.5388374
  73.3616867 172.4768524 -11.2240982  72.9117203 172.5951996 -12.4780350
  73.3125839 172.0164337 -13.2970200  71.7614059 173.3565063 -12.5607166
  71.2558441 173.5567017 -13.4118519  71.4945602 173.8185730 -11.3154974
  70.6712189 174.4545898 -11.0256462  70.4091187 172.9650879  -8.1951551
  69.9570923 173.9922638  -7.7421732  69.5671234 172.0412292  -8.7386942
  69.9728394 171.2570190  -9.2291079  68.1083603 172.1445923  -8.7277794
  67.8455887 173.1984711  -8.8192730  67.7480621 171.7541809  -9.6795473
  67.4865341 171.3251801  -7.6263356  68.0782394 170.3957520  -7.0976720
  66.2678680 171.7083130  -7.2489805  65.9370117 172.4840698  -7.8047185
  65.5009537 171.4669495  -5.9862976  66.0124359 170.7575378  -5.3357387
  65.5470123 172.7796783  -5.1739907  64.9282761 173.5543671  -5.6268997
  65.1186295 172.5020142  -4.2109318  66.9557190 173.3955231  -4.8671899
  67.4832153 173.5770264  -5.8036208  66.7176285 174.2954559  -4.3001246
  67.8316574 172.4740753  -4.0249791  67.3289490 172.0152588  -3.1735795
  68.0299301 171.6478271  -4.7077065  69.2387466 172.9697876  -3.7995965
  69.8986130 172.3284149  -4.2159252  69.6965866 174.0514069  -3.1698461
  68.9967575 174.9936218  -2.5892177  67.9990692 174.8410645  -2.5511692
  69.3908081 175.7325287  -2.0245404  70.9932327 174.3018036  -3.1710515
  71.5559082 173.7563019  -3.8081694  71.4141998 175.0743256  -2.6749663
  64.0579224 171.0044098  -6.1535702  63.1594810 171.7590942  -6.6023941
  63.8196220 169.7238922  -5.8054237  64.5127563 169.1724243  -5.3200879
  62.4930801 169.1410980  -5.8000264  62.0136185 169.3712769  -6.7514682
  62.6742973 167.5515900  -5.6819630  63.3791771 167.3271484  -4.8814182
  61.3943176 166.7854309  -5.4286470  60.7384415 167.0051270  -6.2710571
  61.5135117 165.7019806  -5.4218307  61.0644760 167.0107880  -4.4144859
  63.2039719 167.0429382  -6.9015970  63.4635887 166.1249542  -6.7942295
  61.6533585 169.6638336  -4.6032286  62.1470795 169.6694794  -3.4693608
  60.4497147 170.1447144  -4.8679438  60.1786499 170.2480927  -5.8353820
  59.3383064 170.2017975  -3.8893335  59.6007271 169.4350281  -3.1604364
  59.1468353 171.6249695  -3.2984395  59.1497841 172.2260437  -4.2077241
  58.1378746 171.7560120  -2.9073849  60.1044235 172.0100555  -2.2038312
  61.1245079 172.0695496  -2.5832961  59.7969971 173.4080200  -1.6893892
  58.9757271 173.3735809  -0.9735433  60.6436844 173.8274841  -1.1460048
  59.5437927 174.1205139  -2.4744675  60.1512794 171.0427551  -0.9557312
  60.3026276 170.0060577  -1.2564994  60.9646339 171.4137573  -0.3321029
  59.2064629 171.2009125  -0.4357231  58.0143623 169.7815399  -4.5766420
  57.6795197 170.3377991  -5.6208606  57.2568970 168.8625488  -3.9937994
  57.5134735 168.4649658  -3.1014929  55.8443832 168.5171509  -4.3032260
  55.8026543 168.4194641  -5.3880386  55.6032448 167.1490173  -3.6946137
  55.4882584 167.2340240  -2.6140330  54.6589241 166.8323517  -4.1374173
  56.5151291 166.0008545  -4.1002722  57.6578407 165.5150452  -3.3545949
  58.2450714 164.6962280  -4.1997256  59.1542358 164.1365662  -4.0366082
  57.6064949 164.6113434  -5.3846021  57.8272743 163.9248962  -6.0918179
  56.4776917 165.3615417  -5.3211946  55.6899147 165.4240875  -6.0573330
  54.9177132 169.6368103  -3.8495264  55.2732887 170.4773407  -2.9655929
  53.6904526 169.6778564  -4.4072814  53.5223160 169.0011139  -5.1379194
  52.5830002 170.4725189  -3.8215106  52.7760506 171.5377045  -3.6941915
  51.3570824 170.3128967  -4.7665219  51.1766205 169.2527008  -4.9440422
  50.5065079 170.7187653  -4.2188993  51.4701195 171.0633850  -6.1321793
  51.3242569 172.3159790  -6.0904484  51.5906219 170.4212799  -7.2419019
  52.2250061 169.9039764  -2.4212682  52.1577377 168.6942902  -2.2265956
  51.8297119 170.8326111  -1.5064811  51.9505196 171.7965393  -1.7827941
  51.3933792 170.5251617  -0.1846171  52.2421646 170.0933685   0.3456748
  51.0254021 171.7872467   0.5909984  50.1207199 172.2319031   0.1763665
  50.7416763 171.4781036   1.5969962  52.1735039 172.8404083   0.7106620
  53.3405457 172.3928833   0.8589900  51.8880424 174.0220184   0.6673239
  50.2131424 169.5650940  -0.2324091  49.2184601 169.7385864  -0.9709182
  50.3050995 168.5919800   0.6611277  51.1498642 168.6319580   1.2132879
  49.3505669 167.4583130   0.9833714  49.8947487 166.7716522   1.6317970
  48.0302696 167.8547363   1.6898929  47.5205040 168.5580597   1.0314420
  47.3692207 166.9918976   1.7713594  48.3000069 168.3241882   3.1290269
  48.4858017 167.4324188   3.9954312  48.0277481 169.5137482   3.5098965
  48.9453697 166.5665283  -0.2071682  47.9690666 165.8450470  -0.2294403
  49.6994057 166.6789246  -1.3370613  50.5196838 167.2661591  -1.2881041
  49.6724319 165.6382294  -2.3745406  48.6688957 165.4191284  -2.7392509
  50.3385696 166.0738525  -3.6678550  50.0264130 165.3410187  -4.4119134
  49.9507828 167.0370941  -3.9993386  51.7527733 166.0440216  -3.5992434
  52.0212822 166.7451782  -3.0010033  50.2883072 164.2737122  -1.8322344
  51.2211151 164.2843628  -1.0164069  49.6989059 163.1328278  -2.2816348
  48.8334770 163.2158508  -2.7956777  50.1141853 161.7707977  -2.2440743
  50.4941902 161.5435486  -1.2480540  49.0266838 160.7004242  -2.4245801
  48.2432365 160.6995239  -1.6667480  48.4254761 160.8395233  -3.3230774
  49.7233162 159.0460052  -2.5534620  48.5816994 158.5311584  -3.0187924
  51.2494621 161.5824432  -3.2584291  51.1136246 161.9342651  -4.3817701
  52.2865944 160.8990479  -2.7884598  52.1712608 160.6122437  -1.8269287
  53.5317116 160.5706177  -3.5159357  53.3347893 160.5831757  -4.5879264
  54.5755119 161.6318512  -3.1399751  54.9150543 161.5085449  -2.1115756
  55.4563370 161.3478088  -3.7157869  54.1202240 163.0501556  -3.4180601
  53.2284088 163.3245544  -2.8546164  54.9947968 163.6575623  -3.1850455
  53.7839355 163.2271576  -4.8824334  54.2891617 162.5393219  -5.7846313
  52.9834824 164.2009125  -5.3312140  52.7406235 164.1151581  -6.3078218
  52.6050491 164.8810730  -4.6875668  54.0713654 159.1807404  -3.2317107
  53.7919769 158.5513306  -2.2270372  54.8894081 158.5618286  -4.0847211
  55.0772896 158.9588470  -4.9942174  55.5632057 157.2399292  -3.8783956
  55.3947868 156.9639435  -2.8374493  54.8960800 156.0776367  -4.6561208
  53.8330956 156.0997467  -4.4159470  54.8776932 156.2013397  -6.2310915
  55.9008675 156.4969025  -6.4631734  54.5355377 155.3004761  -6.7404609
  54.2086983 157.0251160  -6.4799628  55.3765488 154.6815186  -4.2773647
  55.2133293 154.5107880  -3.2132638  54.7507477 153.9689484  -4.8146958
  56.4354591 154.5118866  -4.4723983  57.0546837 157.3038483  -3.9396291
  57.5519524 157.8769989  -4.9431739  57.7600822 156.8018341  -2.9310117
  57.3150444 156.2971039  -2.1778305  59.1985817 157.0646362  -2.7079959
  59.6181946 157.3218689  -3.6805475  59.3827820 158.3241119  -1.7982017
  59.1511421 158.1514282  -0.7471907  60.8064880 158.8604584  -1.8840963
  61.1052208 159.3115997  -2.8303118  61.0198326 159.5430908  -1.0615307
  61.4706345 157.9998016  -1.8049203  58.4865608 159.5669250  -2.2567697
  58.7262344 159.7604675  -3.3023298  57.4825897 159.1713409  -2.1029563
  58.6593246 160.8625031  -1.5064623  59.6406975 161.3184662  -1.6371791
  57.9007530 161.5380707  -1.9017860  58.4996948 160.6863861  -0.4426934
  59.9391823 155.8714447  -2.1819108  59.4965286 155.2530365  -1.1908432
  61.1082306 155.4951477  -2.7525406  61.6656113 156.0155792  -3.9939206
  61.7544746 157.1018524  -4.0091805  61.0364113 155.6469269  -4.8040447
  63.0467224 155.3139648  -4.1030626  63.7492180 155.9160156  -3.5267458
  63.4111252 155.1866608  -5.1224318  62.8335609 153.9831085  -3.3443677
  63.7543182 153.4924164  -3.0288823  62.3366737 153.2627869  -3.9942555
  61.9210129 154.4097290  -2.1936760  61.2121124 153.6205444  -1.9431912
  62.7237968 154.7970123  -0.9165107  63.1560669 155.9242706  -0.7733966
  62.9514122 153.8320923  -0.0549666  62.5656776 152.9281006  -0.2875669
  63.6810913 153.9316711   1.2235904  64.0601349 154.9333801   1.4261568
  62.8329277 153.3443451   2.4104013  62.6957817 152.3151550   2.0786633
  63.5175858 153.2696533   3.8291519  63.7568779 154.2712860   4.1863031
  62.8611641 152.8195038   4.5738535  64.3802109 152.6056671   3.7734210
  61.4730606 153.9897003   2.5828884  60.7722168 153.8628235   1.7577703
  61.0564880 153.6210632   3.5202646  61.6131744 155.0574951   2.7510977
  64.9186096 153.0768127   1.0206008  64.8030548 151.9317017   0.5921250
  66.0171585 153.5400696   1.5569800  66.1184998 154.5113068   1.8149260
  67.1741562 152.7225952   1.7105100  67.1324615 152.0968781   0.8189687
  68.4080582 153.5487671   1.7019235  68.3361816 154.3181152   2.4707084
  69.2390060 152.8849335   1.9405801  68.8470383 154.2222290   0.3547938
  68.0390930 154.8339844  -0.0465670  70.0212479 155.1140289   0.6098205
  70.8175354 154.6645508   1.2031071  70.4572067 155.4530945  -0.3298989
  69.7251434 156.0560608   1.0713459  69.3163376 153.2320404  -0.7353389
  68.5255966 152.5232544  -0.9812016  69.6539688 153.6975861  -1.6612828
  70.1021118 152.5793152  -0.3550682  67.0795288 151.9241638   3.0691574
  67.1283264 152.5769348   4.0971541  66.8738251 150.5938721   3.0974958
  66.9000778 149.7492676   1.9297749  67.8723373 149.9201202   1.4675839
  66.0781021 149.9011536   1.2302152  66.9186401 148.3097687   2.5190978
  67.9210587 147.9573212   2.7620523  66.3854599 147.6633301   1.8220034
  66.1463470 148.4810638   3.8243213  66.4469452 147.7445374   4.5694838
  65.0845184 148.3523254   3.6144373  66.3785782 149.9165649   4.2702699
  65.4622116 150.4308319   4.5599618  67.4125443 149.9547424   5.4359970
  67.0018845 149.8461304   6.5886817  68.7412338 150.0750427   5.2032962
  69.0746078 150.1015930   4.2502718  69.6711426 150.2751007   6.3631835
  69.2884064 149.5930023   7.1223655  71.0733948 149.7180328   5.9428573
  71.5704269 150.4035645   5.2564836  71.7476883 149.7411346   6.7989573
  71.0779037 148.2877655   5.4736309  70.8300858 147.8766174   4.1672001
  70.9008331 146.5445862   4.2843256  70.7878571 145.8565369   3.4595678
  70.9077377 146.1487885   5.5683351  71.0707397 145.2072449   5.8955016
  71.0429306 147.2363434   6.3685884  71.2384949 147.2980957   7.4289379
  69.7667084 151.6434021   7.0816283  70.4074097 151.7445374   8.1642933
  69.1349945 152.6460114   6.5412426  68.6637192 152.5052490   5.6590948
  69.0911179 154.0202179   7.1235571  70.0541611 154.3487396   7.5143447
  68.8247604 155.0808258   6.0672455  67.8820724 154.8291626   5.5813298
  68.7524643 156.5333405   6.5565028  69.7470932 156.8585663   6.8615179
  68.5686874 157.2713318   5.7756701  68.0961990 156.7627411   7.3960242
  69.9293060 154.9970245   5.0524063  70.0499420 154.0717926   4.4889522
  69.7725830 155.7808228   4.3113194  70.8328323 155.2078857   5.6244864
  67.9798889 154.1501770   8.3070135  66.8609161 154.6337128   8.1035109
  68.4059143 153.7164764   9.4938908  69.2893753 153.2271729   9.4804630
  67.4726639 153.5202026  10.6540165  66.4417191 153.3584137  10.3392401
  67.7702103 152.2475739  11.4496441  68.6762314 152.4674988  12.0143280
  66.9901962 151.9666138  12.1572714  68.0916977 151.0974426  10.5966101
  67.4929047 151.1208038   9.6861153  69.1548767 151.1016541  10.3563185
  67.6548920 149.5870819  11.3597832  69.0163651 148.5743256  10.7162838
  69.9630585 149.0019684  11.0464201  68.9252625 147.5652008  11.1181202
  69.1345444 148.5758514   9.6327095  67.3583679 154.7718964  11.4964352
  66.4236298 154.7938995  12.3516750  68.2938385 155.7404633  11.4018497
  68.8133621 155.8146210  10.5388918  68.1587524 157.0743103  12.1797953
  68.0874710 156.7574310  13.2202787  69.4140091 157.9925690  12.1149702
  69.2102203 158.8549347  12.7497063  70.6047363 157.2704010  12.7615185
  70.7498703 156.2807312  12.3283854  71.5871429 157.7416229  12.7314005
  70.4043350 157.0873108  13.8171825  69.8436279 158.3771820  10.6614628
  69.0055771 158.8367767  10.1374903  70.6208878 159.1385651  10.5961218
  70.2007980 157.4843903  10.1481905  66.9279785 157.9130096  11.8440037
  66.4179077 157.7728729  10.7405186  66.4539185 158.7769012  12.7143688
  66.7838593 158.8268280  13.6676512  65.4317551 159.7240143  12.3925877
  64.7654648 159.3083344  11.6367054  64.5177994 160.0029449  13.5728445
  64.3015518 159.0074005  13.9604340  65.0340424 160.6615601  14.2712784
  63.2247124 160.6397552  13.0731745  63.3064842 161.5630035  12.4995642
  62.8095818 159.9004669  12.3881922  61.9932594 160.8693085  14.3451118
  62.2538452 159.3961182  15.4647532  63.2023811 159.4017639  16.0017338
  61.4070816 159.3649750  16.1504078  62.2542686 158.4940796  14.8528328
  65.9294128 161.0845337  11.8138599  66.3824463 162.0031128  12.5605268
  66.0525894 161.1863708  10.4988804  65.9729080 160.3686523   9.9114351
  66.3490067 162.4517822   9.8646288  67.3314743 162.7989349  10.1845360
  66.4503555 162.1995850   8.3484316  67.1659851 161.4051361   8.1367025
  65.5071716 161.7727356   8.0073910  66.6431427 163.4351807   7.5489922
  66.0121078 164.2844238   7.8110723  68.1543350 163.8704071   7.5242305
  68.7589874 163.0146942   7.2237816  68.3366089 164.6410065   6.7752085
  68.5213776 164.1862030   8.5007811  66.2727966 163.0997314   6.0740881
  65.2154846 162.8349609   6.0650096  66.6630707 163.8856964   5.4275351
  66.8357315 162.1937866   5.8494272  65.2135773 163.4536896  10.1804514
  64.0099640 163.0903473  10.1994619  65.5058975 164.7205200  10.3954821
  66.5005417 164.8683929  10.3010740  64.6064301 165.9037170  10.3718987
  63.5554848 165.6300049  10.2785797  64.6936646 166.6232452  11.7531481
  65.7422104 166.8345184  11.9629412  63.9763870 167.9726410  11.8690653
  62.9146919 167.7503662  11.9763136  64.3927689 168.4477997  12.7572908
  64.1018906 168.6468658  11.0218525  64.2041016 165.7301025  12.8782902
  64.8253555 164.8401031  12.7781172  64.4448547 166.1467133  13.8563366
  62.7744255 165.2410583  12.9275551  62.5429306 164.7405853  11.9873238
  62.5746536 164.5094147  13.7104292  62.1300392 166.0919037  13.1487961
  64.8591919 166.8933716   9.1883574  66.0488510 166.8862762   8.7570381
  63.8733368 167.5711670   8.5754890  62.4189949 167.4486847   8.7068768
  62.0823517 167.8701630   9.6540470  62.0430717 166.4306641   8.6048555
  61.8609924 168.3479919   7.6067777  60.9920502 168.8807220   7.9930902
  61.5677567 167.6941833   6.7854104  62.9012947 169.4143677   7.2633710
  62.7473183 170.2590942   7.9348211  62.8781891 169.6804047   6.2065845
  64.2290726 168.6449738   7.5694818  64.5170746 168.0592651   6.6964989
  65.3505020 169.5082397   8.0128031  65.6758118 169.6108246   9.1747952
  66.0857849 170.1359253   7.0960231  65.8328934 170.1482544   6.1182752
  67.2645111 171.0072784   7.3596330  67.4670868 171.6066895   6.4720674
  67.0298996 171.6388702   8.2164574  68.5824890 170.2567596   7.6899843
  69.6378708 170.7330322   7.3193507  68.4594574 169.1037598   8.3569927
  67.5158615 168.7950287   8.5424910  69.6124878 168.2803955   8.7731199
  70.3165512 168.8866882   9.3430462  69.0089493 167.1318665   9.7067394
  68.3526077 167.5818176  10.4516239  68.4869690 166.3903198   9.1019726
  70.0828094 166.3374939  10.4531069  70.6303482 165.7375641   9.7262020
  70.8068390 166.9612427  10.9773321  69.5339203 165.3149109  11.4584408
  68.4233246 164.8693695  11.4800158  70.4179916 164.8359222  12.2935677
  70.1272888 164.0620728  12.8738747  71.3991928 165.0095673  12.1286869
  70.3057480 167.7333679   7.5419827  69.6230545 167.2765350   6.6202154
  71.5929718 167.6440430   7.5336881  72.1123047 167.9974060   8.3245935
  72.3868713 166.9086914   6.4821310  71.9041901 167.0729218   5.5187268
  73.7301712 167.6038818   6.3246717  74.2289505 167.5195007   7.2901778
  74.6456146 167.0780945   5.1898170  74.0905991 167.1469269   4.2542300
  75.4823532 167.7691956   5.0880404  75.0953674 166.0908813   5.2958570
  73.5311966 168.9716034   6.0368724  73.3118057 169.3826294   6.8762345
  72.5152130 165.3506012   6.8217611  72.6899261 164.9663391   7.9816546
  72.6237183 164.4342346   5.8022590  72.3957520 164.8294830   4.9012003
  72.7240219 162.9882202   5.8753114  72.8842468 162.7698059   6.9311152
  71.2984619 162.4642487   5.5176549  70.5838470 162.9409485   6.1886182
  71.1760330 162.7401733   4.4702883  71.1689224 160.9092102   5.6526499
  71.9380188 160.3338165   5.1373711  71.1784973 160.4087219   7.0904789
  70.4080811 160.9059296   7.6798496  71.2090836 159.3224792   7.1754951
  72.1428070 160.6635132   7.5301166  69.8678513 160.5370483   5.0958290
  69.9484558 160.7109070   4.0228028  69.6946945 159.4970551   5.3724585
  68.9923706 161.1187592   5.3843517  73.8700790 162.5725098   4.8447089
  73.5355911 162.3947906   3.6637955  75.0636215 162.3813019   5.2932329
  75.4671249 162.7188263   6.6548314  74.9468460 162.1524963   7.4272828
  75.2287521 163.7795868   6.7325659  76.9859467 162.3544159   6.7535677
  77.0011063 161.3893127   7.2599916  77.5917282 163.0567322   7.3261738
  77.4584045 162.2545013   5.3243279  78.2884369 161.5502930   5.2676210
  77.7834625 163.2373199   4.9829936  76.1616135 161.7909698   4.6384902
  76.1934280 162.0282745   3.5751133  75.9618301 160.2806549   4.7049298
  75.6690445 159.7515717   5.7649870  76.0681076 159.5492554   3.5920472
  76.2110748 160.0473938   2.7251434  75.9161072 158.0368652   3.4994655
  75.8743057 157.6384888   4.5131946  74.5449677 157.5238342   2.9196725
  74.4967117 157.7268982   1.8498420  74.5270004 156.4344635   2.9519618
  73.2887650 157.9955292   3.6105609  73.2562256 159.0848999   3.5934298
  72.0970459 157.4653473   2.8564248  72.0086899 156.3801727   2.9083307
  71.2666321 158.0149841   3.2996018  72.1446457 157.7339172   1.8011044
  73.2299194 157.3573761   5.0211029  73.9652405 157.8077545   5.6878657
  72.2459259 157.5156708   5.4624548  73.5237274 156.3098297   4.9546037
  77.0742340 157.4935150   2.6484630  77.3181305 158.0022583   1.5903836
  77.6951752 156.3173370   3.0371742  77.3563538 155.9467010   3.9134910
  78.5302963 155.4226685   2.2657135  78.7601395 155.7699585   1.2584091
  79.9220963 155.2743378   2.9447768  80.3849106 156.2611389   2.9330342
  79.8011246 155.0156555   3.9967031  80.8804855 154.3049927   2.2461510
  80.4346008 153.3198547   2.1091132  81.0588150 154.6369934   1.2233741
  82.2884521 154.1751862   2.8484669  82.5726395 154.8330383   3.8466599
  83.2069550 153.3869934   2.3183284  84.0320053 153.2940369   2.8934343
  83.0271835 152.9089508   1.4469763  77.8138962 154.0448914   2.1205192
  77.5853577 153.3833008   3.1291468  77.3663559 153.5913239   0.9485902
  77.6068268 154.1178589   0.1209183  76.5009918 152.4626770   0.7715074
  76.2305679 152.0146790   1.7276866  75.2430573 152.9652252   0.0268633
  75.5958328 153.3344574  -0.9361082  74.5783539 152.1176453  -0.1401109
  74.4283295 154.0644379   0.6892843  75.1156769 154.8678284   0.9543062
  73.3735352 154.7093811  -0.1460172  72.6085434 153.9987793  -0.4590021
  72.9121170 155.4617462   0.4936211  73.8940201 155.0527496  -1.0400469
  73.7886047 153.5645294   1.9413477  74.4818954 153.4740143   2.7775593
  73.0994568 154.2835846   2.3842306  73.3546600 152.5755920   1.7936649
  77.1415176 151.4179688  -0.1643228  77.5405502 151.6587830  -1.3186253
  77.1788940 150.1822052   0.3597061  76.8977737 150.1362457   1.3287078
  77.9885712 149.1162262  -0.2419256  78.4762878 149.4187775  -1.1685809
  79.2014618 148.8719635   0.6006949  79.7859344 148.0710907   0.1478331
  79.8707581 149.7280426   0.5153714  79.0013123 148.3815460   2.0416744
  78.5234985 149.2637787   3.0599117  78.5148849 150.3267975   2.8693922
  78.2856979 148.8458862   4.3688736  77.8766174 149.5960541   5.0293970
  78.4863510 147.5009003   4.7241635  78.2788849 147.1017914   5.7060351
  78.8828278 146.5699310   3.7172534  78.9094009 145.5252228   3.9897759
  79.1370697 147.0111542   2.4386539  79.3676605 146.3093719   1.6507995
  77.1651611 147.8430023  -0.5982276  77.6299896 147.0846100  -1.4734678
  75.9963913 147.5820465  -0.0512765  75.6262207 148.2083130   0.6493462
  75.1542511 146.4810638  -0.4933106  75.7394333 145.5636597  -0.5568367
  74.0076065 146.2269897   0.4744106  73.4351349 147.1504669   0.5615343
  73.4406204 145.3785706   0.0912553  74.5182877 145.8793182   1.8694266
  74.9772186 144.6226959   2.2950730  75.2610779 144.7555542   3.5962498
  75.6925049 144.0040894   4.2408910  75.1042099 146.0562439   3.9072895
  75.1898499 146.4739685   4.8228621  74.5157928 146.7215118   2.8840954
  73.9370422 147.6290588   2.9724076  74.5891342 146.8280029  -1.9393917
  74.1528854 147.9615326  -2.1848373  74.4646988 145.7958374  -2.8556221
  74.8234787 144.3480530  -2.7066691  74.2540588 143.9689178  -1.8580701
  75.8880997 144.1560059  -2.5732517  74.3684464 143.6440430  -4.0000119
  73.3366089 143.3445282  -3.8164411  75.0451584 142.8301849  -4.2604399
  74.4632416 144.7550964  -5.0998678  73.8669815 144.5942383  -5.9980316
  75.5091553 144.8501587  -5.3916345  74.1820984 146.0497589  -4.3403726
  74.9022217 146.7349701  -4.7875996  72.8149872 146.6143188  -4.6631804
  72.6937561 147.4358063  -5.5722346  71.8190460 146.1164093  -3.9327211
  71.9501419 145.3676605  -3.2676678  70.4704895 146.6418762  -4.0579600
  70.0848312 146.5749969  -5.0752587  69.4483795 145.8879395  -3.1606879
  68.4989929 146.3671722  -3.3996613  69.3902054 144.8660278  -3.5353801
  69.5279083 145.8623352  -1.6203040  69.6273956 146.8764038  -1.2331985
  68.5673447 145.5380859  -1.2199347  70.5692520 144.8920746  -1.0533065
  71.6591492 144.7301025  -1.5926578  70.3405685 144.2901154   0.1234583
  71.1180649 143.8184357   0.5629261  69.3987122 144.2854309   0.4881251
  70.4483643 148.1472626  -3.7400408  69.6971741 148.9608154  -4.3226976
  71.1975479 148.6376953  -2.6998904  71.8918457 148.0986481  -2.2024269
  71.1949921 150.0552521  -2.3366919  70.1894302 150.4751282  -2.3111789
  71.9056931 150.3384705  -0.9812253  72.9597397 150.0627899  -0.9485261
  72.0007706 151.4062042  -0.7836630  71.1354065 149.5904541   0.1204715
  70.0755157 149.8034821  -0.0186407  71.3775253 148.5281372   0.0892795
  71.6029434 150.1246185   1.5028722  72.8141556 149.9190521   1.8317548
  70.7118378 150.6092834   2.2373376  71.9463501 150.9107666  -3.3702612
  71.5095596 151.9317932  -3.8349466  73.0955429 150.3979187  -3.7917521
  73.5032654 149.6034088  -3.3199446  73.8392029 151.0117035  -4.8819461
  74.1394043 152.0115509  -4.5684223  75.0817413 150.2345276  -5.2608600
  74.8628159 149.1898041  -5.4816165  75.7790833 150.9017639  -6.4520717
  76.0799484 151.9018707  -6.1400089  76.6082764 150.2267303  -6.6638947
  75.1499481 150.8814087  -7.3419414  76.0298615 150.2891998  -4.0754933
  75.5135040 150.1275024  -3.1292751  76.7697220 149.4899292  -4.0320592
  76.4296036 151.2888794  -3.9054368  72.9336319 151.1057739  -6.0773840
  72.8302612 152.1354065  -6.7492313  72.2635193 149.9836884  -6.4718370
  72.4552917 149.1146393  -5.9942694  71.3478928 149.9547119  -7.6134129
  71.8981018 150.1182861  -8.5400295  70.7475281 148.5483856  -7.7231202
  71.4777145 147.7392426  -7.7369490  70.1430283 148.3583679  -6.8362293
  70.0541840 148.3707733  -8.9421110  69.5428925 147.5583191  -8.9318857
  70.2334900 150.9575500  -7.5679154  69.9596100 151.6656799  -8.5163298
  69.6201859 151.1271667  -6.3925748  69.9017792 150.6006165  -5.5779858
  68.5827408 152.1067200  -6.1318340  67.7531433 152.0322876  -6.8349257
  67.9241409 152.0130768  -4.7203960  67.7132874 150.9583130  -4.5439801
  68.6511002 152.3328094  -3.9738016  66.5109634 152.6458588  -4.5489407
  65.9070358 152.3192291  -5.3955092  66.1649551 152.2408142  -3.5979865
  66.3438721 154.4268646  -4.4021378  67.2258377 154.6629028  -2.8778336
  68.1052856 154.0209503  -2.8273885  67.5037231 155.7135315  -2.7938256
  66.6511917 154.4019470  -1.9891343  69.0037079 153.5138245  -6.3133941
  68.3125916 154.2724304  -7.0499983  70.0795517 153.8988190  -5.6713958
  70.5470505 153.2139740  -5.0947323  70.4988327 155.2960052  -5.8527312
  69.6153793 155.9051361  -5.6615171  71.5674744 155.6681061  -4.8267865
  71.7462769 156.7415009  -4.8898125  71.2166901 155.4029083  -3.3573599
  71.4165192 154.3765106  -3.0496607  71.6728287 156.1793976  -2.7432792
  70.1363220 155.5306854  -3.2896857  72.9853287 155.0229034  -4.9151683
  73.4739838 155.1897278  -5.8751125  73.6401825 155.5045471  -4.1890254
  73.0133514 153.9385376  -4.8080053  70.9453812 155.6318359  -7.2489376
  70.6248016 156.7422485  -7.6872468  71.5721817 154.7000275  -7.9174752
  71.6489716 153.7967377  -7.4722099  72.0416107 154.8660736  -9.3622160
  72.8145294 155.6291962  -9.4536238  72.8457794 153.5865479  -9.7939692
  73.6032791 153.4198456  -9.0281353  72.1288071 152.7658844  -9.7701416
  73.5347137 153.7458191 -11.1511726  72.7980194 153.8760986 -11.9438972
  74.1988754 154.6094360 -11.1851263  74.2080841 152.4592743 -11.5004339
  73.4371109 151.6903534 -11.5498676  74.6820526 152.4202271 -12.4812136
  75.3755493 152.1913300 -10.6168003  75.8320694 153.0080109 -10.2363834
  75.9356537 151.0822144 -10.2883730  75.4929047 149.9190369 -10.7059231
  74.5616531 149.8548889 -11.0916080  76.1392212 149.1807709 -10.4664850
  77.0303726 151.0093384  -9.6108303  77.4758835 151.8193054  -9.2039175
  77.3771133 150.0607910  -9.6224823  70.8866348 155.1656189 -10.3349247
  70.9546204 156.0944672 -11.1241674  69.7643127 154.4902191 -10.1752100
  69.6654892 153.8027496  -9.4419184  68.6596298 154.6342163 -11.0939207
  68.9873352 154.7947998 -12.1210127  67.8567200 153.2545166 -11.0966330
  67.6227112 152.9097900 -10.0894098  66.8985291 153.3401642 -11.6091185
  68.7651672 152.2251282 -11.8017130  69.2767563 152.4631653 -12.8656359
  69.1981049 151.1608887 -11.1545849  69.9129028 150.6532135 -11.6560173
  68.9933090 151.1169586 -10.1665430  67.6791840 155.7580109 -10.7806711
  66.9351501 156.1884308 -11.6504211  67.7474823 156.2867737  -9.5605097
  68.3758926 155.7926941  -8.9431887  66.9865646 157.4280853  -8.9956417
  66.0130386 157.5475464  -9.4711323  66.9180527 157.1320038  -7.4926772
  66.2915573 156.2912292  -7.1948614  67.9117737 156.9231567  -7.0964251
  66.3804398 158.3594818  -6.6667857  67.0703964 159.2012329  -6.7258902
  64.9954910 158.7646332  -7.1712632  64.4464035 157.8450317  -7.3736591
  64.3877640 159.2074585  -6.3821673  65.0807190 159.4248352  -8.0343800
  66.3465118 157.9805908  -5.1654549  67.3357315 157.8126984  -4.7395725
  65.9778976 158.8378296  -4.6021037  65.7171631 157.1082764  -4.9891357
  67.7818451 158.7279510  -9.3238602  67.1457748 159.7916412  -9.5865917
  69.1080322 158.6591339  -9.3898897  69.5645981 157.8043671  -9.1052370
  69.9768906 159.7880707  -9.6358395  69.6267395 160.5778046  -8.9711504
  71.4903488 159.4662781  -9.3867483  71.5244370 158.5956573  -8.7317934
  72.4066620 159.0200348 -10.5969505  72.4946899 159.8464966 -11.3021498
  73.3805466 158.8155823 -10.1521521  71.9424438 158.2560730 -11.2206211
  72.2008057 160.6001892  -8.5582800  73.2703934 160.4229584  -8.6708469
  71.9856262 161.5515594  -9.0447903  71.8651199 160.6667328  -7.0812073
  71.8725357 159.6754608  -6.6279631  72.6365433 161.3177795  -6.6699381
  70.9367905 161.2190857  -6.9356513  69.7430801 160.3314362 -11.0614634
  69.6111145 161.5163269 -11.3269444  69.4848099 159.4500580 -11.9998007
  69.6082230 158.4847565 -11.7294846  68.9955215 159.7164459 -13.3571739
  69.5891342 160.5809784 -13.6543446  69.2603912 158.4986267 -14.3004227
  69.3897781 157.6189880 -13.6698685  68.3689651 158.2547913 -14.8783503
  70.4619141 158.7464905 -15.1899843  70.6625061 157.7892609 -15.6711845
  70.1913986 159.5088348 -15.9205751  71.7478714 159.1267090 -14.4376993
  72.0383148 160.3276062 -14.2140760  72.4678802 158.1371918 -13.9797153
  73.1307831 158.3078613 -13.2370634  72.3754196 157.1937561 -14.3282585
  67.5878601 160.3922424 -13.4627342  67.2048340 160.9860382 -14.5128679
  66.8664856 160.4142914 -12.3494205  67.3677673 160.0758667 -11.5405369
  65.5333481 161.0747833 -12.1241531  65.4740067 161.8533478 -12.8846941
  64.3421249 160.1145020 -12.4541998  63.3770981 160.6150513 -12.3749304
  64.4557266 159.7972717 -13.4908123  64.3697052 158.8426056 -11.5820332
  65.1709290 158.2080078 -11.9607658  64.5797272 159.2313080 -10.5855885
  63.0718460 158.1162415 -11.7579041  62.9821548 157.2753143 -11.0702467
  62.2884216 158.8590393 -11.6075516  62.9544487 157.4070892 -13.1675291
  62.8859558 158.1870270 -13.9258947  63.8460121 156.7843781 -13.2413034
  61.7529488 156.5531464 -13.2697392  60.9235001 157.1269989 -13.3226871
  61.8879433 155.9752502 -14.0869932  61.6743088 155.9464111 -12.4661274
  65.5974121 161.8662872 -10.8104467  66.4307175 162.7318726 -10.6463022
  64.5335617 161.6862335  -9.9936638  63.9580421 160.8824463 -10.2005692
  64.0932999 162.6397400  -8.9812346  63.9676170 163.6324921  -9.4133768
  62.7388229 162.1507263  -8.4292374  62.2696915 161.3164368  -8.9507580
  62.8785286 161.8105621  -7.4031401  61.5952072 163.1814270  -8.5057621
  61.7919846 164.3620453  -8.8859386  60.4358292 162.8944550  -8.1762323
  64.9791336 162.8338165  -7.8023224  64.8053055 163.8695221  -7.1971841
  65.9440765 161.9919434  -7.5197573  65.9853287 161.2242737  -8.1748056
  66.9814682 162.1031036  -6.3859272  67.5435486 161.1693268  -6.3700056
  67.9589920 163.3300323  -6.6111956  67.2692184 164.1556702  -6.4361844
  68.6512222 163.3879395  -5.7712145  68.5955734 163.4542084  -7.9309134
  69.2558899 162.5902252  -8.0057297  67.9445877 163.4083862  -8.8039656
  69.5253296 164.6091309  -8.1020279  70.2229843 164.7336121  -7.2738452
  70.0574341 164.5213623  -9.0492697  68.6537704 165.8448639  -8.1741734
  68.1858215 165.9998627  -9.0557089  68.5652390 166.8457794  -7.3013334
  69.1937256 166.9472046  -6.1847744  69.8574219 166.2452545  -5.8899975
  68.9658661 167.7018127  -5.5533118  67.6219864 167.7181549  -7.5445466
  66.9381943 167.6605530  -8.2856331  67.5054398 168.5139618  -6.9336557
  66.4644699 162.2062378  -4.9282827  67.2714615 162.2866058  -3.9649491
  65.1486206 162.2711792  -4.6898756  64.5415268 162.2248230  -5.4957209
  64.4396973 162.2328186  -3.3960545  65.0342941 162.7321320  -2.6310434
  63.1735992 163.0274658  -3.3989346  62.5263557 162.4534912  -2.7358084
  63.3620949 164.5325928  -3.1246336  63.9867058 164.9835663  -3.8957372
  62.3765488 164.9959717  -3.1702025  63.7447548 164.7261505  -2.1225314
  62.5352898 162.9472046  -4.6487269  61.6530571 163.3256836  -4.6531229
  64.2703705 160.7619781  -3.0667496  63.5028839 160.0484467  -3.6866822
  64.8748627 160.3780975  -1.9221438  65.6457214 160.9420624  -1.5937787
  64.5813065 159.1624603  -1.2216142  63.8965530 158.6011658  -1.8573601
  65.8882523 158.3438263  -1.1714727  65.7092896 157.2943573  -0.9376005
  66.3426132 158.3454742  -2.1622574  66.9934006 158.7894745  -0.2473707
  67.9786301 159.7004242  -0.6350354  67.7730865 160.0685883  -1.6293290
  68.9990005 160.0800629   0.1825558  69.7839127 160.7433319  -0.1497129
  69.1575546 159.4693756   1.4341431  69.9768219 159.7218475   2.0910075
  68.1430893 158.6047211   1.9367872  68.2487411 158.1643372   2.9172502
  67.0615005 158.2796783   1.0850744  66.3392029 157.5934143   1.5018870
  64.0239182 159.4406281   0.1462662  64.0862274 160.5419312   0.6934998
  63.3145714 158.4003143   0.6704218  63.3834953 157.4756775   0.2699181
  62.6126862 158.5923004   1.9329474  62.6238823 159.6421509   2.2258484
  61.1460381 158.0611877   1.8757128  61.0815773 157.1932068   1.2195468
  60.7465096 157.8689423   2.8714623  60.5713196 158.8932800   1.4689956
  63.4822159 157.9913483   3.0468431  64.0713882 156.8989258   2.8871391
  63.5219650 158.7087402   4.1380615  63.1301498 159.6393585   4.1608872
  63.9635391 158.2635193   5.4741244  64.2975922 157.2294159   5.3897653
  65.2594604 159.0544586   5.9136925  65.0565643 160.1159973   5.7719979
  65.6536407 158.6734009   7.3755751  65.8907242 157.6155243   7.4886250
  66.5875931 159.1701660   7.6383801  64.8976593 158.9584808   8.1072350
  66.3816452 158.6558075   5.0125189  66.2002640 158.9788361   3.9874051
  67.2928314 159.1266022   5.3815398  66.4797897 157.5711670   5.0577989
  62.8192825 158.3100128   6.5567083  61.9531898 159.1628876   6.5492120
  62.6801682 157.2082672   7.3385072  63.4448204 156.5485535   7.3242946
  61.4618797 157.0270386   8.2264709  60.6330299 157.6740875   7.9393258
  60.9644508 155.5742035   8.0298510  61.8505173 154.9594421   7.8715501
  60.3980789 155.1560822   8.8620157  60.0959473 155.3462067   6.7980680
  60.5783424 155.7438660   5.9051666  59.8526039 153.8761749   6.5403414
  59.2715721 153.3260651   7.2805381  59.3541679 153.8216248   5.5725145
  60.7906036 153.3709717   6.3100696  58.6756859 156.0210114   6.8603983
  58.7519112 157.0425720   7.2328486  58.2731857 155.9126587   5.8532467
  58.0336304 155.4570618   7.5370264  61.7167740 157.3289795   9.7094536
  62.8637314 157.1931305  10.1551332  60.6600113 157.6680756  10.4475956
  59.7495232 157.8740845  10.0620203  60.7033691 157.7879639  11.8713303
  61.7320099 157.9894257  12.1703539  59.8454819 158.9388885  12.3838482
  58.8050842 158.7612305  12.1116276  59.8467484 158.8810577  13.4723120
  60.1800537 159.9039917  12.0034142  60.2493172 156.4256897  12.4127245
  59.0576172 156.2261963  12.5636091  61.1462479 155.4434967  12.6050816
  62.1107063 155.6106873  12.3561544  60.6919861 154.1079559  13.0822954
  59.8886871 153.7817383  12.4216852  61.7767296 153.0717926  12.9119291
  62.6414146 153.3701935  13.5047007  61.3825607 152.1454163  13.3297434
  62.2392044 152.8416748  11.5275831  61.3905296 152.1908569  10.5739470
  60.4721909 151.7241364  10.8983259  61.7464676 152.0659637   9.2329693
  61.0127716 151.6175079   8.5795279  62.9546928 152.6536713   8.8096170
  63.2272263 152.5860748   7.4471264  62.7194595 151.9241333   6.9721651
  63.7934952 153.3617249   9.7342138  64.7400818 153.7647095   9.4056129
  63.4137039 153.4743195  11.0798826  64.0574188 154.0177917  11.7556534
  60.2336731 154.0625153  14.5231390  61.0727196 153.9719849  15.4313545
  58.9060249 154.0392303  14.7683458  58.3223228 153.8813782  13.9593449
  58.2135849 153.9755859  16.0435982  58.6257706 154.6713104  16.7744713
  56.7832031 154.4394531  15.8860302  56.1826515 154.3280029  16.7888126
  56.7134247 155.5044708  15.6647100  56.1634560 153.7827148  14.6881647
  55.2054176 153.7562256  14.7434931  58.2581558 152.5382843  16.7374840
  58.0100975 152.4537354  17.9503822  58.6785583 151.4879608  16.0386868
  58.7709427 151.6388550  15.0443048  59.3072205 150.2495728  16.5026569
  59.8573112 150.4481354  17.4224777  58.2459946 149.2551270  16.9686108
  57.6625061 149.7088928  17.7696915  57.5889473 148.9412842  16.1575050
  58.7241745 147.9437714  17.4823780  59.8134232 147.4456329  17.1759701
  57.9836235 147.3204498  18.3477058  58.3830185 146.4689789  18.7159081
  57.1525269 147.7396393  18.7397022  60.2972450 149.7570190  15.4446249
  59.8547783 149.2094727  14.4316387  61.5858231 149.7977142  15.7537231
  61.8115387 150.2188110  16.6435699  62.6307907 149.5130157  14.7726774
  62.3749657 149.8496094  13.7680101  63.9341965 150.2424164  15.0967646
  63.6507072 151.2909088  15.1884851  64.5429077 149.7904663  16.4319611
  64.8336487 148.7416534  16.4915657  65.4083328 150.3985443  16.6953621
  63.8770943 150.0038757  17.2681675  65.0863800 150.0824127  14.1127443
  64.7483749 150.3497772  13.1115637  65.8932419 150.7720490  14.3606701
  65.4445953 149.0580292  14.0106058  62.8568306 147.9966736  14.7244749
  63.3020897 147.5417328  13.6621695  62.4538422 147.1988831  15.7470226
  61.9750824 147.6948242  16.4852180  62.4996262 145.7161560  15.7173042
  63.4209328 145.3248596  15.2858295  62.4102249 145.1185608  17.1499424
  62.9284554 145.7883911  17.8361320  61.3766785 145.0631561  17.4917202
  62.9983215 143.7089386  17.2091789  62.4171524 143.1071930  16.5104351
  64.0564880 143.7959290  16.9625492  62.7776680 143.1469574  18.6043644
  63.1631279 143.8428192  19.3495445  61.6928139 143.0721130  18.6791019
  63.3646736 141.8081360  18.8204556  64.3221436 141.7741394  19.1401367
  62.8850975 140.6344757  18.3671074  61.9057693 140.5608215  17.5404263
  61.6628304 141.3591614  16.9714489  61.5814743 139.6727600  17.1850662
  63.3709373 139.5092773  18.8111343  64.1694412 139.5728149  19.4263153
  62.9192581 138.6314850  18.5976334  61.3569717 145.1060638  14.8349533
  61.5990524 144.0954437  14.1578016  60.1842499 145.7387543  14.8106203
  59.9898529 146.3934326  15.5547352  59.0794830 145.3480072  13.9183636
  59.4299316 144.4080200  13.4920864  57.7584572 145.1856232  14.6540642
  57.5842896 146.2065125  14.9940262  56.9907532 144.9547424  13.9155397
  57.7139320 144.1825409  15.8364897  58.3163681 144.6200867  16.6325569
  56.7156219 144.0450439  16.2519073  58.2487984 142.7848053  15.4226894
  57.8001175 142.1815643  14.3783607  59.1537476 142.2303009  16.0933170
  58.9326553 146.2931061  12.7062616  58.1340256 146.0372772  11.8285303
  59.8157616 147.2592163  12.5002604  60.4879112 147.4804688  13.2209311
  59.8773117 148.1558990  11.3541908  60.5189667 149.0112000  11.5659866
  60.3835602 147.3858185  10.1320810  59.5964203 146.7442322   9.7359934
  60.6626625 148.0845947   9.3434649  61.5589523 146.4839478  10.2962770
  62.0608864 146.6465607  11.2500687  61.1939964 145.4586182  10.3563070
  62.6733589 146.5189514   9.2263699  63.3364983 145.6596527   9.3260717
  62.1101837 146.4897461   8.2935877  63.4243164 147.7624054   9.3870535
  63.6298943 147.9910278  10.3491192  64.0307846 148.4402161   8.4425297
  64.0877304 147.9331665   7.2580190  63.5751648 147.0691681   7.1537237
  64.3205490 148.4935303   6.4506202  64.7407303 149.5665436   8.6812439
  64.7915878 150.0115356   9.5865040  65.3555832 149.8934326   7.9496775
  58.5213661 148.9124298  11.1464491  58.0656738 149.1680298  10.0442066
  57.8443146 149.1865540  12.2003613  58.3027649 148.9687805  13.0735750
  56.7234039 150.0510559  12.2760334  56.0112953 149.8366699  11.4791346
  55.8507462 149.9341431  13.5563955  56.4003258 150.2921906  14.4269505
  54.9984245 150.5959930  13.4027042  55.4137344 148.5119476  13.8704882
  55.2987022 147.9413757  12.9489069  56.1595306 147.9755859  14.4571896
  54.0895805 148.4601593  14.6199446  54.0180969 148.5830536  15.8757248
  53.0429153 148.4097443  13.9299679  57.2220116 151.4877625  12.1641655
  58.1763611 151.8932800  12.8465576  56.6014786 152.2085266  11.2634134
  55.7786636 151.8934174  10.7696638  56.8319283 153.6657715  11.0702457
  57.1366081 154.1344910  12.0059662  57.9895592 153.8670502  10.0920210
  57.7564964 153.4154816   9.1277313  58.2119484 154.9226074   9.9356604
  58.9073143 153.4426727  10.4991169  55.5807381 154.3626556  10.5468702
  54.9766159 153.7352905   9.6924658  55.3131371 155.5414581  11.0848322
  55.9258728 155.8971405  11.8046551  54.0651436 156.2473907  10.7084093
  53.4117928 155.5658875  10.1636276  53.3522491 156.5485077  11.9957924
  54.0481033 157.0425262  12.6739044  52.4312477 157.0965881  11.7971449
  52.8683205 155.2948608  12.6895838  52.1034164 154.2735443  12.1465244
  51.9127083 153.2920685  13.0348997  51.3702278 152.3719482  12.8752937
  52.4147453 153.7582092  14.1982384  52.5292168 153.2527618  15.0651464
  52.9829712 154.9875946  13.9791756  53.4632721 155.6234436  14.7081480
  54.3118362 157.5609894   9.9312458  53.4435539 158.0890350   9.2250900
  55.4492912 158.2116089  10.1731501  56.1101494 157.8979950  10.8695850
  55.9283180 159.5102539   9.5578423  55.3555412 159.7174225   8.6538992
  55.7117882 160.7410126  10.4648218  56.3841248 160.7161407  11.3224039
  55.8525963 161.6510925   9.8817015  54.2927818 160.8276062  11.0701704
  53.2635460 161.5051422  10.3557405  53.4814301 162.0440979   9.4455423
  51.9565392 161.4802094  10.8365154  51.2122459 162.1023254  10.3617449
  51.6304131 160.8702240  12.0918322  50.6022987 160.8580627  12.4223356
  52.6365929 160.1984406  12.7820463  52.4369164 159.7685547  13.7524719
  53.9334259 160.1726227  12.2555971  54.7213936 159.6652069  12.7922840
  57.4072380 159.5125885   9.0825891  58.1970901 158.6154175   9.4634409
  57.9401093 160.5862732   8.4166222  57.2591667 161.3047943   8.2162771
  59.3650322 160.7140503   8.0543346  59.9397659 160.6554718   8.9786453
  59.6198692 159.9283295   7.3431334  59.6964760 162.0592499   7.3698750
  58.9296722 162.9902954   7.3943806  60.7897835 161.9685364   6.6930108
  61.1341972 161.0191650   6.7061763  61.4780807 163.0998230   5.9921527
  60.7684021 163.9181824   5.8707256  62.5646286 163.7187042   6.8822861
  63.2998695 162.9236603   7.0065322  63.1649475 164.9380493   6.1800280
  62.4495239 165.7597656   6.1477613  63.9972572 165.3361511   6.7604399
  63.5511551 164.6524048   5.2015872  62.0095558 164.1739349   8.0909634
  62.1016808 163.5496979   8.8144560  62.0270500 162.6571655   4.6393471
  62.7509651 161.6619415   4.5023875  61.7282372 163.3751526   3.5051467
  61.0043793 164.0759888   3.5755529  62.2802811 163.1269226   2.1346068
  62.2765617 162.0501099   1.9655566  61.3947220 163.6565247   1.0170269
  61.8612251 163.5525818   0.0373986  60.0205078 163.0215454   0.9979092
  59.3922806 163.4821320   1.7603378  59.6656036 163.0159912  -0.0326842
  59.9701920 161.9486084   1.1833159  61.1514359 165.0641479   1.2090040
  61.9866142 165.5002441   1.0248686  63.6839027 163.7049561   2.0446920
  63.8861809 164.8763885   1.7553579  64.7079544 162.7994995   2.1625211
  64.4881058 161.8155518   2.2226260  66.0344391 163.1769104   1.7093426
  66.3191528 164.1045074   2.2059348  66.9719009 162.0657196   2.1913068
  66.6179276 161.1162720   1.7896296  67.9429932 162.3482513   1.7847859
  67.0811691 161.9985657   3.2737391  66.1903381 163.4041443   0.2087381
  66.0602264 162.4992065  -0.5483881  66.7406158 164.5829620  -0.2130377
  66.8110886 165.3930054   0.3860958  67.2630692 164.7215576  -1.6429369
  66.9244614 163.9243317  -2.3046436  66.7563477 166.0246429  -2.2447667
  65.6983948 166.1608124  -2.0205028  67.2036133 166.8614349  -1.7082675
  67.0022049 166.1401062  -3.7574477  67.9939575 165.7617035  -4.0051064
  66.2979965 165.4925995  -4.2798672  66.9052353 167.5672150  -4.2541895
  65.8141785 168.0035706  -4.7589474  67.9207840 168.3294830  -4.1081610
  68.7693176 164.6234283  -1.6584746  69.4635315 165.2148743  -0.8388168
  69.3298874 163.9666748  -2.6451414  68.6986618 163.4266968  -3.2196643
  70.8102264 163.8987885  -2.8143837  71.2769852 163.8304291  -1.8317480
  71.1925888 162.5552673  -3.5548327  70.6030807 162.6674194  -4.4647808
  72.6896973 162.5280304  -3.9266169  73.2595215 162.6456299  -3.0048976
  72.9800034 161.6411743  -4.4899015  72.9552002 163.3310699  -4.6141791
  70.8360291 161.3024445  -2.6830447  71.5960236 161.1179657  -1.9237831
  69.9193192 161.5701904  -2.1576326  70.6255112 160.0067596  -3.5216601
  71.4906921 159.7774353  -4.1437402  70.5373154 159.0726166  -2.9669383
  69.7738571 160.0852966  -4.1973882  71.3097687 165.1367035  -3.5170112
  70.9567490 165.3242035  -4.6922450  72.1375580 165.9679871  -2.8125679
  72.2502747 165.8146210  -1.8206643  72.7721634 167.1851044  -3.3466024
  72.1558914 167.4426270  -4.2079949  72.6356049 168.3681946  -2.3572595
  72.6542816 169.2872772  -2.9429660  71.6212997 168.3961334  -1.9591204
  73.5546188 168.4059601  -1.1586722  74.7514496 169.1271210  -1.1684980
  75.0872269 169.5123749  -2.1199393  75.5439758 169.2631836  -0.0520096
  76.4747238 169.8085632  -0.0002891  75.0745773 168.6233063   1.1678839
  75.8007660 168.7674713   2.3248472  76.2630615 169.6043243   2.4118338
  73.8155212 168.0565186   1.2556002  73.4481430 167.7607880   2.2271903
  73.0118484 168.0242310   0.1112662  71.9822769 167.7002106   0.1486536
  74.2043381 166.9674530  -3.8631351  74.7604370 167.8554230  -4.5280561
  74.8305664 165.8614807  -3.4730182  74.2952728 165.2483063  -2.8750312
  76.1677094 165.4078979  -3.8876417  76.3938675 165.8553772  -4.8554811
  77.3166351 165.9705353  -2.9970806  77.5609741 165.2846985  -2.1859000
  78.2176590 166.0276489  -3.6078122  77.2082367 167.0047913  -2.6704860
  76.2623291 163.8475189  -3.9642403  75.6843567 163.1419830  -3.1501696
  77.0174179 163.3668213  -4.9990182  77.3562698 164.1220856  -5.5776815
  77.1536560 161.9778137  -5.3293591  77.0758896 161.4347076  -4.3875079
  75.9000778 161.5468903  -6.0936007  75.0197830 161.5452118  -5.4508133
  75.6874466 162.2504120  -6.8985424  75.8066711 160.2743835  -6.8871484
  75.0019302 159.1622620  -6.5331202  74.4936752 159.1335297  -5.5806222
  74.9945602 158.0066071  -7.3621039  74.2842026 157.2187195  -7.1595259
  75.6796265 157.9351807  -8.5612736  75.5009079 156.9467010  -9.5454063
  75.3273621 156.1148376  -9.0987635  76.5100403 159.0240936  -8.8764601
  77.1297913 159.0311432  -9.7609167  76.5482788 160.2213135  -8.0944672
  77.1366348 161.0601501  -8.4359121  78.4764633 161.5510101  -6.0177746
  79.0850830 162.4076080  -6.5769005  78.9369507 160.2953033  -5.8009048
  78.3558578 159.7870178  -5.1496868  80.1969452 159.6490784  -6.1939683
  80.3060074 159.9954834  -7.2216878  81.2313766 160.2279510  -5.2371931
  81.1594543 161.2956848  -5.0301538  81.1448059 159.6229706  -4.3346391
  82.6258163 160.0344086  -5.7192426  82.7008820 158.9532623  -5.8358412
  82.7084579 160.4836884  -6.7088962  83.7535477 160.5145416  -4.7060189
  83.2846069 161.2965393  -4.1087914  83.9922791 159.6927490  -4.0309176
  84.8440933 161.0588379  -5.4069495  84.7296143 161.9819489  -5.8004537
  85.9483490 160.4056244  -5.8471951  86.3830185 159.3105011  -5.3193107
  85.7778244 158.7523651  -4.7342210  87.2409973 158.9464417  -5.7084432
  86.7068481 160.9582214  -6.7102203  86.3545456 161.8091736  -7.1247578
  87.5639191 160.5206451  -7.0169110  80.2361069 158.0572662  -6.2387161
  79.8614807 157.4343872  -5.2375784  80.7266922 157.3973694  -7.2911191
  81.0374985 158.0453339  -8.0007887  80.8231735 155.9491730  -7.5026622
  80.3141403 155.4492493  -6.6786041  80.1474838 155.5432587  -8.7909765
  80.5124664 156.1603699  -9.6119871  80.4183426 154.5019226  -8.9652576
  78.6086197 155.5895081  -8.6210556  78.3779984 155.2086945  -7.6261191
  78.1730270 156.5812988  -8.7423611  77.8953629 154.6867523  -9.6633854
  76.9633789 153.9800568  -9.2271032  78.1631241 154.6244659 -10.9259987
  82.2672577 155.5167999  -7.4976878  83.0856400 156.1004791  -8.2780428
  82.6111603 154.4796753  -6.7636423  81.8795090 154.0653687  -6.2040458
  83.9122009 153.8112946  -6.7105474  84.5348206 154.1557617  -7.5362544
  84.7658005 154.2775726  -5.5139999  84.1825943 153.9862976  -4.6404281
  85.7396240 153.8220825  -5.3342962  85.0144958 155.7828827  -5.4772315
  85.7390366 156.0523071  -6.2457027  84.1210938 156.3827972  -5.6505246
  85.5739670 156.3084106  -4.1331277  86.8325424 156.3097229  -3.9762273
  84.8453751 157.0598145  -3.3912654  83.9019318 152.2423553  -6.7685685
  82.9668884 151.5542450  -6.3938022  85.0439682 151.7480621  -7.2336149
  85.8192596 152.3465118  -7.4803648  85.2829285 150.3415680  -7.4108653
  84.5315933 149.7392731  -6.9001427  85.0703354 150.0144196  -8.9179983
  84.0228729 150.2029419  -9.1533308  85.7131119 150.6840973  -9.4893818
  85.5280838 148.6527710  -9.3089027  86.4504013 148.8698120  -9.8477135
  85.8489609 147.9843750  -8.5099154  84.5779190 147.8953094 -10.1777077
  84.0860672 146.8014069  -9.8146944  84.1169052 148.5035400 -11.2289028
  83.3142776 148.0976715 -11.6884232  84.5336838 149.4047241 -11.4140091
  86.6627426 149.9253082  -6.7962508  87.7746429 150.1466522  -7.3246508
  86.6286697 149.1145782  -5.6961918  85.7291412 148.8430023  -5.3257799
  87.8375397 148.5391998  -5.0303211  88.6361160 148.2489319  -5.7130518
  88.3236923 149.5308685  -3.9320021  87.4717712 149.7744141  -3.2971671
  89.0171738 149.1433868  -3.1856561  89.0171890 150.8053436  -4.4621792
  89.8182144 150.5149384  -5.1419702  88.2571335 151.3540039  -5.0184155
  89.6242752 151.7049561  -3.4310851  88.9869614 152.2433472  -2.4898226
  90.8317413 151.9916534  -3.6810117  87.5645676 147.1718445  -4.3513298
  86.4091644 146.8784332  -4.0073819  88.6904602 146.3633423  -4.2421088
  89.5858612 146.7889557  -4.4350228  88.5814819 144.9289856  -3.7193780
  89.5832825 144.5151367  -3.8343821  88.2054596 144.9575653  -2.2179148
  87.1234131 145.0798950  -2.1698344  88.4275513 143.9989471  -1.7490342
  88.8236618 145.9868927  -1.3400785  90.1779709 145.8487244  -1.0383037
  90.7701797 145.0578461  -1.4744233  90.9260483 146.8634033  -0.3874360
  91.9950790 146.7671661  -0.2678345  90.2026978 147.9748535   0.1452354
  90.9069595 148.9070740   0.8407513  91.8541031 148.7504730   0.8394653
  88.8269043 148.0873108  -0.1114679  88.2796555 148.9010925   0.3409651
  88.1440964 147.0892944  -0.8804114  87.1261749 147.2257233  -1.2145101
  87.6764374 143.9873505  -4.5803499  87.3373871 142.8819427  -4.2078152
  87.3203583 144.4786377  -5.7780476  87.8152008 145.3141785  -6.0557442
  86.4703217 143.8176270  -6.7156658  86.4829025 144.3348236  -7.6750660
  86.8263550 142.7914429  -6.8065791  84.9567566 143.8479156  -6.3432970
  84.2349930 142.8508606  -6.5587878  84.4789505 144.9427948  -5.7133484
  85.1733017 145.6188965  -5.4289894  83.0408630 145.2258148  -5.4516850
  82.4239349 144.6406555  -6.1336632  82.5839005 144.9356689  -3.9469099
  81.5318222 144.6697998  -4.0496159  83.4076691 143.7822418  -3.3473339
  84.4395218 144.0804901  -3.1617498  83.0466309 143.5189514  -2.3531399
  83.2804565 142.8475647  -3.8934846  82.5531464 146.2516785  -3.0612359
  83.4616547 146.8121796  -3.2815571  81.7097168 146.8459473  -3.4127791
  82.3066711 146.0749054  -1.5413651  83.0907059 145.5384064  -1.0069832
  82.2377625 147.0394135  -1.0382807  81.3148041 145.6511383  -1.3841418
  82.6345596 146.6625519  -5.8603501  83.4180298 147.6120300  -5.7278299
  81.4182205 146.8817444  -6.3574724  80.8750534 146.0724030  -6.6221313
  80.8172684 148.2148285  -6.5882244  81.5772018 148.8619995  -7.0261540
  79.6513214 148.0750885  -7.5481486  79.0192108 147.2515717  -7.2159238
  78.9999847 148.9461670  -7.4768205  80.0137329 147.8664551  -9.0059767
  80.7624054 148.6387939  -9.1823082  80.5840836 146.9527740  -9.1732893
  78.8385086 148.0529175 -10.0542603  77.6437302 148.2881012  -9.7250853
  79.2016602 148.0854187 -11.2393732  80.2267227 148.8790283  -5.3234963
  79.4229050 148.3856354  -4.5208869  80.6259613 150.1487427  -5.0992069
  81.3930664 150.5211487  -5.6404686  80.1876068 150.9829865  -3.8760772
  79.2165298 150.5869904  -3.5789237  81.2098618 150.8405609  -2.7432780
  81.3652878 149.7834930  -2.5275469  82.5508270 151.4426117  -3.0868516
  82.4329147 152.4976807  -3.3338683  83.1871109 151.4324036  -2.2018995
  83.0431824 150.9123993  -3.9020569  80.6851425 151.5051270  -1.6304705
  81.1964035 151.3014679  -0.8438768  79.8626175 152.4690094  -4.2452812
  80.1057434 152.9168701  -5.4066005  79.1730194 153.2223511  -3.3704178
  79.0784454 152.8487854  -2.4368167  78.7110825 154.5873108  -3.6808889
  79.5271454 154.9938507  -4.2782621  77.3151779 154.5938263  -4.3801479
  77.3436203 153.9199066  -5.2363691  76.1475067 154.0474854  -3.6114738
  75.8370895 154.7882690  -2.8746059  75.3473206 153.7684784  -4.2970047
  76.4396286 153.1667480  -3.0395877  76.8535309 155.9416809  -4.9674478
  77.6624069 156.2645416  -5.6228681  75.8922882 155.8294373  -5.4689603
  76.5468903 156.7077789  -4.2552857  78.6701508 155.5092773  -2.4074318
  78.4936218 155.0652771  -1.2398413  78.9014740 156.7908783  -2.6018534
  79.2063751 156.9911194  -3.5436773  79.0336380 157.8329315  -1.5693532
  78.7066956 157.3368988  -0.6554773  80.5403214 158.2034149  -1.4301947
  80.8193207 158.6741943  -2.3728673  80.6335831 158.9935150  -0.6851208
  81.3561401 156.8866119  -1.1165522  80.8490829 156.4513245  -0.2554422
  81.4787521 156.2550659  -1.9964402  82.7999649 157.3273163  -0.6890606
  83.1294174 158.1450348  -1.3300865  82.7213898 157.7892303   0.2950986
  83.8048019 156.1203308  -0.8423877  83.5380325 155.3670197  -0.1011294
  83.7056274 155.5824432  -1.7852194  85.2059860 156.6425629  -0.7170805
  85.3430557 157.1720123   0.1320344  85.7663193 155.8024750  -0.7365032
  85.3618927 157.1803589  -1.5576574  78.1848526 159.0427551  -1.9172803
  78.3984451 159.7120361  -2.9635575  77.3507843 159.4404755  -1.0005603
  77.2335815 158.9048767  -0.1523280  76.3352203 160.5411377  -1.1607985
  76.7537537 161.1423035  -1.9679766  74.9224014 160.1626587  -1.5198300
  74.3986053 161.1024628  -1.6945363  74.7933960 159.3332367  -2.7841799
  75.0867004 158.3120117  -2.5409338  73.8013840 159.2848358  -3.2332528
  75.3722305 159.6710663  -3.6437874  74.0537491 159.4703064  -0.4610433
  74.0135956 160.1372528   0.4001602  73.0633926 159.3073730  -0.8861988
  74.5509796 158.5229645  -0.2526934  76.3075333 161.4599609   0.0801872
  76.4258728 161.0684967   1.2081048  76.0492554 162.7330170  -0.1754465
  75.9188461 163.0086060  -1.1383325  75.4901047 163.7095947   0.8062685
  75.3652039 163.3451233   1.8259035  76.4825363 164.9378662   0.9531409
  76.6594849 165.3625183  -0.0350176  75.9254990 165.7138977   1.4781048
  77.7445297 164.6158752   1.6754055  77.5398026 164.5238953   2.7420473
  78.0767365 163.6270752   1.3591243  78.8993835 165.5980225   1.5210724
  79.4868469 165.5516815   2.4380462  79.6250916 165.3161621   0.7581701
  78.6068573 167.0642242   1.3845459  77.7615509 167.1518250   0.7019884
  78.3229828 167.5074005   2.3390670  79.8037109 167.7796478   0.8515710
  79.9535370 167.4144745  -0.0781107  79.6767044 168.7787018   0.7750815
  80.6625748 167.6815643   1.3739103  74.1246262 164.1845856   0.3198946
  73.8687363 164.3706970  -0.8680134  73.1767120 164.2428284   1.2394719
  73.4261246 164.0192108   2.1923022  71.7596970 164.5379639   1.0532625
  71.5875397 164.9728851   0.0687280  71.0869675 163.1670227   1.1044598
  71.1396332 162.6838531   2.0800986  70.0315475 163.3231659   0.8812982
  71.5155640 162.4715271   0.3828785  71.2053375 165.4103241   2.1855812
  71.8235397 165.6071625   3.2205021  69.9619217 165.9224091   2.0646417
  69.4955444 165.7831573   1.1796548  69.4046173 166.9393616   2.9857671
  69.7345047 166.6456299   3.9822652  69.9763641 168.2295532   2.5516639
  71.0383148 168.1729584   2.3126068  69.2074738 168.7753601   1.3685721
  68.1674118 168.9798279   1.6226586  69.7134628 169.6433105   0.9458030
  69.1123199 168.0372467   0.5721716  69.9404449 169.3350372   3.6012187
  68.9770508 169.8433990   3.5620387  69.9738388 168.8745422   4.5886092
  71.0798264 170.3163147   3.5387135  71.2330780 170.7698059   2.5594437
  70.7348175 171.1643219   4.1302900  71.9629059 169.8569336   3.9828253
  67.9027710 166.8117065   3.0278656  67.2659683 166.4597168   2.0726368
  67.2375259 167.0985107   4.1558342  67.7622299 167.4484558   4.9447155
  65.7438126 166.8784485   4.2284107  65.4767532 165.9981232   3.6437612
  65.5201492 166.7158966   5.2827625  64.9044037 168.0248413   3.6535084
  64.8470383 169.1373444   4.2224798  64.1764679 167.7695465   2.6023529
  64.2614288 166.8522797   2.1882024  63.3169136 168.7716675   1.9372996
  63.7208710 169.7786865   2.0413413  63.2940788 168.4964447   0.4517062
  63.0881119 167.4348297   0.3151463  62.5152702 169.1055145  -0.0071906
  64.5432739 168.8176727  -0.4018146  65.4280853 168.3579254   0.0384789
  64.3650131 168.2986450  -1.3435880  64.7986908 170.2950287  -0.6699885
  65.3512878 170.3456268  -1.6081691  63.8584175 170.8341522  -0.7854225
  65.6539078 171.0328369   0.3525799  65.1459427 171.4165192   1.1367184
  67.0084610 171.2695007   0.3454778  67.8325272 170.7741394  -0.5794920
  67.5200272 170.0929718  -1.2565857  68.8139343 171.0117798  -0.5577643
  67.4535675 172.1632385   1.1966742  66.7546005 172.5465698   1.8168430
  68.3904114 172.5347443   1.1302195  61.8921471 168.8521881   2.5405633
  61.4624138 169.9700928   2.7621744  61.1683693 167.7262268   2.7854996
  61.5123253 166.7852020   2.6580241  59.7193489 167.7318726   3.2191727
  59.4553299 168.6825104   3.6825020  58.8056908 167.4449158   2.0460305
  58.9625359 166.4040527   1.7629884  57.7539177 167.6017609   2.2853575
  59.2170563 168.1397858   0.7865546  58.7356873 169.1125031   0.8875971
  60.2962227 168.2361298   0.6673452  58.6977654 167.5105438  -0.4822591
  58.0267105 168.1231232  -1.2524190  58.9813347 166.2528839  -0.7652217
  58.4935265 165.8656921  -1.5603523  59.7056046 165.7632751  -0.2594466
  59.4796524 166.7523499   4.3631558  60.0018082 165.6470184   4.3967128
  58.6074333 167.0885315   5.3958077  58.1104736 167.9518585   5.2290974
  58.0397644 166.0578308   6.3189602  58.8021317 165.3520050   6.6486692
  57.4648552 166.8188629   7.5330963  56.8235512 167.6096954   7.1439610
  56.8006401 166.1405792   8.0686798  58.4976730 167.4948120   8.3905087
  59.1984253 166.7248993   8.7134113  58.9656944 168.3105011   7.8394160
  57.8315506 168.0077515   9.7144184  57.3078613 167.2079468  10.2380209
  58.5622101 168.4438477  10.3956299  56.7927437 169.0344391   9.4349556
  57.0950050 169.8802338   8.9730282  55.5430450 169.0665588   9.8234196
  55.0649910 168.0521240  10.4856548  55.5249290 167.1950378  10.7576342
  54.0930367 168.0547638  10.7602406  54.8399620 170.1094818   9.5487833
  55.2626343 170.9234009   9.1257210  53.8822403 170.1223450   9.8692694
  56.8919983 165.2620087   5.6192708  56.1492958 165.9039764   4.8725152
  56.6657677 164.0086212   5.9833732  57.3082314 163.5183258   6.5891447
  55.5836220 163.1610870   5.4451308  54.7745934 163.8306274   5.1530857
  56.0714798 162.4648590   4.1550422  55.1720047 162.1173553   3.6468205
  56.4863014 163.2489471   3.5216036  57.0766258 161.3360748   4.3760123
  56.6639824 160.0705261   4.8397479  55.6722870 159.8381500   5.1988325
  57.5925903 159.0161133   4.9765573  57.1857414 158.0859528   5.3449125
  58.9484253 159.2118988   4.6306973  59.6213684 158.3848114   4.8023663
  59.3500786 160.4601440   4.0953732  60.3671570 160.4557037   3.7321336
  58.4452133 161.5209503   4.1109295  58.8035965 162.4681549   3.7357440
  54.8286285 162.1305695   6.3669848  55.4593391 161.4968872   7.1853981
  53.4742851 162.0155792   6.1830959  53.1063881 162.7489624   5.5941129
  52.6151810 160.8958282   6.7118359  52.8366241 160.6743317   7.7558665
  51.1344376 161.3223572   6.6863456  50.9527969 162.2941132   7.1454740
  50.7456665 161.3740234   5.6693459  50.2801437 160.2513885   7.4886131
  50.4845085 159.2511292   7.1067758  50.6604118 160.2308807   8.5099277
  48.7520370 160.4150391   7.5046568  48.3234062 160.3335266   6.5057898
  48.3823891 159.7088928   8.2481804  48.3423042 161.7374573   8.0012627
  48.9222183 162.0284882   8.8771067  48.6109314 162.4671478   7.2374015
  46.8543816 161.7035370   8.2481298  46.6387062 161.1286316   9.0500450
  46.4777565 162.6352386   8.3490114  46.3267822 161.3994141   7.4423742
  52.8398552 159.7001801   5.7788191  52.8216286 159.8219910   4.5450697
  52.9640388 158.4774628   6.3560443  52.7478333 158.4771576   7.3426318
  52.8281784 157.1787415   5.7138743  53.3659401 157.2998352   4.7735305
  53.5264435 156.1228638   6.6162133  53.0788918 156.1714172   7.6089101
  53.2726135 154.6981049   6.1629615  53.5816994 154.5600586   5.1268573
  53.8179817 154.0415192   6.8408751  52.2314339 154.3755798   6.1666017
  55.0764351 156.4351501   6.5948091  55.3504143 157.4883270   6.6568284
  55.4523964 156.0735321   7.5518875  55.6090202 155.9847717   5.7571802
  51.3817902 156.7146606   5.4266214  50.5019531 156.8942261   6.2921963
  51.1828384 155.9782715   4.2907295  51.9236374 156.0386047   3.6068611
  49.9526176 155.2909393   3.9164648  49.2485733 155.5024719   4.7212481
  49.3888054 155.9277954   2.6284525  50.0403366 155.6345978   1.8052627
  48.4080009 155.4779510   2.4743011  49.1283989 157.4733124   2.6307750
  50.1002960 157.9176178   2.8455098  48.4940567 157.8432312   1.3327905
  47.5667763 157.2957458   1.1639309  48.3758812 158.9253693   1.2767535
  49.1441231 157.5510712   0.5080687  48.0991096 157.9002380   3.6537879
  48.4526749 157.6202850   4.6461201  47.9462700 158.9775696   3.5898645
  47.1848488 157.4115448   3.3170309  50.0052490 153.7748260   3.7299678
  49.1442413 153.0651245   4.2315898  51.1099968 153.3726196   3.0673769
  51.7472267 154.0717468   2.7134707  51.4492836 151.9402618   2.8654227
  51.2718735 151.3153229   3.7406778  50.6548462 151.3961639   1.6836616
  49.6030807 151.5988312   1.8856833  50.9610939 151.8174133   0.7261357
  50.7582664 149.8424835   1.5144632  51.7809792 149.5335083   1.2983903
  50.5693779 149.3784637   2.4825051  49.8061295 149.2377167   0.4846437
  48.5757141 149.3141937   0.6530371  50.3328857 148.7176208  -0.4888400
  52.9550018 151.8134308   2.6632936  53.5398750 152.6931305   2.1024704
  53.5433578 150.6913605   3.1354725  52.9472694 149.9730835   3.5212922
  54.9510536 150.3038788   2.9073339  55.3191490 150.9976654   2.1515076
  55.8841515 150.3929443   4.2158732  55.7723351 149.5103149   4.8456106
  57.3386307 150.2370453   3.7233198  57.6393967 151.1863708   3.2801216
  57.9993362 150.0497284   4.5697737  57.4337387 149.4617767   2.9630361
  55.6692581 151.6686859   5.0751328  55.9926300 152.5590057   4.5358114
  54.5999146 151.7499084   5.2700968  56.4895592 151.6788788   6.3751645
  57.5686722 151.6897583   6.2218513  56.3269386 152.6033936   6.9291811
  56.1872215 150.8403625   7.0025344  55.0561523 148.8929749   2.3204253
  54.7586937 147.9530334   3.0189941  55.4704475 148.7645874   1.0862600
  55.7891388 149.5808105   0.5839504  55.7075310 147.5328369   0.3020314
  55.1738815 146.6932983   0.7475649  55.1319275 147.7246399  -1.1285102
  54.0869370 148.0096436  -1.0065641  55.7076645 148.5258942  -1.5917711
  55.1266174 146.5244598  -2.1529117  56.1473236 146.1792908  -2.3175893
  54.5018921 145.7186584  -1.7675529  54.6304054 146.9840088  -3.5377700
  53.6313248 147.4034882  -3.4195800  55.2959862 147.7667542  -3.9016495
  54.5597649 145.8392792  -4.5056605  54.7168694 144.8731232  -4.2567964
  54.1175003 145.9935760  -5.7118325  53.9159584 147.1831055  -6.2670903
  54.1450539 148.0029297  -5.7234793  53.2366066 147.3213654  -7.0015721
  53.7657509 144.9860382  -6.4634666  53.7239990 144.0389252  -6.1151414
  53.3263245 145.2154083  -7.3434629  57.2137375 147.1697235   0.4194412
  58.0739555 148.0712433   0.6489310  57.5527077 145.9522705   0.0320269
  56.8628235 145.2657471  -0.2379038  58.9488945 145.5913239  -0.3183415
  59.5787926 146.4800720  -0.3563616  59.5160370 144.7002258   0.7691174
  58.9860458 143.7489929   0.8177804  61.0501022 144.4564362   0.6300836
  61.5515594 145.4211731   0.7069529  61.4047470 143.8015137   1.4259514
  61.2416878 143.9447632  -0.3130908  59.5389519 145.2885132   2.0466020
  59.1377449 144.6189270   2.6054223  59.0154800 144.8603973  -1.6680527
  58.4296265 143.7945251  -1.8199059  59.7273560 145.3850861  -2.6940448
  60.2413826 146.2362976  -2.5170810  60.0284767 144.7077942  -3.9535110
  59.1100388 144.3729095  -4.4356117  60.5773125 145.7915802  -4.9535608
  61.4274368 146.3347626  -4.5408516  60.8027687 145.2467346  -5.8703070
  59.5229492 146.8143158  -5.4428720  58.6503830 146.2183533  -5.7103949
  59.2021599 147.4771118  -4.6392026  59.7785301 147.6074677  -6.7799516
  59.8070526 148.8359375  -6.7237153  60.1393623 146.9302979  -7.8765044
  60.4235649 147.4801483  -8.6746216  60.2260246 145.9240570  -7.8847308
  60.9316101 143.5104065  -3.6367817  61.5299644 143.2413025  -2.5631220
  61.2879410 142.7127228  -4.6616068  60.9936523 142.9862823  -5.5882478
  61.9859505 141.4098816  -4.4950423  61.6161194 140.9499817  -3.5786226
  61.7308617 140.4732056  -5.6572452  61.9527168 140.8948517  -6.6375952
  62.4034309 139.6198425  -5.5703654  60.4682884 139.9101257  -5.6878462
  60.5192146 138.9532471  -5.6296806  63.5243988 141.5513306  -4.4186616
  64.2255554 140.7135620  -3.8569520  64.0713348 142.6971436  -4.8545055
  63.5032997 143.3934784  -5.3155580  65.4898453 143.0146942  -4.7031169
  66.0649490 142.1371460  -4.9985304  65.8370132 144.1512451  -5.6466351
  66.9245605 144.2240601  -5.6408105  65.5168533 143.8964844  -6.6569300
  65.3250885 145.5888977  -5.4001040  64.5318375 145.8393250  -4.4518089
  65.5212860 146.4790039  -6.2589059  65.9140854 143.3983154  -3.2920270
  67.0577316 143.2527618  -2.9022827  64.9459381 143.7351379  -2.4571829
  64.0353241 143.7936707  -2.8901575  64.9761429 143.9161682  -1.0053667
  64.1735001 143.2649841  -0.6592150  65.9238358 143.5302582  -0.6297957
  64.7683563 145.3108368  -0.4557770  64.6359329 145.5020447   0.7335997
  64.7208481 146.2966614  -1.3698524  64.6884613 146.0073700  -2.3369944
  64.5100708 147.7356567  -1.0292745  65.0566635 147.8294525  -0.0909009
  65.0986557 148.7232361  -2.0687673  65.3282242 149.6564026  -1.5543736
  66.4490204 148.2118683  -2.6253395  66.2765884 147.3062744  -3.2069452
  67.0244293 148.8534546  -3.2926977  67.1899567 147.9032288  -1.8878746
  64.1690140 149.0985565  -3.2806172  64.7778015 149.3748474  -4.1415124
  63.6272926 148.1918640  -3.5499637  63.2232018 150.1991882  -2.9236755
  63.7430382 151.0240631  -2.4363825  62.8227844 150.6713104  -3.8208232
  62.3789597 149.8359680  -2.3376555  62.9651184 148.0227814  -0.7856598
  62.1093483 147.3442078  -1.3568577  62.6357460 148.8916016   0.1902504
  63.4051170 149.3215332   0.6835359  61.2913475 149.2530212   0.4835494
  60.6921692 148.3713684   0.2560008  61.0032387 149.4854126   1.9879683
  61.6163292 150.3090210   2.3538609  59.9337158 149.6378784   2.1327767
  61.5575943 148.2446594   2.8149700  61.5303421 147.3578186   2.1818330
  62.6008110 148.4242401   3.0748758  60.6725006 148.0561218   4.1073098
  60.8999519 148.5153961   5.2023315  59.6025925 147.3144073   4.0004411
  59.0416031 147.1799927   4.8294964  59.3623009 146.7893219   3.1717951
  60.7898445 150.4101105  -0.3044286  61.4786110 151.3904266  -0.5830391
  59.5224533 150.3036957  -0.6317092  59.0473785 149.4657898  -0.3278759
  58.6591263 151.2863922  -1.3369414  59.2677040 152.1005707  -1.7304459
  58.0899658 150.6501770  -2.5935011  57.7942009 149.6430664  -2.2996511
  57.1719398 151.1976929  -2.8069110  59.0432930 150.6251984  -3.8152134
  60.0250740 150.2294769  -3.5552034  58.7641945 149.8219757  -4.4971509
  59.3143806 151.9572601  -4.5408807  59.1432648 153.0584869  -4.0375695
  59.8721542 151.8492737  -5.7626252  60.0976486 152.6940918  -6.2681432
  59.9684982 150.9251862  -6.1587071  57.5729790 151.7424622  -0.3489449
  57.0271530 150.9575500   0.4607031  57.2335243 153.0453491  -0.3746689
  57.7605476 153.7205811  -0.9098346  56.1734238 153.5629120   0.4951532
  55.4990845 152.7397614   0.7313373  56.9172783 154.1205292   1.7015114
  57.6760750 154.8675079   1.4683757  56.2633667 154.6785736   2.3716576
  57.3403702 153.2704468   2.2367349  55.3087654 154.5804596  -0.3188809
  55.8619347 155.4644775  -0.9957200  53.9782372 154.5435944   0.0032664
  53.6312675 153.8846130   0.6855074  53.0741539 155.6299286  -0.3902045
  53.4797554 156.1508636  -1.2575053  51.7546310 155.0980530  -0.7961715
  51.4335022 154.3837433  -0.0380505  51.1307602 155.9875488  -0.8837776
  51.7775116 154.3772278  -2.1737418  52.1901665 155.0092621  -2.9600952
  52.3799324 153.4723816  -2.0934973  50.2925110 153.9127197  -2.5028005
  50.0549660 153.1310730  -1.7811952  49.6220360 154.7663879  -2.4037895
  50.0882988 153.3387451  -3.9162641  49.0240288 153.2967682  -4.1479268
  50.4451218 154.1152802  -4.5928588  50.6288605 151.9519501  -4.0954633
  50.3175926 151.4035034  -3.3065321  50.2521629 151.4829102  -4.9067559
  51.6352310 151.9053802  -4.1672010  52.9387131 156.6357269   0.7713907
  52.7197266 156.1688385   1.8849126  53.1783829 157.9232483   0.5242397
  53.2891312 158.1457520  -0.4547041  53.4039612 158.9636688   1.5076140
  53.0597534 158.6024780   2.4767134  54.9576225 159.2734222   1.7420214
  55.1121750 159.9571533   2.5767176  55.6941910 157.9677277   2.2141917
  55.5134697 157.1186981   1.5549566  56.7761841 158.0563049   2.3118775
  55.2565689 157.6824493   3.1708519  55.7209778 159.8826294   0.5589799
  55.1865501 160.8003845   0.3136099  56.7519951 160.0863495   0.8481221
  55.7978439 159.3408203  -0.3836966  52.7009544 160.2569122   1.1012635
  52.6466141 160.5944061  -0.1260609  52.1983147 161.0523987   2.0641870
  52.2742500 160.6364594   2.9814284  51.6139717 162.3466797   1.8920321
  51.4491043 162.5310669   0.8304669  50.1566467 162.4664001   2.4890444
  49.6318207 161.5795288   2.1339293  50.1300125 162.5589600   3.5747836
  49.3999214 163.7496185   2.0447752  49.7770271 164.6625671   2.5056903
  49.5449600 163.8940887   0.9741712  47.9337463 163.6829529   2.3278859
  47.1831665 162.8033905   1.8963946  47.3434143 164.6405029   3.0621476
  46.3560524 164.6202393   3.2738357  47.8828316 165.3880615   3.4748058
  52.4788208 163.4492645   2.5511489  52.7488899 163.3190613   3.7430229
  52.7910652 164.4713593   1.7521266  52.2706184 164.5562134   0.8907148
  53.6827316 165.5732117   2.1240294  54.4987564 165.1255341   2.6913075
  54.4062347 166.2282410   0.8514366  53.6305618 166.3345795   0.0930620
  54.8538170 167.6581268   1.1035368  55.4954948 167.7317200   1.9815646
  55.3826141 168.0830078   0.2503346  54.0633392 168.4018250   1.2043850
  55.6405602 165.4818115   0.3116582  56.0417023 166.0027618  -0.5577180
  56.3827324 165.6663361   1.0883390  55.4994812 163.9925232   0.0170348
  54.7367477 163.8039703  -0.7384626  56.4411201 163.4864349  -0.1957844
  55.1448402 163.5695496   0.9569388  52.9952583 166.5819397   2.9515121
  52.1239624 167.3280792   2.5287979  53.4030151 166.6461639   4.2373066
  54.2663956 166.2494659   4.5798140  52.7512169 167.6409149   5.1302257
  51.6836166 167.6635437   4.9115314  53.0200729 167.1080933   6.5888457
  54.0997353 167.1791382   6.7206659  52.5299339 167.7863007   7.2873487
  52.4379959 165.6987457   6.8493032  52.9036674 164.9478302   6.2110267
  52.7361221 165.2714386   8.2937708  52.2344818 165.9879913   8.9441538
  52.4083290 164.2474518   8.4730005  53.7997780 165.1651459   8.5069323
  50.9211998 165.7362061   6.7153087  50.5940323 166.0362396   5.7197952
  50.5137100 164.7761383   7.0320501  50.4105034 166.4652557   7.3444090
  53.3308067 169.0475159   5.0421009  54.5185318 169.1681519   4.6990819
  52.5479736 170.0591431   5.3737330  51.1152573 170.0490723   5.5076599
  50.8047028 169.4813080   6.3847532  50.7040710 169.6382904   4.5855484
  50.6292000 171.4831085   5.5823350  50.5263138 171.8999329   6.5842190
  49.6545944 171.6261749   5.1156611  51.7388306 172.2263489   4.8503428
  51.6608696 173.2839661   5.1022768  51.6763153 172.0311279   3.7797904
  53.0036163 171.4588623   5.3682547  53.7611961 171.5917206   4.5959067
  53.4084511 172.0157013   6.7354751  52.9866219 171.4880219   7.7641196
  54.0776253 173.1697235   6.7844634  54.4160156 173.6612396   5.9695988
  54.1124687 174.0386047   7.9777408  54.0497284 173.4400330   8.8865128
  55.2888069 175.0419159   7.7427568  55.1091614 175.4735718   6.7581253
  55.2122154 175.8288269   8.4930868  56.6225929 174.2440643   7.8247576
  56.5611382 173.2812653   7.3174639  57.3857613 174.8377075   7.3215055
  56.9845047 173.9340210   9.2742987  57.3069191 174.9038544   9.9912939
  56.7681541 172.7709503   9.6991796  52.7580795 174.8823700   7.8792443
  52.5370979 175.6587219   6.9513845  51.9271851 174.8316498   8.9394236
  52.1472130 174.2625122   9.7442646  50.8341522 175.8319244   9.1953459
  50.3348961 176.0632782   8.2544336  49.8054886 175.2551422  10.1930370
  50.3772888 174.7742920  10.9867191  49.2248116 176.0677338  10.6296310
  48.9071960 174.1717529   9.5238314  48.4149399 174.5402222   8.6238251
  49.5516472 173.3304901   9.2687607  47.9509392 173.6502228  10.6410913
  47.6325836 172.6625519  10.3075514  48.4349442 173.4890289  11.6043444
  46.7771187 174.5761414  10.7834311  46.5358925 175.0659637   9.9337292
  45.8926010 174.7037811  11.7921362  45.8550415 174.0460205  12.8947010
  46.3458862 173.1812439  13.0717077  45.1975708 174.2884979  13.6220474
  44.8947144 175.6130676  11.8171892  44.9634132 176.3722992  11.1546459
  44.1628952 175.7116394  12.5062647  51.3841896 177.1603088   9.6764278
  51.4004288 177.4676056  10.8633766  51.8645782 177.9140472   8.7282124
  51.9413261 177.5941010   7.7733049  52.5781326 179.1732635   9.0562563
  53.2088699 178.9290924   9.9110365  53.5176506 179.6033478   7.9678779
  52.9399490 179.9052887   7.0942688  54.3413544 180.8698273   8.3999205
  54.9218063 180.7287903   9.3116713  54.9976120 181.1449432   7.5742464
  53.7197800 181.7037506   8.7259722  54.5301247 178.4609375   7.5852494
  54.0632782 177.8093109   6.8466520  55.4437370 178.8294830   7.1187787
  54.8770828 177.9747620   8.4970284  51.6360207 180.3906860   9.3586798
  51.0951843 181.0720215   8.5041227  51.3711739 180.6325378  10.6561308
  51.8004875 180.0252533  11.3395014  50.3858261 181.6392059  11.0711956
  49.5308609 181.5232239  10.4051008  49.8700294 181.3279114  12.4648886
  50.6827393 181.5557098  13.1546059  49.0451622 181.9909363  12.7258520
  49.4689560 179.8738403  12.7407598  50.2732353 179.1399078  12.6899357
  48.7679710 179.8787384  14.1251640  47.8330994 180.4380951  14.0900059
  48.5444412 178.8403931  14.3700275  49.4355888 180.4171295  14.7978563
  48.4570580 179.3979187  11.7049093  48.9667130 179.0757141  10.7968683
  48.0916786 178.5052948  12.2126722  47.7036934 180.1615753  11.5115509
  50.8903656 183.0566559  10.8188601  52.1166725 183.3727722  10.9906921
  49.9982109 184.0302429  10.4825096  48.6142120 183.8128662  10.0757294
  48.1227226 183.1173553  10.7560301  48.7104301 183.5391846   9.0250435
  47.9218254 185.1711884  10.1371489  47.5768738 185.4002838  11.1454277
  47.1517258 185.2529907   9.3700991  49.1343193 186.0660706   9.7585440
  48.9766464 187.0965881  10.0767612  49.3198891 186.0530090   8.6845360
  50.3391228 185.4570312  10.4587755  51.2393951 185.6104736   9.8637400
  50.5111504 185.9973602  11.9181061  50.2780724 185.2800446  12.8733082
  50.9200249 187.2819061  12.0068626  51.0456429 187.7834015  11.1391983
  51.2158699 188.0237122  13.2525997  52.0440216 187.5967102  13.8182297
  51.5865669 189.4654694  12.8735638  52.5788956 189.6297150  12.4535561
  50.8719826 189.9031982  12.1765203  51.5991020 190.3552704  13.9751978
  51.1886940 191.1962891  13.7611017  49.8971367 187.9988556  14.1134930
  48.7966843 188.1697540  13.6309137  50.0232887 187.6530609  15.4232292
  50.9067421 187.7289124  15.9068127  48.8536758 187.3418732  16.2048225
  48.3592186 186.4652252  15.7863665  49.2085991 187.1412048  17.6912327
  48.3398933 187.3393250  18.3190880  49.7753944 185.7150574  18.0507298
  50.4638596 185.4339294  17.2538109  50.2563782 185.6524811  19.0268631
  48.9582214 185.0000763  17.9551373  50.2290611 188.0748291  17.9708481
  49.8253288 188.8930511  18.2693710  47.8151131 188.5225220  16.2794743
  46.6149254 188.3170624  16.4057274  48.3237190 189.7444916  16.1166039
  49.3005333 189.8546143  15.8846350  47.5352859 190.9170074  16.3228874
  46.7387962 190.7610626  17.0504723  48.3789139 192.0908051  16.8508492
  49.2002449 192.1990967  16.1424809  47.8352356 193.0339203  16.7955017
  49.0266609 191.9667053  18.1829185  49.2486763 190.9113770  18.3414001
  49.9632530 192.5241241  18.1692486  48.1451759 192.3507690  19.7503719
  47.0793839 190.8690643  19.9899998  47.6457710 189.9430084  20.0887318
  46.5003166 191.0186310  20.9012661  46.3688202 190.7696228  19.1694393
  46.8347282 191.3456573  14.9793701  45.9470215 192.2351990  15.0070686
  47.2167435 190.8009949  13.7782984  47.9878540 190.1575470  13.6712885
  46.6757889 191.2181091  12.4222250  46.6774750 192.3080902  12.4160128
  47.5421219 190.8141479  11.2381477  47.2183609 191.4459839  10.4110622
  48.5874825 191.0503845  11.4369326  47.3958511 189.4425354  10.7141294
  47.9788246 189.1606750  10.0053978  45.1529503 190.8912201  12.1905651
  44.5194550 191.4862213  11.3247166  44.5522270 189.9988403  12.9676104
  45.1825294 189.5372467  13.6077223  43.1028481 189.7442474  13.1758823
  42.6161156 190.0004272  12.2348328  42.8530769 188.2696838  13.4765396
  43.6230469 188.0804138  14.2244854  41.8884621 188.0353088  13.9267435
  42.9206085 187.5888824  12.6279821  42.4049416 190.7313843  14.1728840
  41.2163734 190.6427460  14.4139490  43.2160759 191.6415253  14.7554302
  44.1907463 191.5672607  14.5012617  42.6539307 192.6150513  15.7566566
  41.5949440 192.6755676  15.5056934  42.6927032 192.0320892  17.2278404
  42.7508049 190.9481201  17.1292171  43.8067436 192.4948273  18.0795727
  43.7385521 193.5773315  18.1873779  43.6880531 192.0813599  19.0810986
  44.7365532 192.1842041  17.6030464  41.3517952 192.4113770  17.9542313
  40.4654770 192.0944366  17.4045944  41.1937523 191.9735718  18.9398556
  41.4356766 193.4636383  18.2259026  43.0820541 194.0738220  15.6276455
  42.1919098 194.9005737  15.8956099  44.3537560 194.4040985  15.2765436
  45.0564613 193.6804657  15.2248545  44.7859612 195.8149261  15.0537415
  44.3557892 196.4611206  15.8189058  46.3211250 195.8881683  15.3135595
  46.5625763 196.9503632  15.3528204  46.4513092 195.6024323  16.3573532
  47.2440224 195.1729584  14.2863007  47.4998245 194.2145081  14.7379932
  46.6833725 195.0511627  13.3595142  48.5681190 195.8227997  14.1265564
  49.0356865 196.4905090  15.0192890  49.3422089 195.4997864  13.1366148
  50.2828331 195.8572693  13.0498133  48.9724121 194.8144226  12.4934807
  44.3915634 196.4382324  13.7413769  45.1763077 197.1270599  13.0971060
  43.1600533 196.2241669  13.3381758  42.5752869 195.6375427  13.9161243
  42.5710793 196.8023071  12.1676340  43.3507271 196.7898102  11.4059944
  41.3730850 195.9434052  11.6201553  40.5208473 195.9283752  12.2995424
  41.0136375 196.4962769  10.7522659  41.7973099 194.4950256  11.1740065
  42.8005447 194.4243164  10.7537479  41.7908821 193.5335999  12.3664904
  40.9801674 193.7920227  13.0477095  41.6996841 192.5099792  12.0031910
  42.8149529 193.5290222  12.7397947  40.8010788 193.8189240  10.2351017
  40.7094345 194.2695770   9.2468634  41.0339890 192.7757721  10.0213337
  39.8106232 193.7861023  10.6889982  42.2389908 198.2997284  12.4172869
  41.0645027 198.6982727  12.3768873  43.2236061 199.1206665  12.7141943
  44.1757202 198.8153839  12.5714235  42.9959984 200.5707092  12.9334507
  42.2495918 200.8710632  12.1980839  42.4878960 200.8276978  14.3637009
  42.1001549 201.8407593  14.4709177  41.5872879 200.2167664  14.4250278
  43.5689087 200.4164276  15.5082846  44.3064156 199.7411652  15.0744629
  44.1589241 201.2788849  15.8183727  42.9573402 199.6853790  16.7286434
  42.9887199 198.4452209  16.8477345  42.3471298 200.4190826  17.5743790
  41.8683205 199.9011230  18.2972584  42.4156265 201.4245453  17.5075665
  44.2252998 201.3528290  12.4663219  45.2030296 200.8447723  11.9770298
  44.1850128 202.6770172  12.7028313  43.3887482 203.0229034  13.2189903
  45.2786102 203.5964661  12.3610153  45.5071068 203.3943329  11.3145790
  44.9278183 205.1072235  12.4846182  45.7543602 205.6742859  12.0563898
  44.0811844 205.4364014  11.8821697  44.7728996 205.4063873  13.8818531
  44.7482643 206.3517914  14.0468121  46.6669807 203.3263855  13.0210238
  47.7075615 203.7975922  12.4836245  46.8051414 202.5985565  14.1261454
  45.9489441 202.3269196  14.5879230  48.1094513 202.3347168  14.7788248
  48.7876320 203.1872406  14.7415113  47.8201866 201.9507294  16.2428532
  46.9718170 201.2692871  16.1795044  48.6289940 201.3113251  16.5965462
  47.6345329 203.1262054  17.3012714  48.4681015 203.8271790  17.3446732
  46.3855782 203.9611053  16.9904041  45.5026016 203.3249664  17.0518646
  46.1381264 204.7083435  17.7443981  46.4732933 204.4546967  16.0225334
  47.4974594 202.4668274  18.6596508  48.2572212 201.6954498  18.7854481
  47.5495377 203.1299286  19.5231915  46.5310249 201.9700928  18.7453976
  48.9554367 201.2504425  14.0668621  50.1076889 201.1059113  14.4492407
  48.4098282 200.5001373  13.0809088  47.4879112 200.7285004  12.7373638
  49.0769157 199.2442932  12.6876326  49.2709923 198.6317139  13.5680771
  48.1395340 198.4380341  11.7741728  48.5344353 197.4449768  11.5596991
  47.2318268 198.2645721  12.3521738  47.8412437 199.0728302  10.5309210
  46.8942375 199.1959991  10.4329052  50.4936676 199.4106293  12.0874767
  51.3849869 198.6355743  12.2114182  50.6150932 200.5648041  11.3475370
  49.7667770 201.0430145  11.0796490  51.9191284 201.1524658  10.8712292
  52.4953728 200.4430695  10.2772551  51.6733665 202.3080750   9.8327141
  52.6022949 202.5434265   9.3132830  50.9422684 201.9850159   9.0916138
  51.0983620 203.4837189  10.6051865  50.3151474 203.2020264  11.3089752
  51.9363556 203.9417267  11.1306505  50.5185013 204.5063629   9.6469812
  51.3064117 205.0647430   9.1414900  50.0341759 203.9112549   8.8727970
  49.5092430 205.3206329  10.3435411  48.7410698 204.8032837  10.7464800
  49.5338097 206.6162567  10.5736361  50.5772896 207.3148804  10.3222313
  51.4522095 206.8832092  10.0609255  50.4653931 208.3162384  10.3919849
  48.5673370 207.2544098  11.0570831  47.6599884 206.8364410  11.2058306
  48.7724838 208.1711273  11.4280882  52.9032211 201.6205750  11.9447021
  53.9384956 202.2418365  11.5591192  52.6767616 201.3702545  13.2328176
  51.8698730 200.8737030  13.5827665  53.6827621 201.6409607  14.2755146
  54.1561813 202.5960846  14.0480824  52.9916840 201.8428345  15.6191425
  52.2914124 201.0136108  15.7196684  53.7215195 201.7329407  16.4212399
  52.1480827 203.1934967  15.5846825  52.8021965 204.0156860  15.2944460
  51.3446236 203.2834015  14.8536053  51.6809425 203.6609955  16.9632378
  51.0294571 204.5252991  16.8342075  51.0951347 202.8462982  17.3889179
  52.7954178 203.9811554  17.8408222  53.6193199 204.2918091  17.3460579
  52.8929482 203.9893494  19.1615276  51.9527588 203.5205536  19.9235096
  51.0988312 203.3319855  19.4181843  52.0101967 203.4313660  20.9279232
  53.9176788 204.5830383  19.7150707  54.6686058 204.8787384  19.1078110
  53.9683151 204.5852509  20.7237988  54.8640823 200.5706329  14.2953587
  55.1757889 199.9836426  15.2974529  55.3967857 200.3067780  13.0814896
  55.2048912 201.0508881  12.4260750  56.2798958 199.1833649  12.5823336
  55.7686386 198.2489929  12.8140211  56.1736374 199.3122101  10.9767838
  55.1817818 199.6510773  10.6776438  56.8632202 200.1057434  10.6888771
  56.4098625 198.0944977  10.1348772  57.5008659 197.9331665   9.3322544
  57.2726517 196.7907562   8.6952343  57.9061661 196.3247528   7.9550319
  56.1498947 196.1814270   9.1094313  55.9122505 195.2432861   8.8204069
  55.6036301 197.0122833  10.0418215  54.6969604 196.8531494  10.6066446
  57.6746140 198.9417572  13.1554108  58.2448158 199.8101349  13.7784157
  58.2147141 197.7403412  12.8662977  57.7007408 197.1608124  12.2181721
  59.4324570 197.2363281  13.4632635  59.3374023 197.3268738  14.5453300
  59.5615196 195.7480927  13.0897379  60.4689636 195.3137665  13.5092678
  58.4601517 194.9145966  13.6900158  57.5003700 195.1258392  13.2185307
  58.7751045 193.8712769  13.6706362  58.3322716 195.0868835  14.7586908
  59.7465973 195.5896149  11.5356913  58.8885193 195.9899597  10.9957542
  60.6733170 196.0534363  11.1978264  59.8181114 194.1247711  11.1851187
  58.8082237 193.7340088  11.3097448  60.0046692 194.0675201  10.1127281
  60.5205879 193.5595245  11.7975883  60.7281799 197.9964905  13.1255054
  60.7505188 198.7369843  12.1212854  61.8467674 197.9210510  13.8829889
  62.5271530 198.5935211  13.5589867  62.5098305 196.9178619  14.7668753
  63.4073601 197.3146973  15.2412891  61.6672516 196.7182617  16.0316906
  60.7776909 196.1294708  15.8078365  62.2483330 196.0541992  16.6715965
  61.1932411 197.9856415  16.8701153  61.9346695 199.1981049  16.7900200
  62.7411194 199.2079163  16.0717278  61.7049980 200.2664185  17.5915909
  62.3224373 201.1506805  17.5345726  60.6484871 200.2029877  18.5149708
  60.5027924 201.0533142  19.1646805  59.9781380 199.0273438  18.7442493
  59.1831627 198.9146118  19.4665489  60.1475449 198.0077972  17.7961960
  59.5628777 197.1012573  17.8485584  63.1747704 195.7384644  13.9514055
  63.6260414 196.0427856  12.8698969  63.3040886 194.4852295  14.4812613
  62.3465652 193.7460938  15.2401857  61.3071594 193.9478455  14.9812813
  62.2342606 193.9119873  16.3116188  62.5271873 192.1870422  14.9913845
  61.9969902 191.8341370  14.1068211  62.2663078 191.5494232  15.8360720
  64.0766525 192.2096252  14.7735758  64.3469849 191.4855042  14.0050192
  64.5489349 191.9069977  15.7081699  64.5102692 193.6301880  14.4248705
  65.2116165 193.9511871  15.1950436  65.1889496 193.6446381  13.0082359
  64.5648727 193.3328094  11.9991083  66.5080185 193.8471375  12.7697039
  66.7254715 193.8862152  11.7841635  67.5503616 194.3455048  13.6793938
  68.4460220 194.4720154  13.0712109  67.8349915 193.2771301  14.7277994
  68.7458878 193.5100250  15.2792740  66.9453125 193.2325592  15.3559628
  67.9935684 191.9631958  14.2046852  68.8217010 192.0140076  13.7217512
  67.3194122 195.6484375  14.4164095  66.2001419 196.1520691  14.5006132
  68.3551102 196.1608734  15.1279697  69.2447052 195.7913055  14.8244047
  68.3272858 197.2912292  16.0736675  67.6392288 197.9992981  15.6118059
  67.6868210 196.7297211  17.3432388  67.0539856 195.8668365  17.1356945
  68.4570694 196.3742523  18.0276814  66.8950119 197.6953430  18.0185680
  65.9921036 197.7043304  17.6925564  69.5944214 198.0657654  16.4825954
  69.4834213 198.8485718  17.4211597  70.8269730 197.8869934  15.9314613
  71.5408707 198.4063110  16.4221363  71.4290314 197.1492157  14.8395329
  72.4426880 197.5495758  14.8217726  70.7250900 197.6323853  13.5299454
  69.8367767 197.0651855  13.2519321  70.4770660 198.6936951  13.5441360
  71.6490936 197.5016937  12.3281889  72.0867004 196.5033875  12.3291988
  70.9871445 197.4933014  11.4622488  72.7437363 198.6852722  12.2608099
  72.3318634 199.6323547  12.6093845  73.5848389 198.2942505  12.8333006
  73.2956924 198.9895782  10.8625784  72.5154343 199.3513947  10.1929636
  73.9685593 199.8398132  10.9742022  74.0057373 197.7646484  10.2577524
  73.4985809 196.8980408  10.3667955  74.1814575 197.8757782   9.2693834
  74.9506912 197.6169434  10.5823231  71.5781326 195.6566925  15.1833391
  70.8107834 194.8249512  14.6624193  72.5834808 195.2886810  16.0472126
  72.5138855 194.0269012  16.7560749  72.7076721 193.1875916  16.0881577
  71.5420227 193.9927063  17.2484341  73.5693359 193.9403229  17.8444195
  73.9741058 192.9535522  18.0692291  73.1558609 194.4412079  18.7197800
  74.6291504 194.8330994  17.1481304  75.2293167 195.3825684  17.8733788
  75.3520279 194.2497559  16.5778065  73.9411850 195.7952271  16.1982899
  74.4389191 195.7186127  15.2315960  74.1901627 197.2391052  16.6823654
  73.3906174 197.8036346  17.4281940  75.2991409 197.8249969  16.1476593
  75.7745209 197.1187439  15.6042261  76.1644211 199.0195160  16.4741802
  76.9681168 198.9505615  15.7410889  75.3828964 200.2903748  16.2320366
  74.8025894 200.0759888  15.3346043  74.6371536 200.4687805  17.0067329
  76.3353271 201.5274353  16.0688095  76.8299789 201.7846985  17.0054169
  77.1023636 201.3231659  15.3217993  75.5105362 202.7990875  15.5989122
  74.6485291 202.7949524  16.2660122  76.1780777 203.6600647  15.5642204
  75.0294113 202.6396790  14.1813974  75.7572327 201.9930573  13.6912489
  74.1062851 202.0629578  14.2391014  74.7994003 203.9125519  13.3722286
  75.6196060 204.4956512  13.4579992  74.4975967 203.7119598  12.4294767
  74.0526810 204.4251251  13.8191948  76.8358765 198.8526764  17.8700695
  77.9959030 199.1737366  18.0188370  76.1915207 198.1893311  18.8269901
  75.2501526 197.9397583  18.5593109  76.6294250 197.7884674  20.2344742
  77.2453003 198.5371857  20.7326908  75.3637085 197.8092499  21.1109982
  75.7948227 197.4688416  22.0524712  74.8441544 199.2367249  21.2301159
  74.5028152 199.6302032  20.2726364  74.0805283 199.3567047  21.9986038
  75.6486740 199.9062805  21.5343056  74.1899185 196.8675842  20.7756844
  74.5846252 195.8944702  20.4835510  73.4122925 196.7809753  21.5345650
  73.7276688 197.1758270  19.8379116  77.3711090 196.4983215  20.4147320
  77.9862518 196.3015900  21.4711285  77.3616867 195.5954742  19.3861408
  77.0005646 195.8335419  18.4734459  77.7737427 194.1823730  19.4764900
  77.7358551 193.7817535  18.4634972  79.3425522 194.0328522  19.7990055
  79.5910187 194.3560944  20.8098850  79.6344223 192.9857025  19.7190056
  80.3693771 194.5460968  18.8558254  81.2977066 195.4970398  19.1504021
  81.4738159 195.8238068  20.1646042  81.9868774 195.7399292  17.9514923
  82.7581253 196.3912659  17.9195080  81.6412888 194.9062500  16.9313374
  82.0959473 194.7690125  15.5878277  82.8909683 195.4117126  15.2395754
  81.5649719 193.7727203  14.7614670  81.9224777 193.7008057  13.7448950
  80.5109100 192.9822083  15.2531233  80.2410049 192.1861572  14.5750055
  80.1187820 193.1659851  16.6012897  79.3460770 192.5552216  17.0443344
  80.6258774 194.1392975  17.4758568  76.7994843 193.2551880  20.2462368
  75.5680237 193.4768372  20.1341171  77.3278275 192.3356628  21.0830650
  78.3312225 192.3259583  20.9680977  76.6947174 191.5376587  22.1506214
  77.6027603 191.1219635  22.5873871  75.8392258 190.3335419  21.6681309
  75.4865189 189.8600311  22.5843678  75.0224304 190.6398926  21.0146122
  76.6385498 189.3155670  20.8709908  75.9715729 188.6573944  20.3141766
  77.0884857 189.8525085  20.0359077  77.6513138 188.4518280  21.5479889
  78.2684708 188.7834320  22.5258083  77.9112091 187.2033386  21.1776333
  78.6877441 186.6786957  21.5542622  77.2852783 186.7489166  20.5281601
  76.0173264 192.3554993  23.2753334  75.5177689 193.4384308  23.0502396
  76.0335388 191.7514496  24.5055599  76.1851959 190.7529297  24.5136509
  75.9526443 192.2936401  25.8737659  75.5914154 191.5029907  26.5314064
  77.3503876 192.7069092  26.4418468  77.2197418 193.1705933  27.4196110
  77.9673843 191.8265228  26.6217060  78.1470261 193.7125549  25.6494522
  78.3860703 194.8366547  26.2176437  78.7029419 193.3960114  24.5577450
  75.0587769 193.4859924  26.0830650  75.3401413 194.5050659  25.5003281
  74.0927734 193.3946075  26.9553165  73.9539185 192.4798584  27.3603268
  73.2650681 194.4200592  27.6457672  72.4286880 193.8620605  28.0667248
  74.0004120 194.9939117  28.8974705  73.3595657 195.7206116  29.3967953
  74.1798325 194.2453918  29.6692276  75.3357391 195.7610931  28.6791592
  75.9836807 195.4636536  29.5036602  75.8441010 195.3278198  27.8178005
  75.3221283 197.3191071  28.5253334  74.3783875 197.6802521  28.9340286
  76.0706711 197.8070831  29.1495590  75.5258560 197.7679901  27.1260128
  74.7093430 197.9785461  26.5700703  76.6774368 198.1321869  26.5763798
  77.8474426 198.0123138  27.1743240  77.9501266 197.5973358  28.0893936
  78.7299423 198.0871582  26.6888428  76.6694336 198.5687866  25.3377991
  77.5757751 198.8974915  25.0368118  75.8630753 198.7285156  24.7509651
  72.5651932 195.4304199  26.7062759  72.2220154 195.0965118  25.5955830
  72.1252441 196.5271912  27.2985840  72.2311020 196.5548859  28.3026390
  71.3249893 197.6387482  26.8074417  71.2541962 198.2788239  27.6868744
  72.0790024 198.3768768  25.7019386  72.4894562 197.6935577  24.9584961
  71.3964081 199.0489502  25.1818581  73.0004044 198.8606262  26.0261459
  69.8822403 197.3393097  26.4126072  68.9385071 197.8338928  26.9360180
  69.6862488 196.4825134  25.4187660  70.4471588 196.0209656  24.9411774
  68.3381958 196.1481781  24.8490257  67.8420715 197.1017914  24.6685123
  68.4900055 195.5408478  23.4600925  67.5168610 195.3614807  23.0030155
  69.0014420 196.3292084  22.9077969  69.2932892 194.2008362  23.3378773
  68.8107300 193.0334625  23.9772835  67.9806976 193.0968628  24.6653500
  69.5645142 191.8829498  23.8036766  69.3359375 190.9892120  24.3652935
  70.6691895 191.8184662  22.8681259  71.1358414 190.8673401  22.6584015
  71.0943832 193.0109711  22.2776260  71.9582596 192.9609985  21.6313953
  70.4393387 194.2177124  22.5097542  70.7794647 195.1485443  22.0804958
  67.3028946 195.4074097  25.7292938  66.2103195 195.0930634  25.3372746
  67.6642532 195.2162018  27.0356083  68.6242447 195.3933868  27.2946911
  66.7425919 194.6599274  28.0868149  66.3854980 193.7351532  27.6336117
  67.4050598 194.3374176  29.4163246  67.3331604 195.2186737  30.0537605
  66.7712173 193.5412903  29.8068810  68.8647385 193.8604584  29.3995018
  68.9655914 193.0480652  30.1191845  69.0564728 193.4332428  28.4152126
  69.8879471 194.9014893  29.8443947  70.8785934 194.4475555  29.8699780
  69.8776779 195.7958221  29.2213650  69.7255936 195.3521118  31.2458267
  69.8209610 194.6486206  31.9642334  69.4030914 196.5595398  31.7667294
  69.1296692 197.6217651  31.1196232  69.0858002 197.5444946  30.1135387
  68.4690857 198.1976624  31.6216812  69.3949966 196.5989990  33.0589256
  69.4973602 195.7928619  33.6587181  69.1900787 197.4204407  33.6097031
  65.4955368 195.5662384  28.2044449  64.4039841 195.0503845  28.3544769
  65.6890182 196.8833466  28.2768478  66.6652298 197.1414337  28.2993622
  64.6393814 197.8284149  28.3313656  64.0995178 197.6491089  29.2611504
  65.2173538 199.2084503  28.4022312  65.9585114 199.3349762  27.6130753
  64.3900070 199.8983612  28.2360611  65.8696213 199.5704498  29.7242565
  65.1284943 199.3957825  30.5042114  66.6772842 198.8798370  29.9668274
  66.3975220 200.9906464  29.9143639  66.6256104 201.7111053  28.9503269
  66.6294937 201.4268188  31.1705360  66.9558334 202.3797607  31.2446918
  66.5214767 200.8061066  31.9599419  63.7590256 197.7500916  27.1233444
  62.4910812 197.7629700  27.1897640  64.3024750 197.4730072  25.9169502
  65.3122330 197.4507904  25.9168568  63.6677628 197.3807526  24.6277161
  62.9630356 198.1977234  24.4727497  64.6862946 197.7204437  23.5991039
  64.8947830 198.7879944  23.6695576  65.5673218 197.1076050  23.7897339
  64.2576294 197.3759766  22.1931152  63.7386780 198.1860352  21.2617130
  63.4943199 199.2064667  21.5175133  63.4495544 197.4524689  20.0696220
  63.0997887 197.8623047  19.2153397  63.9110718 196.1952972  20.1379452
  63.9120674 195.1518860  19.2136116  63.3775635 195.2775726  18.2836056
  64.4918976 193.9528351  19.5275364  64.5213013 193.1893158  18.7642670
  64.9217224 193.7324066  20.7912540  65.3611603 192.7639923  20.9795704
  64.9262314 194.7598877  21.7905941  65.3817749 194.5969696  22.7561684
  64.4597397 196.0694122  21.4821167  62.8629837 196.0780640  24.3378773
  61.8821640 196.1528168  23.6344757  63.2757149 194.9323578  24.9205456
  64.1911926 194.9097443  25.3465576  62.3877754 193.7700653  24.8246193
  62.1767921 193.5140533  23.7863293  63.0442581 192.5240326  25.4094944
  63.5837708 192.8522339  26.2979279  62.3393784 191.7702179  25.7601948
  63.8558540 191.8493500  24.4463005  65.1944809 191.9451294  24.2037926
  65.8981857 192.6591187  24.6055660  65.5077820 191.1880188  23.1069679
  66.4457855 191.1481171  22.7346077  64.4428177 190.6385956  22.4875050
  64.2024384 189.9730835  21.2751732  64.9220886 189.8938446  20.4737892
  62.8923531 189.5475464  20.9715424  62.6808624 189.1785126  19.9788265
  61.8806610 189.6957550  21.8786030  60.8788567 189.4685516  21.5451813
  62.0956039 190.3519135  23.1228428  61.2450218 190.5006256  23.7715340
  63.3764839 190.8960114  23.3848953  61.0575981 194.1163483  25.4392147
  60.0383835 193.8122711  24.8542862  60.9723244 194.8714142  26.5470257
  61.8427124 195.2716675  26.8669167  59.7101212 195.3069305  27.0454769
  59.0284882 194.4564209  27.0342655  59.7297058 195.8453369  28.5352211
  60.3266640 196.7476501  28.6678391  58.7147942 196.0608978  28.8692799
  60.3981590 194.8175964  29.5181732  59.9364815 193.8453522  29.3458633
  61.4770660 194.7363129  29.3860188  60.2641983 195.1532440  31.0034027
  59.3109741 195.8476715  31.4354458  61.0277824 194.5024261  31.8079224
  60.8175583 194.7098999  32.7737694  61.7624702 193.8787231  31.5057125
  59.0562859 196.3455200  26.1648998  57.8388824 196.2725983  26.1337776
  59.7263069 197.2264862  25.4644279  60.7229958 197.2085876  25.6268768
  59.2259026 198.2622070  24.5606937  58.4152985 198.8395844  25.0052910
  60.3584442 199.2408295  24.2935886  60.9624405 199.4082794  25.1853561
  61.0173454 198.6848602  23.6266174  59.8430367 200.5739746  23.6675510
  59.1956635 200.3021088  22.8338223  59.1405869 201.0580292  24.3460445
  61.0084534 201.4245300  23.0824394  61.7046814 201.7850189  23.8396835
  61.5680466 200.7018585  22.4885559  60.6054001 202.6668549  22.2146015
  61.3621063 202.7890320  21.4396362  59.6342850 202.5170135  21.7428188
  60.5051041 203.8770294  23.0500069  61.3919449 204.1502838  23.4486866
  60.2305565 204.6735535  22.4929848  59.8744316 203.8475037  23.8383522
  58.7071838 197.6362305  23.2557793  57.6457329 198.0361481  22.7981148
  59.3084831 196.5531616  22.6949997  60.1438065 196.1789093  23.1219234
  58.7781715 195.8183746  21.5015755  58.5434380 196.4659882  20.6568317
  59.8280716 194.7707520  21.0775185  60.7848892 195.1984558  20.7780666
  60.1287727 194.1819916  21.9441395  59.5092239 193.6843414  20.0400314
  59.3532944 194.1279602  18.7139053  59.3741264 195.1827698  18.4829407
  58.9234161 193.1949463  17.7743702  58.7436485 193.4660187  16.7445164
  58.5460167 191.8727112  18.1411667  58.0061264 191.0059204  17.2288361
  57.4035034 191.4626923  16.6373959  58.7085114 191.4210663  19.4717560
  58.3473244 190.4461060  19.7640114  59.2505646 192.3470612  20.3740177
  59.4111061 192.0399323  21.3969078  57.5152702 195.0325470  21.9323292
  56.5457382 195.1993103  21.1906147  57.5063477 194.3484650  23.0697556
  58.3777313 194.2509918  23.5710392  56.2696075 193.7828522  23.7170467
  55.8179703 193.0741425  23.0228939  56.7378654 192.9221649  24.9127197
  57.4281921 192.1592407  24.5528412  57.3427696 193.5538483  25.5632305
  55.6038437 192.2869568  25.7769756  54.8296318 193.0092926  26.0356865
  55.1213760 191.4583588  25.2585468  56.1482697 191.8693695  27.1473656
  56.7574387 190.8486786  27.3421936  55.8994408 192.6982880  28.1514435
  56.3336525 192.5686646  29.0540810  55.2504921 193.4577484  28.0024853
  55.2065277 194.8663177  24.0510159  54.0739479 194.6034698  23.6087074
  55.5882263 195.9773712  24.6703701  56.5426254 196.0125580  24.9989738
  54.6230431 197.0664368  25.0617313  53.8573952 196.5197601  25.6122074
  55.2782478 198.1338501  25.9410305  55.6733208 197.6697235  26.8446960
  56.0735435 198.5856934  25.3482094  54.3369408 199.2784424  26.3834267
  53.9113159 199.7311249  25.4878731  53.5156860 198.8826599  26.9809227
  55.0352402 200.3306427  27.2582836  55.4570885 199.8191986  28.1234798
  55.7686462 200.8997650  26.6870365  53.9206238 201.2858429  27.6892300
  53.5491867 201.8226929  26.8163471  53.1116791 200.7719727  28.2085094
  54.4902954 202.2732086  28.5998154  55.1979980 202.8225403  28.1334572
  53.6711388 202.7586212  28.9366646  54.9372597 201.9233856  29.4352474
  54.0276756 197.6609955  23.8028698  52.8750648 198.0259705  23.8587437
  54.7442665 197.7893677  22.6649323  55.6976585 197.4583282  22.7044029
  54.3194656 198.4753876  21.3919830  53.7063942 199.3276672  21.6850166
  55.6419106 199.0092926  20.7258987  56.0119667 199.7084045  21.4758320
  56.4038811 198.2450256  20.5728779  55.3024559 199.7966766  19.4204769
  54.8421173 199.0897827  18.7301960  54.6452637 200.5932007  19.7694244
  56.4963608 200.3901062  18.7286968  57.2595177 199.6118317  18.7279301
  56.2106972 200.6214752  17.7025566  57.0889854 201.6245575  19.3595867
  56.7362022 201.8568573  20.2770176  57.8798485 202.5217133  18.7204571
  58.3270569 202.1819458  17.5444298  58.1026192 201.3382568  17.0365639
  58.7287788 202.8875275  16.9437046  58.1392784 203.7215576  19.1606159
  57.8097725 203.9981995  20.0744019  58.8034821 204.2973480  18.6632290
  53.4530602 197.5840454  20.4693356  52.4607277 198.1158295  19.9153271
  53.9104118 196.3147125  20.3446102  54.7705536 196.0090179  20.7768154
  53.2237892 195.3159790  19.4760685  52.9789085 195.8245850  18.5436230
  54.2499619 194.2296906  19.0430546  55.0760193 194.7697754  18.5804310
  54.6183929 193.7135620  19.9296093  53.6892815 193.2921753  17.9909115
  52.8437614 192.7734985  18.4427757  53.3282013 193.7892151  17.0905342
  54.8453674 192.3499603  17.4918861  55.6558800 192.9716797  17.1115685
  55.2137909 192.0147705  18.4614296  54.4798660 191.1259460  16.6360626
  55.2907143 190.4024048  16.5517406  53.7093124 190.5321198  17.1276932
  53.8601189 191.6099548  15.3457537  54.5462608 192.1764984  14.8679190
  53.6857224 190.7843170  14.7907667  53.0000038 192.1224213  15.4787264
  51.9573059 194.7617340  20.0680599  50.9454346 194.8085175  19.3873863
  52.0520325 194.3021393  21.3294468  52.9116554 194.3775482  21.8542900
  50.9043388 193.6565552  21.9619179  50.2776527 193.2587891  21.1637115
  51.3149567 192.4486847  22.8770847  51.8567696 192.8616943  23.7279453
  50.4254761 191.9118958  23.2069092  52.2466202 191.5520935  22.0579681
  51.8167725 190.9542694  20.8617706  50.8467636 191.2443542  20.4858322
  52.7353630 190.1538849  20.1821136  52.4063187 189.6745911  19.2719479
  54.0423470 189.8531952  20.6674690  54.6675415 189.1608887  20.1231899
  54.4305038 190.4788513  21.8507366  55.4681320 190.3979492  22.1391621
  53.5594635 191.3263855  22.5213718  53.9054909 191.8436279  23.4040546
  50.0507050 194.6141815  22.7504234  49.2275276 194.1880798  23.4855309
  50.1263733 195.9058685  22.5603199  50.7849884 196.1745148  21.8432693
  49.2368813 196.9144592  23.1826344  49.3622856 196.8440704  24.2631073
  49.7312851 198.2839813  22.6700954  50.6075516 198.5035400  23.2800560
  50.0137253 198.2381134  21.6183224  48.7854919 199.4046021  22.8397713
  48.5970116 200.1603088  24.0086327  47.5754318 200.9826508  23.7541504
  47.1499557 201.7178497  24.4211292  47.0463943 200.7686462  22.4964275
  46.3658485 201.3555145  22.0354042  47.8041306 199.7465210  21.9189129
  47.6335106 199.2977295  20.9515095  47.7416496 196.6559143  22.8875771
  46.9221535 196.8068848  23.8672733  47.3784065 196.2578125  21.6641674
  48.1436996 196.1458893  21.0146236  46.0382156 195.9021759  21.1943855
  45.3156929 196.5854034  21.6407661  46.0053749 195.9806061  19.6818047
  46.8095169 195.3913879  19.2410316  45.0793076 195.5450592  19.3065643
  46.1132202 197.6833191  19.0288639  44.8855629 198.1828613  19.1968117
  45.5146980 194.5227203  21.6523228  44.4123077 194.0830383  21.3916264
  46.2485771 193.8689575  22.5388584  47.0270958 194.3979797  22.9051495
  45.7645721 192.7436981  23.3969555  45.4423027 191.8852844  22.8075733
  46.9839363 192.3592072  24.2921124  47.3133774 193.2208252  24.8727970
  46.7138062 191.6222382  25.0484257  47.7322197 191.9322815  23.6243591
  44.5208778 193.1985321  24.2386036  43.6249466 192.4055176  24.5099583
  44.4036331 194.4917297  24.5745163  44.9910431 195.1999512  24.1580124
  43.1831741 195.0421753  25.2328320  43.2845764 194.6932983  26.2605019
  43.1939697 196.5814972  25.2730064  42.2913437 196.8681641  25.8126221
  44.0920563 196.9486694  25.7697220  43.1305428 197.0406494  23.9282207
  43.1725121 197.9985657  23.9754467  41.8183708 194.5558472  24.7040577
  40.8947105 194.5732117  25.4920826  41.7252617 194.3571320  23.3860779
  42.5606499 194.4919281  22.8346615  40.4571304 194.0879059  22.7290325
  39.6371880 194.5676422  23.2635078  40.5284119 194.6273956  21.3336220
  41.1379509 193.9921722  20.6909332  39.5742531 194.5230255  20.8171101
  41.0335579 196.0214539  21.0725288  42.0862617 196.0266418  21.3551807
  40.8818970 196.4489746  19.6297836  39.8342094 196.3654480  19.3408642
  41.1591835 197.4941559  19.4926186  41.5147934 195.7433777  19.0915718
  40.1864662 197.0263519  21.8261871  40.4828758 196.8533630  22.8607464
  40.5345078 198.0312805  21.5872135  39.1139107 196.8695221  21.7115879
  40.0309372 192.5913391  22.8613567  38.8263321 192.2369843  22.9338665
  41.0262146 191.7257843  23.2008457  41.9737816 192.0559692  23.3157368
  40.8492012 190.3154449  23.6367397  39.8570976 189.9274597  23.4058857
  41.8763733 189.3068237  23.0278568  41.5659523 188.3009644  23.3106918
  41.9939270 189.3060150  21.5795479  42.3274727 190.2995300  21.2799473
  42.6305847 188.5312195  21.1524067  41.0057182 189.2369537  21.1248207
  43.1146431 189.4551544  23.6148090  43.7396851 188.8704529  23.1799984
  40.9072037 190.1892395  25.1783295  41.0864296 191.1788635  25.9236965
  40.6194801 188.9732361  25.6890278  40.5576897 188.1783295  25.0690136
  40.5198479 188.7169342  27.1224213  40.1932945 189.6607056  27.5592117
  39.3042564 187.8244934  27.4361153  39.1404037 187.7905426  28.5131950
  38.4050331 188.1613312  26.9203281  39.4898109 186.4440765  27.0963936
  38.5928421 186.1168213  27.1961212  41.8611946 188.3478394  27.8584747
  41.8244858 188.1952972  29.1113644  42.9116631 188.1976471  27.1195889
  42.7980614 188.3654938  26.1301327  44.2856827 187.8517456  27.5458794
  44.2179909 187.4453583  28.5550232  44.9612122 186.8453827  26.5246296
  45.0751419 187.2494354  25.5187168  45.9817543 186.7270508  26.8887577
  44.1558151 185.5552521  26.4873505  43.4235268 185.1346283  25.4444427
  43.3005142 185.6550598  24.5061398  42.7901382 183.9499054  25.7858429
  42.2334824 183.4052734  25.1427174  43.1042519 183.5276947  27.1121769
  42.8267632 182.3578033  27.8697586  42.1624146 181.5684052  27.5505638
  43.5540771 182.1302948  29.0344620  43.4078751 181.1613770  29.4885693
  44.4483528 183.1358185  29.5122185  44.9890060 182.9393311  30.4262695
  44.6714172 184.3449860  28.8182545  45.4382362 184.9655914  29.2578430
  44.0297546 184.5460358  27.5654736  45.1661682 189.1501617  27.5848732
  44.9616165 190.0845795  26.7379589  46.2821388 189.1367340  28.3645668
  46.5200920 188.1324158  29.3969555  46.6784668 187.1506805  28.9506149
  45.6853867 188.0411377  30.0919647  47.8190651 188.4960632  30.1292953
  48.7539673 188.1173553  29.7162170  47.6323853 188.2289581  31.1694412
  47.7274551 190.0042725  29.9942837  48.7319069 190.4048157  30.1312141
  47.0244904 190.3656464  30.7448502  47.2351799 190.1965027  28.5177155
  46.6388130 191.1017914  28.4040718  48.3370438 190.3561401  27.4526958
  48.6710625 189.3880005  26.7850819  49.0409508 191.5378113  27.4095554
  48.5761833 192.8249969  27.9553795  48.7629013 192.9202728  29.0250340
  47.5313339 193.0766449  27.7735386  49.3593941 193.9152222  27.3326988
  49.5920486 194.6207581  28.1303177  48.8119087 194.3636475  26.5036831
  50.5614510 193.2766876  26.6778717  51.3756027 193.2150116  27.3999882
  50.8979874 193.7627411  25.7621231  50.0645828 191.8223114  26.3526402
  49.6486893 191.7648926  25.3467388  51.1941872 190.7408600  26.2990322
  51.7612915 190.4542999  25.2514954  51.4958878 190.0904999  27.4186344
  51.1116447 190.5337677  28.2408161  52.5806732 189.1427002  27.5221443
  53.4029007 189.6226196  26.9913731  53.1306076 189.1021576  29.0011921
  53.8511505 188.2889557  29.0884552  53.7079582 190.0063782  29.1939335
  52.1608276 188.9718628  30.1745682  51.8173676 189.9636841  31.0769558
  52.1521339 190.9894257  31.0301514  50.9633560 189.4786530  31.9873352
  50.6555672 190.0465088  32.7637978  50.6860924 188.1206818  31.7604828
  49.8610115 187.2068329  32.4115868  49.2648621 187.5918121  33.2257118
  49.7143173 185.9147644  31.9359531  48.9376030 185.3078003  32.3772278
  50.5307579 185.4413300  30.8619480  50.4979057 184.4521027  30.4298000
  51.3533287 186.4310303  30.1707993  51.9523506 186.0961304  29.3368855
  51.4178238 187.7727814  30.6058960  52.3219566 187.7174072  26.9843884
  53.2941399 187.0025940  26.7703133  51.0291252 187.3049927  26.8579063
  50.2880020 187.9754333  27.0039749  50.6178894 185.9469910  26.4248466
  50.9735794 185.2264404  27.1613159  49.0748901 185.7829132  26.4135704
  48.6458931 185.9786835  27.3962879  48.6691246 186.5290070  25.7303505
  48.7042542 184.3500061  26.0375957  49.2414551 184.0857239  25.1267338
  48.9967194 183.3064117  27.1328068  48.3120880 183.4457855  27.9694424
  48.7391624 182.2898865  26.8354225  50.0199738 183.3308105  27.5075798
  47.2207527 184.1952972  25.6130047  46.9038696 185.0479584  25.0124607
  47.2088394 183.3536530  24.9204693  46.6053085 184.0670319  26.5034428
  51.2383995 185.7231903  25.0427113  51.9317551 184.8214264  24.7494164
  51.0470963 186.7023621  24.1764240  50.4832687 187.5064087  24.4124660
  51.5001984 186.5929413  22.7864685  51.1454582 185.6558075  22.3574619
  50.8651695 187.7674255  21.9958649  51.2818680 188.7315216  22.2873936
  51.1746445 187.5924530  20.9654732  49.3534470 187.7629700  22.0420856
  48.5981598 186.6669464  21.5129185  49.0434837 185.7820129  21.0827961
  47.1939697 186.5861206  21.7217331  46.6655045 185.7151794  21.3631535
  46.5574722 187.6037292  22.3922443  45.2453651 187.5056152  22.7022877
  44.7904968 186.8682861  22.1468544  47.3064919 188.7256012  22.8329144
  46.7911301 189.4922943  23.3923512  48.6519241 188.8248749  22.5983067
  49.1438293 189.6529083  23.0869522  53.0258331 186.5980530  22.6695957
  53.4835548 185.9228668  21.7564983  53.8135643 187.1867065  23.5683613
  53.3049927 187.6635132  24.2991924  55.3093300 186.9528961  23.6132278
  55.7208786 187.5006256  22.7654533  55.9912529 187.6374664  24.8033600
  55.6867218 187.2035217  25.7557545  57.0697021 187.5018463  24.7217560
  55.5997581 189.0573120  24.7200985  56.1547050 189.6445770  25.2385235
  55.7449265 185.4987183  23.6779995  56.8045311 185.1806793  23.1561794
  54.8285027 184.6631622  24.1813641  53.9378777 185.0562134  24.4504108
  54.8988571 183.2148438  24.2970753  55.9514503 182.9573059  24.4146576
  54.1697922 182.7166595  25.5909901  53.1200104 182.7367859  25.2983227
  54.4177475 181.6712646  25.7747593  54.4338684 183.4756165  26.8748245
  54.1978798 184.5149994  26.6466160  53.5288887 183.0313416  28.0269070
  53.6824493 181.9948730  28.3272762  53.6462631 183.7038422  28.8766594
  52.5447006 183.0618439  27.5594254  55.8798027 183.3431702  27.4183178
  56.4852867 183.9613800  26.7555065  56.0547180 183.6027679  28.4624043
  56.2062263 182.3061523  27.3398819  54.2783318 182.4541626  23.1475143
  54.2817955 181.2017822  23.1936436  53.7437248 183.1505280  22.1766682
  53.8560829 184.1532745  22.2211838  53.2829666 182.5146790  20.9361153
  53.7048225 181.5102692  20.9001560  51.7308998 182.4053955  21.0088253
  51.1702652 183.3163147  21.2185860  51.3867416 182.1178589  20.0153561
  51.2451096 181.2325439  21.8152943  50.8799629 181.4872131  23.1152134
  51.0077744 182.4889069  23.4981861  50.3002510 180.5010376  23.9194164
  50.0211601 180.6524811  24.9516811  49.9080009 179.2700348  23.3709087
  49.2821541 178.2678375  24.1136475  49.5100975 178.3869629  25.0385532
  50.4140015 178.8927002  22.0750465  50.1352348 177.9527130  21.6221485
  50.9918594 179.9228516  21.2717209  51.2067871 179.6833496  20.2407761
  53.9177399 183.2034302  19.6345291  53.7232323 182.6470642  18.5786800
  54.6812592 184.2974091  19.7895718  54.6988449 184.6496429  20.7359943
  55.3360863 185.0326385  18.7528439  54.7270546 185.1602631  17.8579197
  55.5075569 186.4668274  19.3344097  54.5363655 186.9616394  19.3412971
  55.8296890 186.3410339  20.3680973  56.5689278 187.1323547  18.4564323
  56.3982468 187.1032410  17.1898212  57.5261993 187.6396637  19.0820675
  56.5793915 184.3240509  18.2780247  57.4587708 183.9434814  19.0543842
  56.7027702 184.1925201  16.9037590  55.9629059 184.4446411  16.2641220
  57.8094444 183.3989105  16.3868446  57.8564186 182.4476929  16.9170113
  57.6991081 183.1257629  14.8762722  57.7329140 183.9673462  14.1844015
  58.4922943 182.4475555  14.5616236  56.8239975 182.4928284  14.7289667
  59.1733589 184.0691681  16.5793495  60.1740875 183.4569397  16.9299774
  59.2224808 185.4454346  16.4903278  58.3809319 185.9353790  16.2222786
  60.4523468 186.2247925  16.7005997  61.2516632 185.9099426  16.0297337
  60.1636009 187.6461334  16.3227673  59.3349380 188.0703735  16.8897247
  61.0065117 188.2223511  16.7043209  60.0063248 188.0087128  14.8183842
  58.9962234 187.7909393  14.4714336  60.0257950 189.0901947  14.6837912
  61.0238190 187.2824249  13.9171705  62.2733078 187.3941803  14.0624266
  60.5204430 186.4871979  13.0402603  60.9178925 186.1787415  18.1812649
  62.0989723 185.9830170  18.4761868  60.0068092 186.2484436  19.1944923
  59.0253716 186.4100800  19.0191288  60.4134102 186.1606598  20.6499252
  61.2613335 186.8213501  20.8305264  59.2957726 186.5756226  21.6076031
  58.4211159 185.9377899  21.4801579  59.6686668 186.5724030  23.1066761
  60.4233208 187.3279114  23.3252869  58.8613815 186.7490387  23.8174419
  60.0129166 185.5952454  23.4454327  58.8630486 187.8924561  21.2239323
  58.3348312 187.7458649  20.4358292  60.8054276 184.6972656  20.9641933
  61.7603493 184.3668823  21.5915642  60.0010872 183.7610016  20.4007359
  59.2790985 183.9978943  19.7353725  60.3206291 182.2996368  20.5541172
  60.3705330 181.9710236  21.5922012  59.2243500 181.4156799  19.9174557
  59.0903244 181.7769928  18.8978539  59.6030273 180.3957520  19.9841709
  57.8655090 181.4487610  20.6354561  57.5632553 182.4718781  20.8590546
  56.8168983 180.7702332  19.7087440  57.1029091 179.7540741  19.4372635
  55.8934631 180.7787323  20.2877922  56.5707512 181.3070374  18.7925701
  57.8927460 180.5060272  21.8824215  58.4235306 180.9982605  22.6973228
  56.8892097 180.2263947  22.2030773  58.4632187 179.5915375  21.7200260
  61.7369652 181.9327087  19.9930725  62.4343300 181.0932922  20.5768070
  62.1401939 182.4372101  18.8482418  61.4788055 183.0356293  18.3743477
  63.4986420 182.3132324  18.2568703  63.7048798 181.2476807  18.1559963
  63.6973495 183.0093689  16.9507427  63.2324028 183.9951477  16.9374294
  64.7603378 183.1558533  16.7591763  63.2022400 182.1053925  15.8505831
  63.8752899 181.2544861  15.7454128  62.2118607 181.7186584  16.0907574
  63.1019745 182.9759064  14.2816906  64.8849945 183.2160034  13.9478855
  65.4126358 182.2680359  13.8427038  65.0831833 183.7649384  13.0272961
  65.3313599 183.8512268  14.7129612  64.5462036 182.8706970  19.2540836
  65.5424194 182.2103271  19.4661980  64.3340302 184.1096649  19.7732315
  63.4457817 184.5866394  19.7131443  65.3487930 184.7010651  20.6434288
  66.2838821 184.6445618  20.0861912  65.0521698 186.1476135  20.8072701
  64.5433273 186.4901886  19.9062576  64.3307800 186.1972504  21.6228924
  66.2858887 187.0698700  21.1885757  65.9893799 188.0273438  21.6168461
  66.7822418 186.5368347  21.9995041  67.3148041 187.2297516  20.0496559
  66.9951859 186.9855804  18.8650169  68.4616318 187.6592560  20.3364754
  65.5471115 184.0458832  22.0185852  66.6441269 184.1099243  22.6069660
  64.4811630 183.4155731  22.5697613  63.5450859 183.5438690  22.2128277
  64.6749802 182.5916595  23.7579269  65.0921555 183.1069946  24.6230812
  63.3051186 182.1526642  24.2175980  62.7300491 181.7538605  23.3819199
  63.3572960 181.5221863  25.1052284  62.4574165 183.2820892  24.8139172
  62.9495277 183.8202057  25.6240768  62.3126831 184.0035706  24.0097942
  61.1287193 182.7039032  25.3310356  60.5349350 183.5329437  25.7160187
  60.5984344 182.3766632  24.4367104  61.2581635 181.6796875  26.3687592
  62.1430130 181.4745941  26.8104248  60.2185287 181.1826935  27.0497017
  59.0010605 181.2803955  26.6330318  58.9113083 181.7180939  25.7272358
  58.2232590 180.9835052  27.2048626  60.3724213 180.6670685  28.2103043
  61.2710762 180.8026428  28.6509113  59.5622330 180.4940033  28.7880116
  65.6031952 181.3857880  23.4826775  66.4172745 180.9721222  24.3142853
  65.4964371 180.7800598  22.2784348  64.6695023 180.9156494  21.7146111
  66.4054565 179.7276001  21.8664455  66.4949112 179.0048981  22.6774998
  65.7665558 178.9175110  20.6944485  65.6326828 179.5210266  19.7966957
  66.6526108 177.7304230  20.2783909  66.9280701 177.1144409  21.1344280
  66.0654907 177.1276398  19.5855465  67.5292206 178.0493164  19.7145023
  64.3549271 178.2500916  20.9605598  63.6293144 179.0489807  21.1134148
  64.0838547 177.7354431  20.0387344  64.4477844 177.6197662  21.8449669
  67.8917160 180.1782074  21.6231346  68.8499680 179.5496674  22.1106243
  68.0500107 181.3827209  21.0215855  67.2040253 181.8439178  20.7187481
  69.3598099 182.0775146  20.8947392  69.9663239 181.3340454  20.3775368
  69.2832489 183.3511963  20.1106205  68.4699783 183.9535065  20.5154743
  70.2438202 183.8457489  20.2549114  69.0454865 183.1431732  18.6281662
  69.6921387 182.3515625  18.2496357  67.9754562 182.9693909  18.5143852
  69.3866730 184.5400391  18.1019306  69.2523041 185.3488464  18.8201733
  70.4447556 184.5574799  17.8406506  68.5489731 184.8701630  16.8585720
  68.9013596 184.1743011  16.0971832  67.4725952 184.7633514  16.9931221
  68.8293457 186.2550354  16.3202820  69.7697754 186.6040802  16.4380856
  68.6195450 186.3454285  15.3364553  68.3164597 186.9649048  16.8234081
  70.0702896 182.3479462  22.2592468  71.2781143 182.1869965  22.3881531
  69.3928757 182.8197479  23.2695484  68.5922165 183.3763580  23.0064278
  69.9159698 182.9240570  24.6455269  70.8726883 183.4450378  24.6081638
  68.9351349 183.8359070  25.4648037  68.5233383 184.5581360  24.7598858
  68.1234055 183.1934509  25.8060665  69.6945419 184.5876160  26.5679951
  70.0268860 183.8267059  27.2741508  70.4777374 185.1605530  26.0715580
  68.7698441 185.5696564  27.3080559  69.3641586 185.9303436  28.1475773
  68.5543289 186.4194183  26.6603298  67.5386734 184.8623810  27.8531475
  67.7102737 183.9650879  28.2838516  66.3490677 185.3533783  27.9369354
  66.0696716 186.6285095  27.6866436  66.7926483 187.2919159  27.4473019
  65.1277008 186.9541931  27.8501225  65.3065796 184.5997620  28.3339748
  65.5241623 183.6636200  28.6444206  64.4014893 185.0457001  28.3794022
  70.3093109 181.6464233  25.3519058  71.0548248 181.6118469  26.3023796
  69.9680710 180.5194244  24.6912289  69.2249451 180.5028229  24.0074215
  70.5758438 179.2193146  24.9011822  71.0998230 179.1911011  25.8565636
  69.4948044 178.1130371  24.9368591  68.7466736 178.3567810  25.6911812
  69.0597610 177.9580383  23.9495296  70.0901947 176.7345428  25.3802853
  69.3392181 175.9502563  25.2852364  70.8878403 176.4668884  24.6873093
  70.6026001 176.6942291  26.8073215  69.8296890 176.6610260  27.7733002
  71.8575592 176.7191925  27.0779285  72.1148605 176.7035980  28.0544815
  72.5465393 176.5570374  26.3574295  71.7199554 178.9489594  23.8870811
  72.8011932 178.6579285  24.2983418  71.5152740 179.0074158  22.5683975
  70.5728531 179.1530151  22.2356148  72.5213852 178.5857849  21.5540333
  72.7002869 177.5189514  21.6879921  72.0752335 178.7889709  20.0467453
  71.8585281 179.8436890  19.8773155  72.8567429 178.5252838  19.3341370
  70.8338928 177.9798584  19.7798862  70.0498352 178.0832367  20.5299988
  70.2241516 178.3394623  18.4334755  70.8798523 178.2976990  17.5637531
  69.3691254 177.6959839  18.2261715  69.7279053 179.3099213  18.4277363
  71.0728073 176.4553070  19.6287022  71.4025574 175.9640808  20.5441628
  70.1360168 175.9531403  19.3871536  71.7494049 176.1850128  18.8179874
  73.8654022 179.3686523  21.7567692  74.8923721 178.7326508  21.5596027
  73.8167877 180.6927338  22.0804138  72.8913345 181.0902100  22.1555462
  75.0222321 181.5253143  22.3490162  75.6051788 181.4337769  21.4325562
  74.7011871 183.0067902  22.5084114  73.7428131 183.1003876  23.0191479
  75.4843369 183.4476929  23.1251659  74.5826340 183.7823029  21.2871914
  75.6617737 184.4646759  20.7599926  75.1711273 185.0831146  19.6284599
  75.7217636 185.8052063  19.0438404  73.8543015 184.7630463  19.4768696
  73.2897186 184.9970551  18.6727619  73.4779816 183.9454041  20.4986496
  72.4906006 183.6244507  20.7960949  75.9239807 180.9728851  23.4673004
  77.1719437 181.1555023  23.3510571  75.3752747 180.4235077  24.5465641
  74.3808212 180.2973785  24.6701221  76.1800079 179.7891846  25.5575428
  76.9379501 180.5239258  25.8291702  75.3909531 179.3057404  26.8096104
  74.5713882 178.6509094  26.5136032  76.0484085 178.8112946  27.5247211
  74.6559677 180.3469391  27.6567440  74.0809174 180.9383240  26.9442196
  73.9940720 179.8106995  28.3367710  75.5894470 181.1918945  28.5805721
  76.6259460 181.7362366  28.1206455  75.2234802 181.4976349  29.7207508
  76.8743210 178.5532990  24.9812355  78.0131683 178.2643890  25.3364124
  76.2395782 177.6917419  24.1940575  75.3065796 177.9141541  23.8775997
  76.9181519 176.5019531  23.5757141  77.5078278 176.0109253  24.3498402
  75.8444595 175.5027924  23.0657997  75.1983185 175.9853973  22.3325214
  76.3672791 174.7053223  22.5377731  74.9350204 174.8469543  24.1217346
  75.2509689 174.4843445  25.3926525  76.1827545 174.6511536  25.9126072
  74.1311493 173.8655548  25.9502811  74.1956177 173.3655090  26.8254356
  73.1455765 173.6545868  25.0455017  72.0084152 172.8555908  25.0971012
  71.6943665 172.2460022  25.9314709  71.2109146 172.7549133  23.9446144
  70.3553162 172.0959778  23.9575424  71.6235886 173.3725433  22.7158928
  70.9878693 173.2691193  21.8489647  72.8778000 174.0145569  22.7104301
  73.2235336 174.3495636  21.7436657  73.6184311 174.2790222  23.9003925
  77.8313217 176.8994141  22.4087143  78.5611496 176.0151520  21.9516811
  77.9185181 178.1952515  22.0258007  77.3221741 178.7977142  22.5749092
  78.7507477 178.7461243  20.9551601  79.6250992 178.0979919  20.8957977
  78.1703796 178.4977264  19.6047783  77.6198883 177.5575562  19.6384163
  77.5004883 179.3147583  19.3368320  79.2750092 178.4570618  18.5258865
  80.4158325 178.9337921  18.7357807  79.0108719 177.9086151  17.4382782
  79.2978058 180.1519318  21.1304264  78.9064484 181.0802002  20.4711208
  80.3091507 180.2761078  21.9825954  80.5339584 179.4431458  22.5077095
  81.0418167 181.4579468  22.5060673  80.2587280 182.0337677  22.9993267
  82.1011047 181.1311340  23.5913639  82.9176712 180.5145111  23.2157288
  82.5732117 182.0818024  23.8393002  81.5756531 180.5167389  24.8916588
  82.3336716 180.7384491  25.6428909  80.6057816 180.9329681  25.1640511
  81.4217606 178.9353638  24.8876743  80.9992905 178.3695679  23.8774338
  81.8238144 178.3595428  25.9261703  81.6365280 182.3307343  21.3581009
  82.1204224 183.4295654  21.5965939  81.6152039 181.8362885  20.1314430
  81.1081085 180.9673767  20.0423717  82.1181259 182.5294342  18.9681320
  82.2717209 183.5735321  19.2408199  83.4801483 181.9452362  18.5374603
  83.2416687 180.9055176  18.3133354  83.7910767 182.4229279  17.6083488
  84.4860153 181.9617310  19.6513081  84.5803223 180.9741669  20.3585300
  85.3494492 182.9595795  19.6916065  86.1461868 182.8572998  20.3038616
  85.3653793 183.7173157  19.0240135  81.0331879 182.6444244  17.8641510
  81.4118576 183.0144348  16.7205372  79.7654114 182.2314606  18.0221004
  79.5843658 181.7723236  18.9033051  78.7100754 182.4721680  17.0384636
  79.1878281 182.1194763  16.1244221  77.5701981 181.5851593  17.4156895
  77.9871292 180.5780487  17.4201469  77.2078552 181.8875732  18.3982143
  76.4469223 181.5446777  16.2640591  76.8927994 181.8072052  15.3047018
  75.7909317 180.1631012  16.1033573  75.0365601 179.9728088  16.8667774
  75.2182312 180.1809845  15.1761074  76.5834427 179.4147491  16.1065655
  75.3112640 182.4285583  16.6112633  75.5754700 183.4814453  16.5125923
  74.5222321 182.1620941  15.9080353  74.8729630 182.2911682  17.5997543
  78.3765564 183.9506073  16.8025169  78.0375443 184.7061157  17.7034664
  78.3041840 184.3424225  15.5207911  78.6696701 183.7140808  14.8195801
  77.6059494 185.5083313  14.9250956  77.4284363 186.2736053  15.6807156
  78.5077286 186.2274017  13.9171476  78.9176865 185.4454803  13.2779036
  77.8640823 186.8727264  13.3193283  79.5962372 187.0331726  14.6026230
  79.0702896 187.8108368  15.1564617  80.1007156 186.5039062  15.4110031
  80.5643539 187.6350250  13.6021767  81.2873154 188.2732697  14.1101885
  81.0972137 186.7837830  13.1784582  80.0423355 188.3524323  12.3367414
  80.9124451 188.6366882  11.7449503  79.5281448 187.5840607  11.7594099
  79.1591949 189.5056763  12.5730467  79.6197815 190.3810730  12.7771578
  78.5325623 189.6469421  11.7936411  78.5846329 189.3686676  13.3923178
  76.3117828 185.1181793  14.2584114  76.1997070 184.0101624  13.6896353
  75.3358231 185.9949493  14.2966843  75.4561691 186.8975677  14.7336054
  73.9597549 185.7950134  13.7618599  73.6274185 184.8521271  14.1961708
  72.9490509 186.7500458  14.4210243  73.4050674 187.7400513  14.4143534
  72.0195694 186.8265076  13.8568211  72.5544205 186.4239044  15.9185572
  73.2857742 185.6280518  16.5345116  71.4750290 186.9120178  16.3898621
  73.8464584 185.7012482  12.2579088  72.7039185 185.4764404  11.8229074
  74.9781418 185.8147736  11.5381355  75.8417358 186.0054474  12.0259476
  75.0345840 185.5800781  10.1032619  74.2280579 186.1024170   9.5886936
  76.3603592 186.1046143   9.4967871  77.0196915 185.2370300   9.5228043
  76.2214661 186.2779236   8.4296541  77.0673981 187.2939148  10.1541376
  77.4813690 187.0902557  11.1416845  77.9994736 187.5056763   9.6302271
  76.3057861 188.6499023  10.1187057  75.4635773 188.8587341   9.1997890
  76.4663467 189.4485474  11.0658083  74.8512192 184.0765533   9.6582470
  74.3915176 183.7715454   8.5643530  75.1730957 183.0934296  10.5409393
  75.6514359 183.2861481  11.4093609  75.1521835 181.6343994  10.2451372
  75.3501205 181.4269409   9.1935291  76.1947327 180.9149475  11.1009550
  76.4893951 179.9362183  10.7223167  77.1494980 181.4401703  11.0750132
  75.7818222 180.8182220  12.4403419  76.2086487 180.0913086  12.8996973
  73.7564545 180.9943085  10.5206041  73.4966965 179.9930115   9.8517542
  72.9803543 181.4501953  11.4467869  73.2791824 182.2446289  11.9941921
  71.6417236 180.9300385  11.6574707  71.5268097 179.8504639  11.5603762
  71.3146820 181.3015442  13.0955839  71.3864670 182.3884583  13.0557623
  70.2791595 181.0785065  13.3525848  72.2378006 180.7104645  14.1880035
  73.2629776 180.9986877  13.9555540  71.8517990 181.2268524  15.6439781
  70.8306503 180.8771362  15.7958136  72.5369568 180.8895721  16.4217434
  71.7454681 182.3115234  15.6610422  72.0546799 179.2037048  14.2683210
  72.2094193 178.8306274  13.2559147  72.8718948 178.8304291  14.8855162
  71.0970688 178.8752747  14.6723232  70.6109009 181.5557861  10.6486530
  70.7891617 182.7083130  10.2433414  69.5413666 180.8107300  10.2657528
  69.3949585 179.3763580  10.4139996  69.0687103 179.1565552  11.4305439
  70.3607330 178.9362335  10.1656637  68.3656311 179.0187225   9.3310156
  67.8516922 178.0926666   9.5886927  68.8565140 178.9465942   8.3604841
  67.4187088 180.2325592   9.3734846  66.7245560 180.2344055  10.2138729
  66.8516693 180.1829529   8.4439116  68.4451904 181.3566132   9.4786043
  68.7455597 181.6946564   8.4868374  67.7724762 182.6357422  10.1287146
  67.4234238 182.6172333  11.2996283  67.4969025 183.7055511   9.3641386
  67.8811569 183.8324738   8.4387531  66.4471207 184.7119904   9.7412291
  66.6775131 185.0805664  10.7408199  66.4698181 185.9389496   8.8327179
  65.5720978 186.5251160   9.0291662  67.6975632 186.7582397   9.2359505
  68.6618500 186.2638855   9.1181984  67.8290024 187.6595612   8.6372585
  67.6418762 187.1525574  10.2506018  66.5983200 185.6128082   7.4452410
  66.4519501 186.4523621   7.0032983  65.0131531 184.1824646   9.8139439
  64.1488876 184.6468506  10.5843277  64.6838303 183.0638123   9.1439991
  65.2913361 182.5813599   8.4972668  63.3403282 182.5295563   9.0176287
  62.6537170 183.3760681   9.0271902  63.2594910 181.9035339   7.5623417
  63.7732544 182.5132751   6.8191338  63.8227844 180.9760590   7.6651821
  61.8435555 181.7900391   7.0968518  61.1771393 182.7746735   7.0553093
  61.4431839 180.5381317   6.6887898  60.5449257 180.4773712   6.2310314
  62.0705414 179.7508850   6.6065226  63.0367966 181.5083160  10.1327801
  63.8980331 180.6243286  10.2774544  61.8665581 181.5166016  10.8630228
  60.7092743 182.4326935  10.6630859  60.4771309 182.5204315   9.6017122
  60.9797821 183.4196320  11.0384359  59.5394287 181.8293152  11.4533176
  58.8776703 181.1641846  10.8985529  58.9225998 182.6512604  11.8166828
  60.2340851 181.1102753  12.5915632  59.5518570 180.4034882  13.0639124
  60.4992867 181.7948303  13.3972654  61.5479774 180.5842285  11.9418697
  62.3533630 180.5839539  12.6763458  61.4117584 179.1185760  11.4730787
  61.9476547 178.2310486  12.1790924  60.9068069 178.8633270  10.2575178
  60.5662003 179.6029816   9.6600180  60.6654510 177.4403534   9.7674866
  60.0865021 176.9451447  10.5470381  59.8954391 177.4961548   8.4339476
  60.4992104 178.1148834   7.7700686  59.9146194 176.1568298   7.6733503
  59.4727745 175.4238739   8.3483782  59.4088631 176.0270691   6.7165480
  60.9556999 175.8985443   7.4795928  58.4759750 177.9568787   8.6923704
  57.8163795 177.3217163   8.1011047  58.2634506 177.8358002   9.7545729
  58.2227020 179.3628387   8.1171465  58.3747330 179.3864441   7.0380583
  57.1640167 179.6178894   8.1643305  58.7722244 180.1524811   8.6295710
  62.0014458 176.7286682   9.7227278  62.2021027 175.8166809  10.4628925
  62.9744339 177.3744812   9.0931063  62.7668991 178.1827087   8.5240688
  64.3022842 176.8148651   8.9958687  64.2374268 175.7797089   8.6606798
  65.1172638 177.5543823   7.9016390  65.2201157 178.5681000   8.2887897
  66.1343079 177.1758270   7.7995152  64.3503418 177.7837067   6.5667796
  63.5002098 178.6667633   6.4944906  64.8451462 177.1725464   5.5396419
  65.1396713 176.8335419  10.2866220  65.9017105 175.8785095  10.4947634
  64.9660950 177.8117065  11.1753931  64.4442139 178.6226654  10.8752508
  65.5045242 177.9197540  12.5316095  66.5835114 177.8468781  12.3953199
  65.2105560 179.3048859  13.1355095  65.4631805 180.0292053  12.3611441
  64.1400681 179.5091553  13.1561556  65.8310776 179.6593933  14.4727554
  65.3338547 179.0237732  15.6040812  64.4875107 178.3607025  15.5018702
  65.9025650 179.2661591  16.9006767  65.4974136 178.8196411  17.7967167
  67.0239639 180.1650391  17.0280056  67.5213394 180.3024750  17.9767532
  67.5521088 180.7197418  15.8409519  68.4817123 181.2599182  15.9431372
  67.0455399 180.3818665  14.5911760  67.5966415 180.7748871  13.7496176
  65.1260910 176.7697906  13.4359121  65.9428024 176.0783844  14.0530491
  63.8068352 176.4329071  13.4451199  63.0835342 176.9327087  12.9479961
  63.2967491 175.3619843  14.2641420  63.9076500 175.4978333  15.1565790
  61.8293419 175.5497894  14.6310234  61.6135864 174.7985535  15.3907623
  61.6887665 176.5771027  14.9671202  61.0179138 175.3582001  13.4475126
  61.1067390 176.1769104  12.9541349  63.6130905 174.0266418  13.6371355
  63.7746201 173.0723267  14.3678417  63.7405663 173.9631805  12.2883358
  63.3999977 174.7315216  11.7281866  64.2433701 172.7559357  11.6071196
  63.7112007 171.9204254  12.0618925  63.9291458 172.8062134  10.1342163
  64.2697678 173.7671661   9.7486887  64.6238556 172.0757751   9.7195740
  62.5307007 172.3992767   9.7163296  61.8480568 171.2827606  10.3360538
  62.3226242 170.6666870  11.0854807  60.6520767 170.8827515   9.8140011
  60.1134758 170.0324554  10.2055578  60.0720177 171.6046906   8.7564688
  58.7815323 171.2121277   8.2944117  58.4016190 171.8473511   7.6830540
  60.6751785 172.7626801   8.1831331  60.1280327 173.3113556   7.4308033
  61.9013290 173.1244507   8.7096357  62.4231224 173.9971161   8.3455162
  65.7442551 172.5617676  11.9421701  66.1134949 171.4123993  12.2715263
  66.6215515 173.5374908  12.0611877  66.2395096 174.4506531  11.8604965
  68.0079117 173.4167633  12.4859915  68.4644928 172.6205292  11.8980675
  68.6647720 174.7691345  12.3242455  68.5531464 175.1353149  11.3036842
  68.1780624 175.4878235  12.9835596  70.1149979 174.8134308  12.7145824
  70.4368057 175.8522034  12.6405115  70.2801971 174.4438171  13.7266092
  70.8884048 174.0146179  11.6868048  71.9305344 173.9134369  11.9898405
  70.4285736 173.0511932  11.4666004  70.9866562 174.8152466  10.4683914
  70.4997787 174.3762970   9.7000322  71.9873428 175.6488953  10.1096601
  72.9232101 176.0811005  11.0085278  72.9701996 175.8164215  11.9821005
  73.6928711 176.6005402  10.6111679  72.0952148 176.0394897   8.8831415
  71.6193771 175.4919891   8.1803446  72.7663879 176.7456360   8.6166868
  67.9901581 173.0098419  13.9859791  68.6450348 172.0603485  14.3893738
  67.2840347 173.6756592  14.8660221  66.7763672 174.4836273  14.5350237
  67.3069458 173.3165741  16.2915421  68.3163834 173.2996521  16.7024651
  66.4530869 174.2849426  17.1135330  65.5179901 174.4463348  16.5772018
  66.2740097 173.8401947  18.5690708  67.2609482 173.7107544  19.0132313
  65.6605988 174.6076660  19.0410995  65.7475891 172.8890228  18.6482582
  67.1714020 175.6651917  17.1740894  67.3884811 175.9827881  16.1542339
  66.5714417 176.4682312  17.6021881  68.1400070 175.5979919  17.6694546
  66.7557831 171.8695374  16.4714260  67.4268036 171.0579681  17.1471043
  65.6162949 171.4584961  15.8331337  65.1263809 172.1341248  15.2642794
  65.1166687 170.0769958  15.8134661  64.8597641 169.7172852  16.8098164
  63.8373833 170.0177765  14.9294624  64.0771408 170.5220184  13.9933119
  63.6046371 168.9642334  14.7746630  63.0055656 170.4992523  15.4436283
  66.1605453 169.0223846  15.3638544  66.2396622 167.9793549  15.9688492
  66.9992981 169.3040619  14.3424349  66.9024124 170.1821136  13.8527946
  68.0741882 168.4620361  13.8741255  67.6278229 167.5717621  13.4310913
  68.7724838 169.2223969  12.6846390  69.3618927 170.0998535  12.9506941
  69.4783630 168.5975342  12.1374874  67.9815216 169.4065704  11.9576139
  69.0507278 168.1712189  15.0076523  69.5588684 167.0235596  15.1221685
  69.5223846 169.1705322  15.7692165  68.9893341 170.0260773  15.7059307
  70.6955490 169.1716614  16.5957375  71.2716904 168.3175201  16.2399387
  71.5973740 170.3930511  16.2897835  72.5912933 170.2616272  16.7175102
  71.7460327 170.4526825  15.2116165  70.8513489 171.9229889  16.8351994
  69.9067764 171.9901733  15.8927736  70.4184036 168.8855438  18.0503349
  71.3470001 169.0391541  18.8150749  69.1109390 168.6228943  18.4244137
  68.4157333 168.6209869  17.6917553  68.6875153 168.3749542  19.8278484
  69.2260971 169.1226959  20.4100094  67.2134476 168.7004242  19.9475250
  66.7430725 168.5979004  18.9696007  66.7719269 168.0353851  20.6897354
  66.9397125 170.1466064  20.2981358  67.6130447 170.7921448  19.7342358
  65.4607086 170.5517426  20.1299782  64.7899323 169.8906860  20.6787586
  65.3729248 171.5193634  20.6240463  65.1534500 170.6961212  19.0941944
  67.3794479 170.4356384  21.7359524  68.4118271 170.2350922  22.0224476
  67.2428818 171.5115967  21.8444099  66.6604385 169.9942780  22.4261208
  68.9071732 166.9178619  20.3929596  68.4819412 165.9007568  19.7894707
  69.4671783 166.8137665  21.5834351  70.2074966 167.7943420  22.3594112
  69.5405807 168.3840637  22.9883308  70.6067047 168.4494019  21.5850563
  71.2785645 167.1154480  23.2018604  70.8749542 167.1084595  24.2143574
  72.1913376 167.6960602  23.0683193  71.2960434 165.6994781  22.6276550
  71.4926300 164.9227142  23.3666344  72.0671158 165.6550751  21.8585186
  69.9493332 165.4966736  21.9855614  70.1997604 164.8095398  21.1773396
  69.0045929 164.6980438  22.8961620  69.3069839 164.3691101  24.0777149
  67.8186188 164.4039459  22.3772068  67.7393646 164.5946350  21.3885422
  66.7136841 163.6817932  22.9958630  66.9894104 163.5000916  24.0346432
  65.4709473 164.5190277  22.9051094  64.6500168 163.8653717  23.1999149
  65.4655075 165.6784515  23.9213543  66.3469620 166.3021545  23.7726040
  64.4679947 166.1062622  23.8211174  65.6034088 165.2719574  24.9232750
  65.1686401 164.9690094  21.4529343  65.6475449 165.9324951  21.2784214
  65.5860443 164.2342529  20.7644596  63.6973991 165.1134796  21.1711884
  63.2672005 165.6455078  22.0197048  63.4612732 165.6667938  20.2622414
  63.2381821 164.1252441  21.1466579  66.5423203 162.3025208  22.4333839
  67.1918488 161.8530273  21.4840679  65.6632919 161.5651398  23.0977001
  65.2112885 162.0222778  23.8766880  65.2519531 160.1962280  22.7192440
  66.1770477 159.6644745  22.4967003  64.7041626 159.4857635  24.0405903
  64.5780182 158.4356384  23.7770996  65.5364609 159.4965210  24.7443409
  63.4483223 160.1018066  24.6395397  63.5648003 160.8851013  25.6160030
  62.3739967 159.7021332  24.1812477  64.2547379 160.1575928  21.5645275
  63.5416107 161.1545258  21.2780170  64.3296127 159.0242462  20.8325558
  64.8584213 158.2533264  21.2148438  63.6418533 158.8407135  19.5166874
  63.8822403 159.7636871  18.9890003  64.0035019 157.5801544  18.6771889
  63.8483925 156.7294464  19.3407822  63.4406204 157.6084442  17.7442036
  65.4658585 157.5402679  18.2621403  66.0485077 158.6383820  18.0404472
  66.1292038 156.4851074  18.2473927  62.0511627 158.9615173  19.6328659
  61.3708572 159.4176178  18.7350121  61.4647636 158.5564423  20.7660809
  61.8759041 158.1923676  21.6137371  60.0277557 158.6287842  20.8751965
  59.6180840 158.2379303  19.9438000  59.5429726 157.7659760  22.0433388
  60.0063972 158.0416565  22.9906178  58.4599953 157.8470612  22.1365395
  59.6694603 156.7015839  21.8454361  59.6324387 160.1425476  21.1068974
  58.4555664 160.4490356  20.8165607  60.5235901 161.0857697  21.5348778
  61.4104156 160.6679230  21.7778492  60.4304733 162.5642090  21.7131443
  59.3737946 162.8147583  21.8067036  61.1471252 162.9247437  22.9756279
  60.7632408 162.2564850  23.7464504  62.2189865 162.7344818  22.9206333
  60.9330521 164.3861847  23.3971996  61.2172432 165.0970459  22.6212997
  59.5343742 164.6627808  23.8741951  59.1866570 163.9398804  24.6121693
  59.4658775 165.6649780  24.2972851  58.9350014 164.6119080  22.9652023
  61.8677101 164.6567383  24.5846119  62.8897247 164.4809265  24.2489414
  61.7969284 165.7053528  24.8735695  61.5669670 164.0075836  25.4069614
  60.8125153 163.2768097  20.4125195  60.1229706 164.2425079  20.0907574
  61.6700249 162.7190094  19.5868664  62.2297859 161.9348450  19.8899174
  61.8456268 163.1609497  18.1625843  61.9540863 164.2399750  18.0528469
  63.1145287 162.4776764  17.6009979  63.2146111 161.4571991  17.9707584
  63.0635681 162.4860077  16.5122223  64.2876968 163.4100647  17.9697609
  64.2293854 164.3985291  17.5140820  64.1618423 163.6897583  19.0157223
  65.6949921 162.7910156  17.7730198  66.4352493 163.3924713  18.3006325
  65.6816406 161.7681580  18.1494160  66.1342163 162.8492584  16.3485661
  65.9392700 161.9702911  15.8908634  66.9196320 163.7992859  15.8289700
  67.3525772 164.8408051  16.5065060  67.1685333 164.9378052  17.4948502
  67.8400650 165.5998077  16.0522118  67.2022095 163.7244110  14.5731230
  66.8163071 163.0283203  13.9513283  67.9842911 164.2791901  14.2558365
  60.6368561 162.9016724  17.2639275  60.3682518 163.7992401  16.4362564
  59.8571968 161.8591461  17.5231915  60.2203331 161.2306213  18.2254639
  58.5256233 161.6922455  16.9527760  58.6896629 161.7364807  15.8760986
  57.9270859 160.2588654  17.1519947  58.0879211 159.9401550  18.1818790
  56.3729973 160.3165588  17.0724564  56.1081924 160.6661530  16.0745735
  55.9719315 159.3116760  17.2045994  55.8953018 160.9223328  17.8424854
  58.4430389 159.3191833  16.0476532  57.7771301 159.2303314  15.1892977
  59.2968330 159.7685394  15.5404987  58.8335114 157.9069061  16.5237465
  57.9606361 157.3379974  16.8439407  59.2631798 157.3567352  15.6866169
  59.6184082 157.9322815  17.2796555  57.6241417 162.8803864  17.3737030
  57.0786705 163.5695496  16.5260239  57.5226212 163.1355286  18.6931114
  58.0660744 162.5943909  19.3503304  56.6295624 164.1978455  19.2196999
  55.6420403 163.9027863  18.8649635  56.6421471 164.3932495  20.7582684
  57.6276512 164.7024536  21.1065083  55.9004669 165.1387939  21.0448990
  56.2206535 163.0432434  21.4764194  56.8421745 162.2336884  21.0937347
  56.3084908 163.1560211  22.5570049  54.7859421 162.5379028  21.1662922
  53.7876320 163.2350311  21.1522751  54.5815582 161.2416840  20.9594040
  53.6037483 160.9934998  20.9104538  55.3330536 160.5675049  20.9882126
  57.0399933 165.5935516  18.6505890  56.2189293 166.4759064  18.6813278
  58.3037148 165.7677765  18.2051315  58.9787941 165.0682068  18.4789696
  58.8307381 166.9290771  17.5481548  58.3816490 167.7649078  18.0846367
  60.2665291 167.0893860  17.8034687  60.4684296 166.8722534  18.8523674
  60.8233986 166.4206543  17.1471233  60.8782959 168.5435486  17.7646294
  60.7850571 168.8998108  16.7387180  60.2044373 169.6101379  18.6106968
  60.2597351 169.3641815  19.6711426  60.6636925 170.5850983  18.4475040
  59.1626205 169.6163635  18.2902451  62.3318024 168.3577423  18.0692921
  62.7739830 167.5567474  17.4768486  62.8390236 169.3176575  17.9724140
  62.4679222 168.1436920  19.1293678  58.5233765 167.0402679  16.0267982
  57.9466667 168.0403748  15.5513554  58.7720261 165.9493561  15.2911472
  59.2851028 165.1695709  15.6768847  58.4876938 165.8168488  13.8593559
  58.9493408 166.6671143  13.3573103  59.0071030 164.4659271  13.4006023
  60.0749702 164.3885040  13.6049776  58.5474167 163.6993256  14.0243816
  58.7198334 163.9567566  11.9495268  57.6464043 163.9320679  11.7618122
  59.3831139 164.7872009  10.9120770  60.4729538 164.7702942  10.9048100
  59.0996017 164.4304047   9.9219141  59.0602264 165.8282166  10.9225178
  59.1822205 162.5176544  11.7942028  58.5148392 161.8589783  12.3499346
  59.1533852 162.1880646  10.7556295  60.1841507 162.3846893  12.2023220
  56.9525299 165.9249268  13.5806732  56.5544930 166.4336090  12.5330639
  56.0964546 165.5016632  14.4661579  56.5115967 165.2265625  15.3448391
  54.5902405 165.5383301  14.4184170  54.2637482 165.0479584  13.5013342
  54.0365715 164.6957855  15.5636206  54.7995758 164.7053528  16.3419704
  53.1857300 165.2376251  15.9766579  53.6864738 163.2338409  15.2130461
  52.8750229 163.2117310  14.4856157  54.5220490 162.7765045  14.6831751
  53.1640816 162.4089966  16.4841251  53.9412308 161.7077637  16.7881527
  53.0671043 163.1770172  17.2514801  51.8151169 161.7171173  16.1126232
  51.0875435 162.3798828  15.6441250  51.9957047 160.9877625  15.3229961
  51.2676735 161.0347290  17.2679405  50.9890404 161.7171631  17.9584103
  50.4384270 160.5613403  16.9387531  51.9262962 160.3625946  17.6347466
  53.8440552 166.9045868  14.3212709  52.6308708 166.9472961  14.0632896
  54.5442009 167.9978027  14.5465975  55.5316200 167.8515015  14.7005482
  53.9736748 169.2861328  14.8807039  53.1055374 169.1442566  15.5243750
  55.1263428 169.9951630  15.6649504  56.0549545 169.9527130  15.0957565
  54.7339249 171.4516754  15.9445829  53.7177353 171.4415588  16.3387356
  55.3220215 171.9409027  16.7210560  54.8504181 172.0379486  15.0330811
  55.3945312 169.3883514  17.0330715  55.7914543 168.4113464  16.7574100
  56.0583305 170.0634308  17.5732117  54.1526604 169.1554718  17.9298477
  53.5790901 168.3448029  17.4804688  54.5747070 168.8515625  18.8877697
  53.5706100 170.0539856  18.1347713  53.5749817 170.1305542  13.6453495
  54.1497688 170.0845795  12.5970592  52.5499191 170.9844971  13.8059187
  52.1671181 171.0102692  14.7402115  51.9257812 171.8005371  12.7607460
  51.7928467 171.0962372  11.9395361  50.9753876 172.1395874  13.1729393
  52.7382088 172.9456177  12.3588734  53.0066490 173.1005707  11.1826458
  53.1893845 173.7727509  13.3176117  52.8912125 173.6290436  14.2718344
  53.9007950 174.9593353  13.0541983  54.0765495 174.9988251  11.9791870
  53.0111961 176.1630707  13.4008532  52.0496826 176.0582123  12.8982611
  52.8434715 176.2287598  14.4758663  53.6555824 177.3602448  13.0573559
  52.9951591 178.0417480  12.9124279  55.2399216 175.0471344  13.7481918
  55.3183746 174.7483673  14.9614210  56.1452980 175.8614349  13.1177092
  55.9343452 176.0696716  12.1521873  57.3151855 176.4010925  13.7182798
  57.9993515 175.5599976  13.8303471  57.9970932 177.3539886  12.7444849
  57.2810440 178.1120605  12.4271603  58.8371162 177.9236145  13.1419697
  58.2003021 176.7991028  11.8285637  57.0586395 176.9730072  15.1355610
  57.9104881 176.8258209  16.0408325  55.9596214 177.7302094  15.3012304
  55.3280449 177.8484650  14.5219831  55.5086784 178.2767487  16.6452084
  56.2897110 178.9485626  17.0012474  54.1494064 179.0715179  16.4624748
  53.4594040 178.4433746  15.8990583  53.4007607 179.2710724  17.8269024
  54.0283394 179.8251038  18.5249729  52.4662056 179.8293152  17.7715454
  53.2690430 178.2976379  18.2993259  54.3242950 180.4818726  15.8551054
  54.7186012 181.1614075  16.6106644  55.1214142 180.3128357  15.1311426
  52.9972076 180.9783630  15.1778688  52.2988167 181.4195709  15.8889799
  53.2205162 181.7517242  14.4429159  52.6105347 180.1418915  14.5957031
  55.4601364 177.1806030  17.7726631  56.0993004 177.3412170  18.7843113
  54.7400932 176.0572052  17.5759850  54.2243767 175.9500885  16.7142067
  54.6961746 174.8901825  18.5364380  54.3096085 175.0518799  19.5426788
  53.6994209 173.9497223  17.9058666  54.0611115 173.7171021  16.9042873
  53.6565056 173.0154572  18.4656906  52.2326431 174.4229126  17.9583931
  51.8820992 174.0656128  18.9266663  52.1753120 175.5112000  17.9373550
  51.3095245 173.9306335  16.8821487  51.6893425 173.3932648  15.8486958
  50.0127945 174.1012878  17.0297318  49.3348656 173.8355865  16.3297901
  49.7596359 174.6593170  17.8326073  56.0075302 174.1264191  18.6241703
  56.3019409 173.5662384  19.6261921  56.8357887 174.2181091  17.5894508
  56.5744247 174.6772766  16.7286625  58.0489731 173.5060120  17.5540123
  57.8941803 172.4951630  17.9312744  58.4259033 173.2956543  16.0633945
  57.5038338 172.8521423  15.6876535  58.6287498 174.2595825  15.5966949
  59.6769333 172.4207764  15.9204683  60.5198288 173.0513153  16.2034035
  59.5810471 171.6750946  16.7096939  59.6646271 171.6567993  14.5575447
  60.5007401 170.9624939  14.4742250  58.8155060 170.9838257  14.4383631
  59.8365936 172.6215820  13.4922123  60.5756149 173.2899017  13.6574135
  59.0850220 172.8031158  12.4192657  58.0418587 172.0734711  12.0261555
  57.6174355 171.3661346  12.6089354  57.6580811 172.2618866  11.1111069
  59.4622650 173.7939301  11.6631765  60.2536125 174.3145447  12.0136633
  58.8772659 174.0496063  10.8805437  59.0363007 174.2524414  18.4673843
  59.7297173 173.5625763  19.1936760  59.0819740 175.5802460  18.3830662
  58.4847794 176.0056458  17.6884480  59.7920761 176.4435730  19.3522739
  60.8270149 176.1161041  19.4511108  59.7132912 177.8459473  18.7980709
  58.6662865 178.0895996  18.6177502  60.2221680 178.4508972  19.5485363
  60.4117508 178.0285645  17.4312134  60.2358055 177.1811676  16.7685966
  59.8559608 179.2309265  16.7249641  60.0284271 180.0973206  17.3634987
  60.4286232 179.3660583  15.8074141  58.7972450 179.0591888  16.5307102
  61.9503975 178.1904144  17.4950161  62.2892342 177.2654877  17.9617023
  62.3228607 178.3187561  16.4786949  62.3209305 179.0703735  18.0208378
  59.3162956 176.4282379  20.8298607  60.0945969 176.2260437  21.7517662
  57.9819832 176.3163147  21.0789413  57.3349304 176.4808502  20.3210850
  57.4471207 175.9891357  22.4465389  57.8114586 176.7228394  23.1655865
  55.9183273 176.0336914  22.4372540  55.4596786 175.3959503  21.6815739
  55.5813828 175.6480103  23.3994503  55.3853989 177.4931793  22.2676392
  55.8237839 178.1557312  23.0139179  55.7207870 177.8942871  21.3112240
  53.8696136 177.5371094  22.3403378  53.5067711 178.5638733  22.3870678
  53.6351852 177.0819397  21.3780632  53.2599945 176.7415619  23.5082283
  53.2704735 175.7316132  23.5108089  52.8239326 177.2344055  24.6553326
  52.9804611 178.4878540  25.0387688  53.4751205 179.1508789  24.4592800
  52.3801193 178.8404846  25.7704334  52.3501282 176.3776855  25.5457535
  52.0825577 175.4468689  25.2592354  52.1380882 176.7002563  26.4790745
  57.9478111 174.6077728  22.8714199  58.6076622 174.5379333  23.9186707
  57.7326241 173.6019440  22.0358982  57.0106964 173.7611694  21.3477383
  58.1603203 172.2842560  22.5180378  57.6974106 172.1072998  23.4888630
  57.7429085 171.1902313  21.4978733  56.6868439 171.3098297  21.2559547
  58.3457375 171.3634491  20.6064167  58.1260185 169.5102539  22.0892620
  57.7800293 169.7399292  23.3590794  59.6902428 172.2506866  22.7221813
  60.0951653 171.8061829  23.8435249  60.4404068 172.8915405  21.8460560
  60.0807724 173.2219086  20.9619617  61.8644867 173.0148315  22.0562973
  62.2974472 172.0148163  22.0813980  62.5085602 173.8265381  20.8869267
  61.8674164 174.6572113  20.5919247  63.5177574 174.0783844  21.2128067
  62.6833534 172.8850861  19.6590443  63.4551926 172.1416931  19.8584290
  61.7856750 172.2808533  19.5279522  62.9413986 173.5876770  18.3103905
  62.7939568 174.8497009  18.1774883  63.3907204 172.8181152  17.4237709
  62.2017250 173.7295685  23.3687458  63.1604004 173.3563232  24.0488586
  61.5365372 174.8037109  23.6692753  60.7791710 175.0616150  23.0528526
  61.8497581 175.7120209  24.7968330  62.9138374 175.9355011  24.7200356
  61.0409393 177.0601044  24.6862640  60.0481377 176.7913361  24.3254204
  61.0128250 177.5470581  25.6610394  61.8720131 178.0484161  23.8060455
  62.2088470 177.4828186  22.9372826  60.9925613 179.1461029  23.3524895
  60.4926224 179.7131653  24.1377258  61.4983826 179.8827362  22.7282963
  60.2526474 178.6775360  22.7035980  63.0718651 178.6521912  24.5452881
  63.7446938 177.8932343  24.9445267  63.7145309 179.1948090  23.8519955
  62.6639824 179.2740631  25.3421707  61.5202217 175.0675812  26.1464787
  62.1570282 175.3840942  27.1478481  60.5797462 174.0888062  26.0680313
  60.1085930 173.9034882  25.1940899  60.2589264 173.1654510  27.1384411
  60.1892319 173.6854095  28.0938969  58.9111710 172.5192566  26.7790985
  58.3872185 173.1853180  26.0935822  59.1304169 171.6005707  26.2349739
  58.0313530 172.1098633  27.9277172  57.6114769 172.9760895  28.7783756
  57.7386131 170.8942719  28.1141129  61.4438744 172.1733856  27.3275909
  62.0410385 172.1473083  28.3695755  61.8046265 171.4449615  26.2914906
  61.2326546 171.4441681  25.4590549  62.9504128 170.4964905  26.2346649
  62.7331963 169.6773224  26.9201412  62.9973907 169.8230591  24.8281384
  62.9639130 170.6199188  24.0851803  64.3200684 169.1421204  24.6767082
  64.3780136 168.3277893  25.3989182  64.4071503 168.7596436  23.6597385
  65.1581421 169.8286896  24.7965183  61.8186607 168.8229218  24.6112556
  62.0098953 168.0363617  25.3412228  60.9120865 169.3860168  24.8329334
  61.7456856 168.2523499  23.1271343  62.6017418 167.6713409  22.7840748
  60.8718796 167.6295013  22.9357872  61.7129211 169.1499176  22.5095387
  64.2314835 171.1885529  26.7175064  64.9153442 170.5853882  27.5386238
  64.6441498 172.3711090  26.3212891  64.0442352 172.8579865  25.6707916
  65.8628235 173.0057220  26.8246899  66.6432571 172.2467194  26.7705994
  66.3752670 174.1913452  25.9243832  65.6791229 175.0291901  25.8855648
  67.2588501 174.6268005  26.3910332  66.7016296 173.8222351  24.4215336
  67.5481873 173.1429443  24.3214989  65.8106308 173.2566376  24.1488991
  66.9430847 175.3027649  23.3433113  67.7817688 174.4446564  22.0010395
  67.0051575 173.8687897  21.4976921  68.2779465 175.1915894  21.3813667
  68.4562836 173.7104492  22.4415722  65.7662201 173.5366364  28.2671070
  66.8149490 173.6819611  28.8883572  64.5981979 173.7931061  28.8148365
  63.7720718 173.9897461  28.2680740  64.4426651 174.0893402  30.2779465
  65.2550354 174.7452850  30.5908165  63.1086006 174.8340759  30.6320972
  62.1930466 174.3289795  30.3243065  63.0484200 174.8150482  31.7202702
  63.2139626 176.3699188  30.2983017  64.2104263 176.8998260  29.8466644
  62.1936340 177.0624237  30.5789528  62.2330666 178.0438232  30.3435822
  61.3941956 176.5632324  30.9420033  64.5566101 172.8264618  31.1233883
  65.2493591 172.8541260  32.1279182  63.8549690 171.7209015  30.6962948
  63.3020554 171.8463898  29.8604488  63.6081810 170.5410614  31.5363445
  63.6109581 170.8813782  32.5718536  62.2325974 169.9710236  31.0901527
  62.2760048 169.8744049  30.0053101  62.0368652 168.9715118  31.4784451
  61.1427536 170.9481659  31.5321941  61.0293121 170.9397888  32.6162415
  61.3194351 171.9736023  31.2075920  59.7935715 170.5983276  30.8312225
  59.6701355 171.0243073  29.8355293  59.7082291 169.5134583  30.7687912
  58.6539688 171.2059174  31.6785336  58.7589149 170.7064362  32.6416626
  58.8241348 172.2689056  31.8493576  57.3142319 170.9895782  31.0533466
  56.9215965 170.0806580  31.2528381  56.6329765 171.6186676  31.4536419
  57.3760071 171.2084045  30.0692768  64.6717987 169.4241028  31.3517056
  64.7586594 168.5315704  32.1892662  65.4425659 169.4278717  30.2925739
  65.3758469 170.2358093  29.6901703  66.7268677 168.7373047  30.1852684
  66.5807724 167.7197113  30.5475845  67.2156067 168.9184570  28.7375011
  66.4483795 168.4973145  28.0878086  67.4276810 169.9788818  28.6010838
  68.7891769 168.1597748  28.4462891  69.0579834 168.6169434  27.2200603
  67.8141022 169.2879944  31.1657085  67.9219513 170.4992828  31.3256836
  68.6832962 168.4151764  31.7812805  68.7168961 167.4197693  31.6135483
  69.7205658 168.7990265  32.7706375  70.1171799 169.7512817  32.4184952
  69.1144714 168.8922272  34.2332077  69.9437637 168.7940216  34.9337234
  68.3687439 170.2027435  34.5552216  67.4180069 170.1486359  34.0248795
  68.3832016 170.2657166  35.6433067  68.9323425 171.0682220  34.2067909
  68.2121201 167.8053589  34.4330292  68.3748856 167.4613342  35.3143616
  70.8910904 167.8082123  32.7914276  72.0753174 168.2090607  32.5606194
  70.6430893 166.5155182  32.9414024  69.6767120 166.2589722  33.0841980
  71.6204834 165.3875580  33.0920181  72.6321945 165.7875061  33.0243263
  71.5214081 164.8109894  34.5251465  72.0130920 165.4563904  35.2530212
  70.4953003 164.5571899  34.7912331  72.2476654 163.5448456  34.6078148
  71.8657684 163.1904602  35.4141502  71.4327850 164.3049774  31.9451122
  70.2740402 163.9848633  31.6805878  72.4868088 163.7014465  31.5196495
  73.3686371 164.1087646  31.7963734  72.5000305 162.6766968  30.4035187
  71.4726334 162.4071503  30.1587791  73.1076355 163.3321381  29.1378098
  74.1154175 163.6558075  29.3980064  73.3688049 162.6533813  28.3259029
  72.3530045 164.5095825  28.4887905  71.8622437 165.1739349  29.2000523
  73.3171921 165.3835144  27.6703529  73.9482346 164.8464508  26.9622326
  72.7825394 166.0501099  26.9936676  74.0167847 165.9309387  28.3020306
  71.3047180 164.0760040  27.4720383  70.6203156 163.4127655  28.0010071
  70.8247375 164.9556122  27.0430527  71.7815704 163.5834656  26.6246204
  73.0922852 161.3698883  30.7733059  74.2535706 161.2648468  31.1759529
  72.3009338 160.2990875  30.7383060  71.3457642 160.4967041  30.4761887
  72.6937866 158.9730835  31.3122940  73.7130356 159.0747070  31.6850033
  71.6530075 158.6585083  32.3612480  70.7243500 158.6039124  31.7931709
  71.8369827 157.6427917  32.7113876  71.6630325 159.8506927  33.7107468
  70.4952698 159.4805756  34.2439003  72.7023010 157.8732605  30.2393112
  72.2013931 158.0289307  29.1092758  73.3662186 156.7488556  30.5083370
  73.7672043 156.6843262  31.4330788  73.5366211 155.5953522  29.5070934
  73.6736832 156.0854645  28.5431976  74.8423538 154.8001251  29.8108253
  75.6540604 155.4780121  29.5468369  74.9061890 154.4747925  30.8491821
  74.9789276 153.3323517  28.7320538  74.2349243 152.5499573  29.5189533
  72.1968536 154.7566833  29.5250282  71.5243683 154.5825653  30.5447540
  71.7610092 154.2419586  28.3656712  72.3221970 154.4328156  27.5479050
  70.4143372 153.7176971  28.1512165  69.6927795 154.3270721  28.6953888
  70.1258316 153.6607513  26.5695572  70.0832443 154.6592560  26.1344833
  70.9755478 153.1078644  26.1690636  68.7465591 152.9581757  26.1644230
  69.0320816 151.9448547  26.4468021  67.9068832 153.3993225  26.7014847
  68.5208511 153.0922546  24.6143818  69.5267334 152.8950348  24.2436981
  67.8730011 152.2685547  24.3145256  68.0189972 154.4508209  24.1109562
  67.1438370 154.6770477  24.7200718  68.7769241 155.2069244  24.3157749
  67.6677475 154.4477234  22.6793537  67.0120697 153.6980133  22.5117035
  67.2021790 155.2909393  22.3754997  68.4513168 154.3327942  22.0525188
  70.2238083 152.3952789  28.8904648  69.3256149 152.2682343  29.7344837
  71.2080307 151.4834900  28.7218494  71.9432678 151.6899414  28.0608616
  71.2340851 150.1109924  29.3659649  70.3240509 149.6271667  29.0112000
  72.3791656 149.3372040  28.7808151  72.3585281 149.3846283  27.6920433
  73.3551559 149.7265625  29.0705471  72.4382477 147.8211517  29.2079506
  72.5913925 147.8767242  30.2857075  71.5037918 147.3080292  28.9808102
  73.4892883 146.9467621  28.4598598  74.2133331 147.3877869  27.5673275
  73.5439606 145.7388611  28.8507729  74.3316269 145.1643219  28.5869694
  72.9519958 145.3728027  29.5826664  71.2724228 150.1246948  30.9090614
  70.9389725 149.1715393  31.6196308  71.7660446 151.2338409  31.4918404
  72.2683411 151.8770294  30.8967724  71.6506958 151.5691071  32.9371490
  71.7219467 150.6132660  33.4561653  72.8889618 152.4993744  33.3093033
  72.6075287 153.4996185  32.9800606  73.0373154 152.5682373  34.3869667
  74.4332962 152.0440063  32.4688683  74.5067291 150.7514343  32.7986984
  70.3424911 152.2655029  33.3471794  69.8632050 152.1543884  34.5300331
  69.9619370 153.2355347  32.4744835  70.4346542 153.1889038  31.5831566
  69.0353165 154.4599915  32.6663017  69.0085220 155.0328217  31.7393398
  67.6062775 153.9970093  33.0824890  67.6664276 153.6843567  34.1249504
  66.9512253 154.8673248  33.0430374  67.0469055 152.9086304  32.1795387
  67.2151947 153.1112518  31.1218414  67.5049515 151.9526215  32.4331856
  65.5300293 152.7639160  32.3621559  64.7244492 153.5115356  31.8341255
  64.9854279 151.8607483  33.1307182  63.9869576 151.9333496  33.2644882
  65.5433731 151.2326660  33.6913490  69.5414276 155.4623718  33.6806183
  69.3359909 156.6557312  33.4651222  70.2569351 154.9860382  34.7012672
  70.3110046 153.9790802  34.7580147  70.5496597 155.8116302  35.8800621
  69.9566040 156.7251587  35.8367996  70.1410980 155.0253448  37.1647301
  70.2166061 155.7145691  38.0057869  69.1075363 154.6868744  37.0921021
  71.0121155 153.8275452  37.6369820  71.8774033 153.2941589  36.8970108
  70.9012527 153.4137115  38.8112869  71.9834061 156.3780823  36.0171356
  72.2713928 157.3110962  36.7875252  72.9801025 155.8345795  35.3236122
  72.8387299 155.0455017  34.7092171  74.3882904 156.2122040  35.4570160
  74.6532669 156.5207672  36.4682884  75.3153152 155.0556641  34.9878769
  75.0434418 154.7902832  33.9662361  76.7120361 155.5325623  35.0185738
  77.0966263 155.7121429  36.0225334  77.2626266 154.7133331  34.5561752
  76.8629532 156.4185791  34.4018936  75.3086166 153.8876495  35.8003578
  74.9524384 154.0777435  36.6713371  74.6039505 157.4252319  34.5146942
  74.4754715 157.4018707  33.2895164  75.0119095 158.5789032  35.1242065
  75.1020126 158.4801788  36.1253242  75.1998138 159.9010773  34.5012474
  74.4051514 160.0164337  33.7641525  75.0775375 161.0241241  35.5274353
  74.1052246 161.0932770  36.0152130  75.7151108 160.6965179  36.3485756
  75.5659409 162.4206390  35.0758362  76.5268707 162.2602081  34.5869789
  74.9064789 162.7787933  34.2853050  75.9454956 163.3445740  36.2548828
  76.4453125 162.9201355  37.2924080  75.7881927 164.5810699  36.1066780
  76.5083466 159.9298401  33.7419510  77.5437393 159.7487640  34.3231888
  76.4498138 160.2376709  32.4359055  75.5725632 160.5585785  32.0517883
  77.6708450 160.2806854  31.6054630  78.4826508 159.8202972  32.1685791
  77.4183502 159.3999329  30.3456860  76.3474197 159.4161377  30.1433144
  78.1161118 159.9483795  29.1402283  79.1651917 160.1829071  29.3206196
  78.0176010 159.3379822  28.2425575  77.5982666 160.8689575  28.8710194
  77.8473816 157.9761810  30.5052338  77.6014023 157.3873596  29.6215572
  78.9301376 157.9762268  30.6306839  77.2306900 157.1531982  31.6815434
  76.1526184 157.0231628  31.5869160  77.7456360 156.1925049  31.6857014
  77.3935699 157.6863556  32.6181870  78.0797119 161.7400360  31.4011574
  79.2847748 162.0305939  31.5161877  77.1269913 162.6073151  31.1665783
  76.1982727 162.2733154  30.9520359  77.3785248 164.1306915  31.0993195
  78.1262131 164.3558502  31.8598289  77.9509048 164.4825439  29.6562481
  78.8713531 163.9367371  29.4489708  76.9939423 164.1975708  28.4837036
  76.3152924 165.0336304  28.3148060  77.6521530 164.0447235  27.6284275
  76.3961411 163.2994232  28.6387959  78.3103485 165.8463440  29.4944096
  79.1952744 166.0025787  29.8321838  76.1750870 165.0780945  31.3868389
  75.0108643 164.7257385  31.5579739  76.4316788 166.3947144  31.4592743
  77.2831650 166.7014313  31.0109520  75.5577698 167.4880981  31.9324169
  74.5626678 167.0545959  31.8326397  75.8237991 167.9255371  33.3569031
  75.6408920 167.1094818  34.0559731  77.1462097 168.5592194  33.6716690
  77.1642685 169.4909668  33.1063271  77.2134628 168.6665649  34.7542839
  77.9455719 167.8829041  33.3688354  74.8681488 168.9412842  33.7113876
  74.0978317 168.4145508  33.9366760  75.5122070 168.6670532  30.9528503
  76.4884567 168.9947052  30.2390385  74.3357315 169.2464752  30.8827629
  73.6271210 168.7935638  31.4420910  73.9564133 170.3402405  29.9834290
  73.8799515 169.9228668  28.9794140  72.5327606 170.8910522  30.3717957
  71.7961197 170.0887146  30.3304329  72.5464172 171.2432098  31.4032536
  72.1181717 172.0554810  29.5036545  72.8224792 172.8605804  29.7131252
  72.1461716 171.7671967  28.4528389  70.7133179 172.5084229  29.7316494
  70.0755005 171.7128143  29.3465652  70.6020660 172.5277863  30.8157845
  70.4634247 173.9202881  29.0839806  71.3717728 174.4799805  29.3070393
  70.3702698 173.8240509  28.0022411  69.3084488 174.6398010  29.6945267
  69.4274673 174.8994904  30.6632862  69.1608963 175.5025024  29.1904640
  68.4426422 174.1286621  29.5985641  75.0157700 171.5090485  29.8680630
  75.2602463 172.0070953  28.7349873  75.7413025 171.8439026  30.9261398
  75.3336029 171.4358978  31.7552452  76.7787933 172.8832245  30.9361382
  76.2973251 173.7340698  30.4541073  77.1181335 173.3014374  32.3083725
  77.4897995 172.4341736  32.8541107  77.8948212 174.0658112  32.2844963
  75.9642334 173.9304657  33.0751343  75.5049438 175.0349884  32.7947540
  75.4910431 173.2469025  34.0671158  74.7042618 173.6685791  34.5396233
  75.7484207 172.2918549  34.2714043  78.0892944 172.4858398  30.1407566
  78.7969666 173.3235779  29.5971317  78.3092346 171.1923981  29.9408951
  77.6560516 170.5270538  30.3291988  79.4135132 170.6409302  29.1401424
  80.2529297 171.3294220  29.2374268  79.8671265 169.2090149  29.5442924
  79.1550446 168.5180054  29.0931377  80.8109970 169.0253448  29.0309830
  80.0545959 169.0000763  30.9975090  79.0694351 169.0243835  31.4633121
  80.4637222 167.9998169  31.1396351  81.0265884 169.9846802  31.6519432
  81.9147186 170.6182556  31.0665226  80.9601517 170.1557159  32.9074364
  79.0667496 170.5184326  27.6595860  79.8813705 170.1237946  26.8308887
  77.8676758 170.8478851  27.2622452  77.1383972 171.1933136  27.8696537
  77.4267197 170.7456360  25.8502789  77.9081268 169.8497925  25.4581165
  75.8974457 170.5799713  25.7009392  75.4260025 171.4301758  26.1938763
  75.5092926 170.6731110  24.2267857  76.1030273 169.9944305  23.6144524
  74.4544449 170.4946136  24.0181236  75.6615295 171.7076416  23.9191189
  75.4243851 169.2350311  26.3538971  75.9508514 168.4166870  25.8627262
  75.6331406 169.3322144  27.4192963  73.9372711 169.0413666  26.1967411
  73.7285156 168.8151703  25.1511059  73.6109161 168.1378937  26.7118282
  73.3239899 169.8581238  26.5773964  78.0039978 171.9234619  25.0295010
  77.7977524 173.0765381  25.4008636  78.6571579 171.7075500  23.9183044
  78.6148758 170.7351227  23.6486988  79.2086716 172.7387085  23.0226517
  78.5940323 173.6192932  23.2094669  80.6242371 173.0673676  23.4237232
  80.8248978 174.1320496  23.3041553  80.7714386 172.7790833  24.4645500
  81.6817398 172.2596436  22.7586823  81.8557663 170.9397736  23.0294075
  81.2405777 170.3808746  23.7190266  82.7797699 170.1149445  22.2671204
  82.8859558 169.0653076  22.4981937  83.5523148 170.7122955  21.3335419
  84.3345184 170.2272644  20.7684822  83.4128342 172.0925751  21.0394382
  84.1174545 172.6425476  20.4332657  82.4689331 172.8147583  21.7675285
  82.3431549 173.8718109  21.5853386  78.9635773 172.4010773  21.5318508
  78.6028137 171.3109894  21.1874027  79.0644913 173.5058289  20.7430992
  79.2133484 174.3605957  21.2601299  78.8798981 173.4075623  19.2689857
  78.4213409 172.4520264  19.0144615  77.9681091 174.4297638  18.8536015
  78.4472733 175.3809052  19.0855923  77.8641129 174.3041534  17.7758675
  76.6368027 174.3061371  19.3776169  76.2230148 175.1699982  19.4418983
  80.2621078 173.4144440  18.4973869  80.7418137 174.4447479  18.0714092
  80.8839035 172.2370453  18.3726654  80.3678284 171.4206085  18.6679211
  82.0134277 172.1233063  17.4202347  82.7620239 172.8858490  17.6352520
  82.6517181 170.7814026  17.7200165  82.7177811 170.6375580  18.7984619
  81.9650192 170.0641174  17.2705135  84.0157471 170.4597473  17.1096706
  83.9345398 170.2732849  16.0388126  85.1159515 171.5287170  17.2782955
  85.3689575 171.5661316  18.3378677  85.9577332 171.2460175  16.6461639
  84.7475891 172.5050964  16.9635124  84.5112381 169.1129913  17.6442204
  83.9086304 168.2825928  17.2762566  85.5241470 168.9745178  17.2661419
  84.5441284 169.1112823  18.7337227  81.6129837 172.2130432  15.9374886
  82.4547729 172.3791656  15.0660458  80.3040009 172.3252869  15.6309910
  79.6031113 172.3359528  16.3581429  79.8186111 172.3755493  14.2814379
  80.6274033 172.4459076  13.5541105  79.0619354 171.0420227  14.0520582
  79.6637115 170.1348877  14.1074295  78.2319489 170.9374237  14.7508249
  78.5300217 170.9918060  12.7638941  78.2618484 170.0957489  12.5476599
  78.8893280 173.5724182  14.0528097  78.1480713 173.9409332  14.9380808
  78.8772202 174.1325684  12.8189278  79.4518280 173.7461243  12.0836792
  77.8424377 174.9419098  12.2404823  77.8352203 175.9170685  12.7274466
  78.0599365 175.3831940  10.7616901  78.2355042 174.5333099  10.1021643
  77.0948486 175.7283020  10.3907080  79.0920792 176.4606171  10.4140959
  80.0495682 176.1170807  10.8056393  79.2361221 176.6701660   8.8573322
  78.2656250 176.8432312   8.3922882  80.0335541 177.3792419   8.6350470
  79.5970078 175.7507935   8.3962240  78.7682571 177.8420258  11.0675726
  78.6928329 177.7649994  12.1522274  79.5023651 178.6108856  10.8266649
  77.8167267 178.1956177  10.6705008  76.3704910 174.4375153  12.3843908
  75.4332504 175.2459412  12.5473166  76.1856689 173.1313477  12.5331488
  76.9917755 172.5317688  12.4292383  74.8750000 172.5271759  12.9364758
  74.1593628 173.0159760  12.2753897  74.8141022 171.0469208  12.6266756
  75.4960480 170.5659790  13.3279171  73.8678970 170.6351013  12.9776621
  75.2467728 170.7153473  10.8772163  75.4559021 169.3995361  10.9760504
  74.2913208 172.8451538  14.2765942  73.1019669 172.6555023  14.4815674
  75.1376266 173.2214050  15.2365875  76.1064224 173.4080658  15.0205269
  74.8524094 173.2664337  16.7111588  75.2977905 174.1669617  17.1339760
  73.7920609 173.3451080  16.9511166  75.4848557 172.1007080  17.4127636
  76.4170837 171.5018005  16.8059025  75.0984192 171.6573029  18.6294651
  73.9211578 172.0881348  19.2785835  73.0697556 171.9659119  18.6090488
  73.9302292 173.1437988  19.5498600  73.8119354 171.1914368  20.4958210
  73.4173965 170.2239838  20.1852341  73.2653122 171.6281891  21.3316174
  75.2454987 170.9725494  20.8768959  75.3097229 170.0863647  21.5082779
  75.7137833 171.8011475  21.4081573  75.8678818 170.7423859  19.4861240
  76.9088974 171.0479126  19.5911674  75.8460693 169.2610168  18.9607830
  76.2672729 168.3560638  19.6559296  75.1849442 168.9541321  17.8624878
  74.7491989 169.7047729  17.3460102  75.0003738 167.6083984  17.3558311
  76.0080643 167.2362518  17.5407104  73.9682541 166.8960266  18.2347240
  74.4171448 166.8831635  19.2279167  73.0361099 167.4508514  18.1281147
  73.6417847 165.3956146  18.0303154  73.5371857 165.2141724  16.9606266
  74.3875122 164.7626038  18.5112267  72.0655899 165.1479645  18.8606663
  70.9880600 165.1075134  17.4902916  71.3965149 164.3104858  16.8690014
  69.9849472 164.8521118  17.8318043  70.9748383 166.0315704  16.9123268
  74.7493515 167.5561066  15.8355331  74.2674942 168.5224609  15.2265959
  75.2656784 166.4834137  15.2206573  75.8265686 165.8406525  15.7613697
  75.0950775 166.2160339  13.8101959  74.2020569 166.6527100  13.3630533
  76.2919922 166.8659515  13.1372118  77.2100525 166.4601593  13.5621796
  76.3367615 166.6154633  12.0773287  76.2389984 167.9412537  13.3075495
  74.9762802 164.6663818  13.6337252  74.8962555 163.9298859  14.5864038
  74.9548798 164.2179260  12.3728714  75.2883606 164.8106079  11.6261330
  74.8327026 162.8073425  11.9322777  74.8012848 162.1847229  12.8263960
  73.4430389 162.7772064  11.2203789  73.4423141 163.3540955  10.2955532
  73.1940155 161.7389069  11.0012264  72.6885910 163.1490173  11.9136705
  76.0499878 162.4720764  10.9931545  76.3094788 163.2926941  10.0780964
  76.6982193 161.3641357  11.1079206  76.5420380 160.7602997  11.9023352
  77.8751526 161.0324097  10.3565655  78.0064468 161.5177765   9.3894663
  79.1139297 161.4954529  11.1853218  79.2577744 160.7286987  11.9465761
  80.0012589 161.4130859  10.5576630  79.2072067 162.9283905  11.7357950
  79.5837250 163.9739838  10.8829842  79.8869400 163.6949005   9.8846970
  79.6995468 165.2739716  11.3929396  79.9234543 166.0999146  10.7340784
  79.4975586 165.5303802  12.7453403  79.6231842 166.7776642  13.2217665
  79.7525482 167.3670044  12.4750872  79.0109406 164.4781647  13.5652494
  78.8197021 164.6443176  14.6151190  78.9054184 163.1592712  13.0549994
  78.7247314 162.3328857  13.7264414  77.9420090 159.4809265  10.1735563
  77.0945587 158.8085632  10.7075491  78.9598236 158.8924866   9.4997025
  79.6917496 159.4672699   9.1072655  79.0355301 157.4070435   9.3908758
  78.4334488 156.9320831  10.1654816  78.5316467 156.7823486   8.0598402
  78.6727524 155.7057037   8.1546841  77.0562897 156.9027557   7.9331818
  76.7766037 157.9469452   8.0729008  76.6430893 156.4519043   7.0309033
  76.5884857 156.4499512   8.8073807  79.3190918 157.3906250   6.8882670
  80.3742523 157.1181030   6.9101171  78.7931061 157.0932922   5.9810586
  79.2902374 158.4763184   6.9806147  80.4530106 156.8334045   9.6221972
  81.4491806 157.3723602   9.1468058  80.5060120 155.6148376  10.2409153
  79.6450653 155.1580353  10.5058632  81.6881332 154.7433777  10.1416988
  82.5410767 155.4066315  10.2855320  81.6579437 153.7996826  11.3086481
  82.6750031 153.5479431  11.6091604  81.1619873 154.3440094  12.1122894
  80.7971039 152.5502930  11.0881548  79.8575592 152.5552216  10.2974939
  81.1965942 151.3819733  11.5680676  80.7363434 150.5783539  11.1649771
  82.0536041 151.3083801  12.0974207  81.8558807 154.1948547   8.7162771
  80.8944397 154.2156982   7.9023814  83.0098877 153.4626770   8.3534498
  84.1681061 153.2968140   9.2138939  84.0244904 152.4815826   9.9230309
  84.3647385 154.2492523   9.7061329  85.3075027 152.8192902   8.2822657
  85.9336548 152.0368958   8.7110987  86.0031815 153.5687714   7.9048743
  84.5843277 152.1763458   7.0770688  84.4467621 151.1105957   7.2596755
  85.1852646 152.3428345   6.1830559  83.2383041 152.8789825   7.0510616
  83.2347946 153.7346497   6.3758473  82.2245483 151.8259125   6.5896840
  81.8488464 151.6518097   5.4204125  81.7712173 151.0438232   7.4953108
  82.2445602 151.1241302   8.3839083  80.7105865 150.0160522   7.4448495
  80.7595749 149.5559387   6.4579401  80.9566650 149.0754547   8.5773821
  80.5569077 149.5874786   9.4526644  80.4151459 148.1645660   8.3221712
  82.3433533 148.7509003   9.0080318  83.1795349 149.6210175   9.6734705
  84.3230209 148.9810028   9.8980370  85.1351242 149.4214935  10.4573708
  84.2451630 147.7425385   9.2997208  85.0094757 147.0873413   9.3811970
  82.9669342 147.5428925   8.8117037  82.6757278 146.7005615   8.2017260
  79.2779999 150.5784454   7.5051112  78.3262100 149.8248749   7.7825637
  79.0683746 151.8523560   7.1214676  79.8810883 152.4296417   6.9591446
  77.7702103 152.4411774   6.8535023  77.9903946 153.4463959   6.4940987
  77.2615280 151.9727631   6.0109363  76.8035889 152.6232147   8.0093555
  75.8209457 153.3163300   7.7849474  77.0952225 152.1917725   9.2942972
  77.9824448 151.7840576   9.5525465  76.1566696 152.4226837  10.4076395
  75.1595535 152.0973663  10.1109457  76.6315994 151.6761475  11.6560249
  76.8501205 150.6767883  11.2796688  77.6085052 152.0341492  11.9809780
  75.6566467 151.6714783  12.8218746  74.6996460 150.6791992  12.9029865
  74.7140427 149.8614197  12.1977034  73.7150192 150.7305756  13.9389343
  72.9261246 150.0006256  14.0449057  73.8840103 151.6738892  14.9609404
  72.9398193 151.7323456  15.9717913  72.4855194 150.9104309  16.1709938
  74.8699112 152.6551361  14.8585596  74.8984909 153.3928680  15.6468182
  75.6958694 152.7229919  13.7418156  76.4015427 153.5367279  13.6628046
  76.2290192 153.9242706  10.6824112  77.2620316 154.6162262  10.7241983
  75.0136032 154.5195923  10.8261957  74.1600113 153.9877014  10.7336769
  74.8795471 155.9481812  11.0356808  75.6598511 156.4152832  10.4348164
  73.6041260 156.5761414  10.4222116  72.6758652 156.1287689  10.7775888
  73.5906067 158.1597900  10.7818289  74.4859009 158.7047882  10.4826059
  72.8989792 158.6843414  10.1225882  73.2566528 158.3811188  11.7955341
  73.6361542 156.3075409   8.8997059  74.1369247 157.1324463   8.3928776
  74.1620483 155.3712158   8.7131109  72.3014908 156.1920013   8.2300663
  71.8449326 157.1800842   8.2877722  72.3996353 155.8848724   7.1888437
  71.6154175 155.5055389   8.7262449  75.0563812 156.1733398  12.5613852
  74.3030853 155.6099396  13.3599739  76.0129776 157.0290833  12.9029379
  76.5788498 157.4295654  12.1684303  76.1882477 157.5293427  14.2812214
  75.5961685 156.9720306  15.0071354  77.6286926 157.4180908  14.6327009
  78.2102509 157.9604645  13.8872375  77.8016586 157.8610077  15.6135216
  77.9990463 156.0099030  14.7647066  77.7483521 155.2018738  15.9000921
  78.3130188 154.0332031  15.6004934  78.2695770 153.1085663  16.1568832
  79.0228577 154.1069336  14.3942099  79.7255325 153.4454346  14.0962858
  78.7952118 155.3667908  13.8335581  79.1404495 155.7448120  12.8826113
  75.7402725 159.0017395  14.3416252  76.2137756 159.7805786  13.5278606
  74.9041748 159.3854523  15.2897987  74.3794250 158.7014618  15.8160162
  74.5469131 160.7811584  15.6806469  74.9054947 161.4997253  14.9436436
  73.0482788 160.9842987  15.8895245  72.6033859 160.2968903  16.6089916
  72.8997803 161.9829102  16.3004208  72.3198853 161.1069641  14.5484791
  72.8797455 161.7630005  13.8819380  72.2246399 160.0662231  14.2388315
  70.8448868 161.6440735  14.7190905  70.1679916 161.2046051  15.7030449
  70.3705444 162.5591125  13.9739351  75.2970200 161.0500031  16.9891319
  75.0886765 160.3001251  17.9421501  76.2202530 162.0155487  16.9994659
  76.2277832 162.6603394  16.2221088  77.0964966 162.2253418  18.1541634
  76.8190994 161.4794312  18.8989868  78.5573807 161.9464264  17.8303413
  79.1885300 162.1663818  18.6913681  78.7677155 160.4807587  17.4448586
  78.3487549 160.2793579  16.4589520  79.8363419 160.3394318  17.2830696
  78.4083710 159.7062073  18.1223831  78.9291916 162.6312103  16.6613979
  79.7673798 162.2509460  16.3885593  76.9644852 163.5939484  18.7668037
  77.0537949 164.6152191  18.0521202  76.6110535 163.7097778  20.0377598
  76.5218201 162.8663940  20.5862541  76.5826874 164.9705200  20.8097095
  76.1398010 165.8061523  20.2677898  75.9020920 164.7072296  22.1495495
  74.8886795 164.4367523  21.8529949  76.3726730 163.8604584  22.6491776
  75.7599030 165.8753510  23.1269627  76.8001556 166.1608276  23.2834339
  74.9338913 167.0422974  22.6366196  74.2169876 166.7703400  21.8619022
  74.4662704 167.6311798  23.4257050  75.6102448 167.7735291  22.1939583
  75.1440277 165.2849579  24.4316483  75.7345886 164.4745026  24.8588753
  74.9392166 166.1058044  25.1189232  74.2084656 164.7970734  24.1581287
  78.0633850 165.3527985  21.1021023  78.8153381 164.5677185  21.7016411
  78.3960876 166.6103363  20.7678928  77.7592545 167.2421570  20.3038425
  79.6931305 167.1615753  21.2172203  80.3686295 166.3073883  21.2636013
  80.3015213 168.1339722  20.1107578  81.2111435 168.5182037  20.5723152
  80.6244583 167.3989258  18.8398819  79.6848373 167.2816620  18.3000088
  81.3417435 167.9940338  18.2747002  81.1827698 166.4789429  19.0131397
  79.5474930 169.2632141  19.6919518  79.5959167 170.0408020  20.2528553
  79.6864471 167.7693481  22.6126060  78.8553238 168.6278992  22.8676987
  80.4919052 167.3087769  23.5568047  81.0623550 166.4807129  23.4619484
  80.6649094 167.7961121  24.9540443  80.2599258 168.8050385  25.0325661
  79.9107590 166.9063721  26.0004330  80.0170135 167.3642731  26.9838600
  78.4364548 166.7698212  25.6043549  78.3261108 166.1752014  24.6975193
  77.8459625 166.3639526  26.4257584  78.0421677 167.7614899  25.3824711
  80.3877945 165.4229584  26.2411423  81.4016190 165.4190521  26.6414375
  79.6813583 164.9470367  26.9212551  80.2990723 164.7592010  25.3811188
  82.1250839 167.9707489  25.3028545  82.9167862 167.0544128  24.9311314
  82.4896698 169.0178223  26.0487061  81.8148117 169.7288208  26.2918968
  83.9182663 169.1992035  26.5315933  84.5522537 169.1401215  25.6469040
  84.0856628 170.5384521  27.2492752  83.4524994 170.5882721  28.1351223
  85.1217041 170.6028900  27.5818005  83.8667068 171.7438507  26.3566761
  84.6786423 171.9859772  25.2541447  85.3436356 171.1850586  24.9665241
  84.5230637 173.1387482  24.4585323  85.1652222 173.3803864  23.6244812
  83.5918808 174.0713196  24.8291740  83.5502548 175.2503052  24.1471634
  84.1522903 175.2537537  23.3994064  82.7814178 173.8692780  25.9935265
  82.1599884 174.6841125  26.3345127  82.9565964 172.7235870  26.7639046
  82.3649292 172.5274048  27.6458549  84.2711868 168.0756683  27.4684658
  85.4922943 167.8206482  27.5893097  83.3731384 167.4709473  28.1784496
  82.4046326 167.6793213  27.9817543  83.6275177 166.6668243  29.3451214
  84.5883560 166.1627197  29.2412968  83.7569275 167.6315155  30.5611210
  84.3400345 168.4938049  30.2377815  82.7854309 168.0590515  30.8091316
  84.4490356 167.0486603  31.7839527  83.9405518 166.1292725  32.0742378
  85.5058899 166.8300476  31.6310806  84.4494629 168.1281281  32.9226875
  85.0596237 168.9851379  32.6374893  83.4334488 168.5076141  33.0313187
  84.7407837 167.4905396  34.3556824  84.6462479 168.2666931  35.1151199
  83.8890076 166.8284454  34.5113106  86.0918655 166.9132080  34.5568161
  86.7676163 167.5286407  34.1270485  86.2826843 166.8664093  35.5475235
  86.1153564 165.9899597  34.1479645  82.5679398 165.5706635  29.5068054
  81.3855057 165.8306580  29.4511890  82.9867172 164.4339447  29.9174023
  83.9819031 164.2755737  29.9855232  82.1388855 163.3293610  30.4097004
  81.1555634 163.7048340  30.6928921  81.8308029 162.4260559  29.1908283
  82.7933426 162.1269226  28.7759438  81.1911545 161.5867157  29.4636974
  81.2308884 163.0916748  28.5702190  82.7683868 162.5464172  31.5645485
  83.9910278 162.4126434  31.6961956  81.9235611 161.9995117  32.4872551
  80.9229507 162.1214294  32.4238892  82.3910980 161.5817719  33.8093185
  83.3967209 162.0022736  33.8114433  81.6000214 162.2698364  34.9027290
  80.5568924 161.9542847  34.8824425  82.0228119 162.0696259  35.8872414
  81.6297073 164.0678864  34.7324829  82.6011887 164.2798462  35.6247826
  82.5059357 160.1017303  33.9706421  83.5750122 159.6430969  34.5062523
  81.4615250 159.3351135  33.8450203  80.6659164 159.7104797  33.3488121
  81.4789505 157.8965149  34.1232033  82.3505630 157.6399384  34.7253342
  80.1650925 157.5111542  34.8184700  79.2971802 157.8566132  34.2567902
  80.2132721 156.4386444  35.0069237  80.0724106 158.1287994  36.2095032
  80.6801605 157.6607513  37.1818886  79.2934189 159.1351624  36.4209900
  79.3483734 159.6230316  37.3036423  78.6628799 159.3797150  35.6708488
  81.6269913 157.0691833  32.7674675  80.7059326 156.2710266  32.3643379
  82.8260956 157.2204437  32.1371918  83.4449158 157.9440918  32.4740791
  83.2491455 156.4714355  30.9238338  82.5192490 155.6757660  30.7746086
  83.2734756 157.3915100  29.6767216  84.0302734 158.1758118  29.6914024
  83.5208435 156.7738190  28.8133698  81.8570557 157.9710236  29.3262291
  81.5012207 158.4838257  30.2198277  82.0169373 158.9950256  28.2323513
  82.4665298 158.5367432  27.3514671  81.0981140 159.4592438  27.8740730
  82.7643967 159.7425385  28.4981174  80.9832535 156.8642273  28.7064438
  80.6556625 156.1450653  29.4571705  80.0768433 157.3265381  28.3155804
  81.4358139 156.2840576  27.9022579  84.6226196 155.8008270  31.1704502
  85.5531693 156.3419800  31.8209763  84.7800064 154.5641632  30.6300125
  83.9583664 154.2916107  30.1096897  86.0419693 153.8585205  30.3793716
  86.8150177 154.2203979  31.0572681  85.9464874 152.3423157  30.7306652
  85.1497726 151.8903656  30.1398239  86.8666992 151.8665924  30.3915482
  85.6833801 152.1184692  32.1794586  85.1308365 152.9718781  32.8917618
  86.0171204 150.9568329  32.6716003  85.7111511 150.6981964  33.5987434
  86.5244522 150.3260956  32.0675392  86.5127335 154.1061096  28.9326191
  85.6944046 154.2698669  27.9935207  87.8414536 154.0616760  28.7300339
  88.4163437 153.8096313  29.5212803  88.5342941 154.0662842  27.4438553
  87.8752060 154.4723053  26.6764851  89.7766266 155.0080719  27.4542389
  90.4647369 154.5742798  28.1797943  90.2979431 154.9987183  26.4970303
  89.4826050 156.4304352  27.8460369  89.1111603 156.4488525  28.8706303
  90.8358002 157.1413879  27.6877747  91.2358017 157.0277710  26.6802082
  90.7459488 158.2076569  27.8953495  91.5848770 156.8216553  28.4121742
  88.5460663 157.0584106  26.7647552  87.6249237 156.4949188  26.6161823
  88.3089142 158.1085205  26.9354095  89.1417542 157.1333923  25.8550072
  88.8797379 152.6574707  27.0175610  89.3111572 151.8380585  27.9049816
  88.6495209 152.3258514  25.7655373  88.0918579 152.9679565  25.2207260
  89.0957413 151.0772705  25.1562500  89.9281464 150.7323303  25.7696075
  88.0802994 149.9514008  25.2416267  88.5200577 149.0377045  24.8417931
  87.8093338 149.8970795  26.2960110  86.8857422 150.2656708  24.5936298
  86.2273712 149.6756744  24.9678440  89.7629013 151.2217255  23.7388191
  89.3934402 152.1109467  22.9813519  90.7374420 150.3467407  23.3878250
  91.0891190 149.7321930  24.1080780  91.5638809 150.4523773  22.2553234
  91.9145813 149.4715881  21.9341335  90.9159927 150.8217010  21.4603710
  92.7444305 151.4002686  22.3898869  93.1227646 151.7344208  23.4967556
  93.2935028 151.8719635  21.2362919  92.9466400 151.5374298  20.3486710
  94.1506042 153.0524597  21.1818447  94.1500778 153.5466614  22.1533737
  95.6261063 152.7038879  20.7388630  95.6348572 152.1452942  19.8029232
  96.2578659 153.5385895  20.4351196  96.4032516 151.8180084  21.6600342
  95.7169113 150.9731903  21.7175121  97.2695999 151.5318909  21.0636501
  96.8871384 152.3594055  23.0135479  97.4517822 153.2847137  22.8991642
  95.9952164 152.6769562  23.5536804  97.5547028 151.2908173  23.7441826
  98.5169907 151.1194763  23.4896946  97.0902100 150.5218506  24.7231884
  95.8893738 150.5778046  25.1377640  95.2788773 151.2081909  24.6377602
  95.5648880 149.8686066  25.7795181  97.8116989 149.5540924  25.1904373
  98.7812119 149.4342041  24.9339981  97.3914719 148.8468628  25.7763844
  93.5659714 154.1850586  20.2988586  92.6366272 153.8927765  19.4790649
  94.0601578 155.4351196  20.4701462  95.1584091 155.9236298  21.3684101
  96.1213226 155.6846924  20.9169617  95.0661316 155.4591827  22.3501797
  95.0729523 157.4573822  21.4378014  95.9970093 158.0165405  21.5846367
  94.3376389 157.6276855  22.2241879  94.3619690 157.7840271  20.0906563
  95.1366882 157.9626770  19.3449993  93.6922836 158.6299438  20.2457523
  93.6278610 156.4640808  19.5889359  92.5537338 156.5876465  19.7270889
  93.9231567 156.2177124  18.0810509  95.0077362 155.7396698  17.6468716
  92.9769363 156.4483490  17.1837959  92.0168304 156.4110413  17.4950809
  93.1308365 156.3115540  15.7199068  94.1693878 156.2149658  15.4033852
  92.3625565 155.0374298  15.2283030  92.6459122 154.2370605  15.9118509
  91.2894974 155.2202911  15.2849522  92.6737518 154.6969452  13.9014797
  92.0310059 154.0311432  13.6461744  92.6818542 157.5597839  15.0160236
  91.8654099 158.3116913  15.5692873  93.2517471 157.8895264  13.8560791
  94.0809250 157.3929138  13.5629244  92.7719421 158.9786682  13.0019360
  92.2273788 159.7656250  13.5237246  94.0573883 159.7071075  12.4289875
  93.7273712 160.5158081  11.7769175  94.8721085 160.3495331  13.5350227
  95.5102234 159.5933990  13.9923668  95.4690704 161.1689453  13.1346321
  94.2309265 160.7543030  14.3180599  94.8183136 158.7137604  11.8316326
  95.2770996 159.0791473  11.0716324  91.9186630 158.4342804  11.8587713
  91.3670807 159.2594757  11.1030884  91.9043655 157.1171875  11.6286650
  92.2002106 156.3963470  12.2712955  91.3145599 156.6058350  10.4052649
  91.8578796 157.1210632   9.6131477  91.4993820 155.0740204  10.3275948
  90.9499207 154.6720734  11.1788502  90.9494171 154.7072601   9.4609175
  92.9587021 154.5412903  10.1961365  93.4825439 154.8861237  11.0876398
  92.8941345 153.4547577  10.2542973  93.6708679 154.9436340   8.9074650
  93.0786133 155.3524628   7.8789330  94.9088440 154.8912048   8.9118509
  89.7941360 156.9662476  10.3277073  89.0291748 156.7215729  11.2648535
  89.4617844 157.5257263   9.1939716  90.1422882 157.7239380   8.4744425
  88.0850296 157.7970581   8.8530598  88.0694656 158.1847687   7.8344646
  87.3663177 156.4040222   8.6860647  88.1567001 155.7700500   8.2842178
  87.0938187 156.0001984   9.6611395  86.2011185 156.3591461   7.7493496
  84.8870163 156.7261047   8.0572033  84.1551285 156.3770294   6.9883113
  83.0772629 156.4198608   6.9355907  84.9572067 155.8894348   6.0009236
  84.5670319 155.5717773   5.1251631  86.1881561 155.8323059   6.5132017
  87.0485992 155.3584442   6.0643415  87.4209747 158.7988281   9.8636131
  86.2014618 158.9167175  10.0625296  88.2295227 159.6483307  10.5705166
  89.2217484 159.6472778  10.3818541  87.6850891 160.4103241  11.7178078
  87.1227646 159.7609253  12.3887529  88.9655914 160.9044037  12.4493685
  89.6022339 160.0629425  12.7227373  89.5090179 161.6213379  11.8338976
  88.5265884 161.6578064  13.5946503  89.2620163 162.1417236  13.9774914
  86.8145447 161.6532745  11.2495184  87.1484222 162.3068085  10.2783890
  85.7063675 161.9239502  11.8749638  85.5606537 161.5616760  12.8064308
  84.7125092 162.9094086  11.4620333  84.5217743 162.7937927  10.3950958
  83.3657532 162.4763336  12.0902853  83.4146805 162.5649719  13.1755724
  82.5734634 163.1557922  11.7760792  82.8530502 161.1423340  11.7709751
  82.9855652 160.4637604  10.6851568  83.4049759 160.8755035   9.7790852
  82.4070282 159.1868591  10.8437471  82.3668900 158.5238495  10.0828829
  82.1001740 158.9079132  12.1157703  81.6333313 157.8349609  12.8148174
  81.3846817 156.8896179  12.3555670  81.3915100 157.9602509  14.2192526
  81.3142242 157.0261383  14.7557650  81.5564194 159.1679993  14.9210405
  81.5042038 159.1894226  15.9995651  81.9835205 160.2725220  14.1474276
  82.1849365 161.2018738  14.6594038  82.3427200 160.1477661  12.7648830
  84.9787064 164.3750000  11.8054752  84.2804108 165.2190704  11.2261486
  85.9692993 164.6405945  12.6268978  86.5070419 163.8472137  12.9454508
  86.4559021 165.9933624  13.0702391  85.9550858 166.8069000  12.5454350
  86.2465057 166.1115265  14.5509377  86.7020035 165.2988892  15.1168480
  86.6682358 167.0606689  14.8816452  84.7540359 166.2131042  14.9054804
  84.0186615 167.4192505  14.6857195  84.5983124 168.2501526  14.3115454
  82.6757355 167.5482330  14.9374371  82.1727524 168.4632721  14.6615620
  82.0577774 166.4516907  15.4849949  81.0246353 166.5721893  15.7756729
  82.6865005 165.2355042  15.6612034  82.0852280 164.4165649  16.0275631
  84.0262756 165.1029053  15.4162769  84.5747910 164.1961823  15.6245651
  88.0354385 166.0964050  12.7868137  88.8285980 165.4774933  13.5361042
  88.4309616 166.8813324  11.6935616  87.6631088 167.6000671  10.6851330
  87.4700470 168.6221466  11.0109663  86.7285614 167.0706177  10.4996290
  88.4529877 167.6058807   9.3433056  88.1079865 168.4285126   8.7169304
  88.2242508 166.6423340   8.8879404  89.9259949 167.5825806   9.8249893
  90.2772675 168.6098633   9.9218578  90.5022659 167.1221008   9.0225172
  89.8235855 166.8075714  11.1774225  89.8896332 165.7511444  10.9172659
  90.8767242 167.1589813  12.1838055  90.9731979 168.2747345  12.7523680
  91.8715057 166.2549591  12.4198561  91.8134003 165.3248291  12.0305119
  93.0076447 166.4425354  13.2652807  93.7865753 165.7031097  13.0792875
  93.4052734 167.4531403  13.1721010  92.7770309 166.2033844  14.7242785
  93.4133911 166.8458710  15.5325499  91.8616180 165.2968140  15.0466919
  91.2455139 164.9254456  14.3377495  91.6427155 164.6574707  16.3361092
  92.4957886 164.9807281  16.9326572  90.3836441 165.1370087  17.0525684
  89.5500031 164.9097595  16.3881130  90.2774734 164.4868774  17.9209900
  90.3110275 166.5863342  17.4676514  90.4707413 166.8371124  18.8431644
  90.5377121 166.0351257  19.5633888  90.4384003 168.1514130  19.2986507
  90.5399857 168.3985748  20.3450699  90.1560364 169.1641235  18.4078865
  90.0864792 170.4266968  18.8554840  90.3295288 170.4700623  19.7831955
  89.9325638 168.9054108  17.0860233  89.6946335 169.7571411  16.4660683
  90.0297623 167.5727692  16.5596848  89.8261871 167.2804565  15.5401192
  91.7105484 163.1687317  16.2256489  91.1044083 162.5752563  15.3760386
  92.3950882 162.5322876  17.1786575  92.9256897 163.0273743  17.8811245
  92.3850708 161.1042633  17.3177013  92.2181854 160.6159515  16.3575974
  93.7324142 160.6322937  17.8932934  93.9150543 161.0592346  18.8794346
  93.6854401 159.5625305  18.0969849  94.5254211 160.8618011  17.1815624
  91.2661133 160.6140442  18.2336025  91.0793686 161.0012970  19.3924522
  90.3697968 159.7251740  17.6489449  90.5340652 159.4292450  16.6973457
  89.2888947 159.0366211  18.3542881  88.8343964 159.8390045  18.9354172
  88.2146378 158.6887054  17.3241959  87.3454742 158.4053497  17.9177971
  87.8793640 159.6148376  16.8573055  88.4599228 157.7187042  16.2469368
  88.5452271 158.0320282  14.9502506  88.6078262 159.0348358  14.5541773
  88.7018738 156.9141693  14.1845484  88.8702774 156.9139862  13.1886873
  88.5969543 155.7474823  14.8997583  88.6754379 154.3825073  14.5971117
  88.7491302 154.0241852  13.5809536  88.5786743 153.4530945  15.6633940
  88.6816254 152.4113922  15.3975716  88.4000549 153.9603577  16.9861431
  88.4207764 153.3475342  17.8751965  88.3816147 155.2975769  17.2218151
  88.3769379 155.6416931  18.2455120  88.4596786 156.2485962  16.2307243
  89.6908264 157.8407745  19.2195015  90.5109253 157.0471191  18.7495155
  89.1611938 157.6137848  20.3841572  88.5997467 158.4134827  20.6398296
  89.5129395 156.4813080  21.3023415  89.7892380 155.6424561  20.6635113
  90.7126694 156.7640533  22.2038021  91.5858688 156.8841400  21.5625610
  90.8306274 158.0319672  23.0042801  90.0750122 157.9922943  23.7888641
  91.8214417 157.9963837  23.4571781  90.7435989 158.9969330  22.5049095
  90.8610001 155.7029266  23.1072369  91.2552567 156.0340118  23.9175129
  88.1834259 156.1163177  21.9687366  87.4456329 157.0114899  22.4288902
  87.7112885 154.8690491  21.8152905  88.4382553 154.1681824  21.8350201
  86.3379440 154.4481049  22.0570927  85.7100220 155.0240021  21.3772583
  86.2821579 152.9564514  21.8369255  86.9572830 152.4607849  22.5345058
  84.8271179 152.3479004  22.0495243  84.0722885 152.8594360  21.4523067
  84.9000549 151.3154449  21.7077389  84.5760956 152.3201904  23.1098652
  86.7328262 152.5782928  20.3768024  85.9202118 152.7032623  19.6611633
  87.5263672 153.2556305  20.0611973  87.2198410 151.1434784  20.1463013
  86.6291656 150.4309845  20.7221107  87.2597198 150.8974762  19.0851727
  88.2545700 151.1255493  20.4885368  85.8679962 154.7169342  23.5147457
  86.5224457 154.2439575  24.4103794  84.7269135 155.4036255  23.6280975
  84.2502136 155.7569580  22.8107796  84.0342102 155.5275116  24.9066029
  84.7474594 155.5636902  25.7300529  83.2337189 156.8598022  24.8713074
  82.6431198 156.8305054  23.9556446  82.4669952 156.7625427  25.6399250
  83.9058914 157.7178802  24.8697681  83.1252975 154.2785492  25.0897522
  82.2839127 153.9462738  24.2367344  83.3457642 153.5174866  26.2205467
  84.1077881 153.7338104  26.8471394  82.2857208 152.6497040  26.8097324
  81.5118637 152.7835846  26.0538731  82.8742523 151.1861725  26.8845005
  83.7641754 151.1263580  27.5110474  82.1357269 150.5325470  27.3486691
  83.2513962 150.5001984  25.5245762  82.3560715 150.4943390  24.9029121
  84.1133804 151.0179443  25.1038494  83.8615570 149.1398773  25.7308350
  85.0108871 148.8399048  25.7111397  83.0180054 148.1664886  26.0855141
  83.3783722 147.2482300  26.3024330  82.0433960 148.3504486  26.2762890
  81.7522278 153.1838226  28.0703182  82.3521957 153.8744812  28.8986492
  80.5102539 152.8770447  28.3893070  79.9595413 152.3456421  27.7302017
  79.9077225 153.1363678  29.6729450  79.8008881 154.2069550  29.8476448
  78.4284286 152.6605682  29.6604614  77.9411697 153.0327148  28.7592468
  78.4780807 151.5719452  29.6371326  77.6241150 153.3131409  31.1372051
  76.3622513 153.0289764  30.8027897  80.6350479 152.4438171  30.8793201
  80.8067398 151.2559357  30.8804951  80.9729385 153.1647949  31.9396496
  80.7884903 154.1483307  31.8027420  81.7056274 152.7493134  33.1086922
  82.6317291 152.2335663  32.8548622  82.1309662 153.8780823  33.9158897
  82.8977051 154.4285736  33.3707657  81.2654495 154.4882965  34.1740227
  82.7962646 153.4914093  35.2489929  82.0976028 152.9558563  35.8917656
  83.5511398 152.7255554  35.0708961  83.4868851 154.6744995  35.8759995
  82.7548599 155.4726105  35.9995003  83.8823318 154.4455109  36.8655853
  84.6518936 155.1439209  35.0516624  85.0039978 154.5094299  34.3491402
  85.4897766 156.1721191  35.2897415  85.4051437 156.9776917  36.2874336
  84.6109085 156.8803864  36.9037209  85.9578323 157.8219757  36.3301888
  86.5216064 156.3370972  34.4420090  86.4855042 156.0299072  33.4805336
  87.2463074 157.0239716  34.5940781  80.9825745 151.6257172  33.8949814
  81.6454239 150.7384186  34.3949242  79.6073074 151.6593170  33.9690666
  79.0749435 152.3126221  33.4123917  78.9384689 150.6797943  34.8541336
  79.6024017 150.2997894  35.6305885  77.7757111 151.4653931  35.6354828
  77.1567764 151.9567108  34.8847313  76.8736572 150.6298370  36.4430389
  77.3882217 149.9881897  37.1583138  76.1232300 151.2390289  36.9468689
  76.3452911 149.9083405  35.8198357  78.3895111 152.6852875  36.5108299
  78.6904755 153.4700470  35.8168030  77.5173950 153.1421356  36.9785919
  79.4738312 152.3238678  37.4931908  80.3872375 151.9470673  37.0329475
  79.8033218 153.1506195  38.1224709  79.0673141 151.5553589  38.1506538
  78.4248047 149.3838196  34.1978683  78.2946701 148.3577728  34.9118881
  78.1600266 149.3940125  32.8980942  78.3652954 150.2586823  32.4182014
  77.6484146 148.2143097  32.1468544  77.5264816 147.3574677  32.8094673
  76.1883469 148.5664673  31.6849842  75.7696686 147.6905365  31.1894703
  75.5593796 148.8424072  32.5313721  76.3418884 149.9501495  30.5332890
  75.2271729 149.7078857  29.8378620  78.5373077 147.7118225  30.9847527
  78.2901917 146.6410217  30.4175663  79.5245209 148.5057983  30.5428944
  79.6618118 149.3632355  31.0586739  80.4084702 148.2196655  29.4165478
  81.3216019 148.7989655  29.5533085  80.7319107 147.1819916  29.4985199
  79.7980881 148.4254303  27.9676952  80.3566132 147.9012909  26.9961281
  78.6457291 149.1319733  27.8326168  78.1080933 149.3347778  28.6632309
  78.0077591 149.5187378  26.5326958  77.8537140 148.6469879  25.8967400
  76.5992355 150.0301514  26.8437252  76.1187897 149.2228851  27.3965454
  76.6386871 150.9512024  27.4252758  75.7496109 150.3290100  25.6314602
  75.6809311 149.5853882  24.6638966  75.1119232 151.4695587  25.6033840
  74.7621155 151.6672516  24.6767483  75.1615677 152.1767883  26.3227367
  78.8054657 150.5780640  25.7695999  79.5759201 151.2978821  26.3576908
  78.6698532 150.6496887  24.4551888  78.1607285 149.8513641  24.1036682
  79.2652817 151.6468353  23.5470371  80.3445435 151.7424622  23.6660061
  78.9923935 151.3252106  22.0938663  79.4274368 150.3443146  21.9023628
  77.9341507 151.2822266  21.8362274  79.5704880 152.2776947  21.0833569
  78.7710342 152.8488159  20.0601025  79.6265488 153.7547455  19.5126743
  79.3032303 154.3689423  18.6852436  80.8424835 153.7349091  20.0784130
  81.6894073 154.2321014  19.8425388  80.8312759 152.7871857  21.0584869
  81.6398773 152.5414276  21.7309208  78.6220398 153.0625610  23.7774467
  77.4073944 153.0636749  23.9956703  79.4150620 154.1476746  23.7824860
  80.3964157 154.0256653  23.5771370  78.9322968 155.4630890  24.0817547
  77.8507385 155.4818573  23.9476185  79.1365051 155.8260956  25.5630360
  80.1641006 155.5599976  25.8107090  78.9353714 156.8776398  25.7677479
  78.2447357 154.9973450  26.5230312  78.4072495 153.9324188  26.3568230
  78.5685730 155.1503601  27.5525036  76.4660950 155.2136841  26.2572346
  76.2861328 156.9674988  26.5923653  76.7896576 157.6563110  25.9140682
  75.2153931 157.1705475  26.6122112  76.6993484 157.2115936  27.5710239
  79.5148315 156.4466705  23.0914497  79.2361603 157.6111450  23.2915802
  80.2554398 156.0949860  22.0692940  80.3400040 155.1146240  21.8415794
  80.8172607 156.9871674  21.0810680  80.5837860 156.6850586  20.0601311
  80.4231186 157.9995117  21.1700211  82.3303070 157.0561829  21.2748470
  82.9405365 156.0156555  21.4870949  82.8953857 158.2389832  21.2423592
  82.2602158 159.0069580  21.0784359  84.3743439 158.4386749  21.2510834
  84.9480438 157.6898804  21.7972145  84.9416122 158.3690643  19.7899055
  84.5822296 159.2670593  19.2873650  86.0220947 158.4548492  19.9052620
  84.5650558 157.1880341  18.9968185  85.3186646 156.0729828  18.8509159
  86.3356628 155.9399109  19.1891651  84.6810303 155.1365967  18.1330147
  85.1622009 154.2988892  17.8383598  83.3977966 155.5041809  17.8760738
  82.4121780 154.8970337  17.1189804  82.5118103 153.8637695  16.8208866
  81.1677399 155.6117096  17.0051174  80.3368301 155.1056519  16.5362034
  81.0084305 156.9410706  17.4775467  80.0753555 157.4821320  17.4224815
  82.1147919 157.5696259  18.1237068  82.0924835 158.6193695  18.3766003
  83.3085251 156.8749847  18.3427830  84.8009033 159.7222595  21.9231262
  84.3339233 160.8471222  21.6692753  85.8792267 159.5658417  22.7057438
  86.3046570 158.6966400  22.9948902  86.7381516 160.7496643  23.1324921
  86.1750259 161.6292419  23.4444637  87.7021790 160.2344971  24.2679310
  87.1929398 159.9682312  25.1941490  88.2683716 159.3729553  23.9139900
  88.6879349 161.3211975  24.7066174  89.4736710 161.4632416  23.9646339
  88.1640015 162.2640381  24.8635788  89.3429413 161.0121765  26.0934162
  88.5955658 160.9338226  26.8829651  89.8690338 160.0677643  25.9540577
  90.2560272 162.2017212  26.4905853  91.1277542 162.2684784  25.8396263
  89.7325897 163.1380157  26.2969799  90.7422180 161.9952393  27.8649197
  91.2799530 161.1457520  27.9615326  91.5023804 162.6216278  28.0882530
  90.0320740 161.9558868  28.5820293  87.6386261 161.0652466  21.8799667
  87.9756851 160.1584778  21.1211090  88.0098343 162.3587494  21.8577423
  87.7696228 162.9741821  22.6217060  88.8532181 163.0756836  20.8256893
  89.4134598 162.3803711  20.2005806  87.9360428 163.8817139  19.9251442
  87.3172302 164.5135498  20.5623016  88.5537262 164.4223328  19.2080059
  87.0874252 163.0472107  19.0288792  87.6056747 162.6904755  17.7691727
  88.6559830 162.7757111  17.5325222  86.7449036 162.1323547  16.8165531
  87.1303558 161.8547363  15.8466291  85.4036255 161.9060516  17.0700569
  84.7976685 161.4742432  16.2872639  84.9113998 162.2268066  18.3306656
  83.8596725 162.0381470  18.4877319  85.7000427 162.7925720  19.3172035
  85.1856918 163.0827637  20.2214375  89.9178543 163.8926849  21.5138149
  89.6467590 164.8108215  22.2931137  91.1848297 163.6164551  21.2266350
  91.3963547 162.8447418  20.6103439  92.4303970 164.3376007  21.6126041
  92.1087570 165.0882721  22.3345013  93.4261322 163.4453888  22.4460754
  94.3014526 164.0718689  22.6176147  92.9502487 163.0788727  23.8150864
  92.0597534 162.4710999  23.6546154  93.6179428 162.3939667  24.3377705
  92.6109772 163.9629059  24.3549576  93.8712387 162.1487274  21.9288387
  94.5741348 162.3008270  21.2929077  93.0359879 164.9621277  20.3840046
  93.0671082 164.3267059  19.3732719  93.5831985 166.1647797  20.4856339
  93.6059113 166.7322235  21.3208523  94.1195068 166.7931824  19.3117046
  93.3675308 166.6328583  18.5390949  94.1870117 168.2983246  19.5425625
  94.7089920 168.5305786  20.4708347  94.6362076 168.8317413  18.7048321
  93.1485519 168.6280060  19.5106926  95.4362564 166.1822357  18.8561783
  96.2799606 165.8799133  19.6637363  95.6912918 166.1134491  17.5104370
  94.9819641 166.3299255  16.8248062  97.0223694 165.7234497  17.0253563
  97.4440079 165.0055847  17.7289047  97.0210571 165.0652313  15.6287069
  98.0319290 164.7236481  15.4060593  96.2565231 163.7440643  15.6953793
  95.1822052 163.9282532  15.6909742  96.4737396 163.1383514  14.8155947
  96.5722504 163.2556763  16.6172791  96.5349274 165.8588562  14.5921268
  97.1367722 166.5727386  14.3690701  98.0140457 166.8367767  17.0585232
  99.1275787 166.6935425  17.5193214  97.6463547 168.0329590  16.6262302
  96.7268066 168.2643280  16.2783775  98.4702759 169.2466431  16.7683239
  99.5149307 168.9380798  16.7284126  98.2999725 170.1624146  15.5827160
  97.2510910 170.4463654  15.4972095  98.8162613 171.1075134  15.7510538
  98.7340698 169.5585022  14.1971512  99.7913895 169.3338623  14.3375597
  98.1783676 168.6447449  13.9865084  98.5584259 170.4513702  12.9585199
  99.3335266 171.2177429  12.9585066  98.7039642 169.7907867  12.1037960
  97.1714554 171.1483459  12.8488340  96.4408188 170.5348663  13.3760042
  97.3212891 172.0607758  13.4260044  96.7998734 171.5280151  11.4609652
  96.6099625 170.7134857  10.8947754  95.9388809 172.0539398  11.5079412
  97.5777435 172.0188141  11.0436630  98.3577957 169.9211731  18.0890770
  97.2524033 170.0323639  18.6297455  99.4819946 170.5013885  18.6045818
 100.3335648 170.3434753  18.0849800  99.6361008 171.1161041  19.9491329
  99.2798615 170.3577118  20.6462917 101.1488190 171.1631927  20.1992989
 101.2823105 171.3108978  21.2709637 101.6960220 170.2571564  19.9389668
 101.8596573 172.3602753  19.4637585 101.7856369 172.2377472  18.3831997
 101.3973160 173.3009644  19.7628651 103.3836365 172.4002991  19.8867359
 103.5070038 172.4582062  20.9681835 103.9668503 171.5678864  19.4929371
 103.9846802 173.6799774  19.3658886 103.4282455 174.5260925  19.7691116
 104.9904175 173.6927338  19.7859097 104.1013870 173.7050934  17.8699970
 103.2929077 173.3313904  17.3937473 104.1324387 174.6344452  17.4757195
 104.8679047 173.1399078  17.5336876  99.0462570 172.5194244  20.1853905
  98.9462128 172.9179840  21.3202610  98.7436066 173.3137054  19.1046104
  98.8119278 172.9420624  18.1679592  98.1534882 174.6760864  19.1475563
  98.3278427 175.1754456  20.1006184  98.8724594 175.5649414  18.0533619
  98.4153290 176.5541077  18.0275059  99.9081116 175.8131561  18.2855759
  98.8786469 175.0689545  16.5948009  98.2997971 173.9790039  16.3433781
  99.4010391 175.7823334  15.7783651  96.6399612 174.6980286  18.9648247
  95.9926453 175.7357635  19.1439209  95.9862518 173.5392303  18.7826900
  96.5720139 172.7388153  18.5921345  94.5494537 173.4433594  18.6773376
  94.1959381 174.2113800  17.9894009  94.1577988 172.0740814  18.1231575
  94.6220551 171.3039398  18.7391396  93.0694809 172.0863953  18.1824856
  94.6648026 171.8755341  16.6916485  94.1470871 172.5938873  16.0559940
  95.7506638 171.9667358  16.6652622  94.3134918 170.1571350  15.9773817
  92.5671310 170.3806915  15.7345686  92.3823395 171.0315552  14.8799763
  92.1450577 169.4152374  15.4555531  92.0856247 170.6752167  16.6670418
  93.7831802 173.6313629  19.9644604  94.2592697 173.2355957  21.0448456
  92.6062317 174.1917114  19.8632317  92.3356476 174.5867920  18.9739666
  91.6526184 174.3697510  20.9373283  91.8532104 173.6805878  21.7576389
  91.7017441 175.7955475  21.4224281  92.6191711 175.9471893  21.9911385
  91.6009903 176.4553986  20.5607262  90.5850067 176.0106201  22.2495823
  90.7998734 175.8511200  23.1715336  90.2388229 174.1138000  20.3082237
  89.9431305 174.7092285  19.2467060  89.3983154 173.3041229  21.0207634
  87.9981155 172.9900818  20.6299438  87.8637619 172.6509399  19.6027946
  87.3102188 173.8269348  20.7506065  87.6340942 171.8560333  21.6253204
  88.1428223 170.9269257  21.3683033  86.5526047 171.7477570  21.7075424
  88.3557434 172.2465820  22.8848362  88.5977783 171.4146271  23.5461788
  87.8842468 173.0647278  23.4292927  89.7371140 172.7516785  22.3307400
  90.1917877 173.5202484  22.9557762  90.7529297 171.5805817  22.3655720
  90.8382187 170.8388672  21.3851299  91.5953903 171.4511414  23.3806400
  91.6467972 172.2720184  23.9668312  92.6319122 170.3783264  23.4788685
  93.2360535 170.4877777  22.5782375  93.5963745 170.6428833  24.6821823
  94.2215652 171.4953308  24.4164982  93.0232468 170.8887634  25.5761471
  94.5080719 169.5207367  25.1420345  95.0253601 169.9632111  25.9933434
  93.9750366 168.6747437  25.5759449  95.5288925 169.0112000  24.1423130
  96.0596008 169.7247162  23.2861519  95.9082489 167.7765198  24.2536316
  96.6552353 167.4600220  23.6520176  95.5134888 167.1568909  24.9466896
  92.1115875 168.8921204  23.5258007  92.8452682 167.9584656  23.0852299
  90.8765640 168.7162476  23.9736404  90.3800507 169.5804138  24.1373253
  90.0440445 167.4376526  23.9845276  90.3489532 166.8092957  23.1476784
  90.3364639 166.7567444  25.3570518  89.7752151 165.8231506  25.3182297
  91.3805771 166.4594879  25.2592297  90.0685959 167.5745697  26.5964146
  90.4743881 168.5856171  26.5616589  88.9885178 167.6805725  26.6978798
  90.4770889 166.8751068  27.9150066  89.7479401 167.1460419  28.6785812
  90.4807510 165.7941589  27.7748890  91.8516998 167.3193359  28.4131794
  92.5692291 166.9897156  27.6617756  91.7891541 168.3990479  28.5488892
  92.2671890 166.7356720  29.7317181  92.1927414 165.7453613  29.9157219
  93.2469177 166.9441376  29.8612213  91.7647247 167.2548676  30.4374504
  88.5610199 167.7486420  23.8767014  88.0264664 168.7925720  24.2989292
  87.7468872 166.7840271  23.3425846  88.2481155 165.9499512  23.0720787
  86.3062363 166.7136536  23.5134335  85.9445114 167.0966492  24.4676685
  85.6524658 167.6239319  22.5062332  84.5949860 167.7299347  22.7483120
  86.0742722 168.6248169  22.4145527  85.6418915 167.0024567  21.0586300
  86.7094345 167.3305511  20.2156544  87.5664062 167.9038239  20.5371723
  86.6890335 166.9839172  18.8642387  87.4484100 167.1929626  18.1252899
  85.5736847 166.2664337  18.3839855  85.5040970 165.9607391  17.3504925
  84.4446335 165.9691620  19.1818085  83.5914307 165.4660950  18.7512741
  84.4777679 166.3566132  20.5429230  83.6122818 166.1324005  21.1487789
  85.7670975 165.2746277  23.4838390  86.5035782 164.3304138  23.3450012
  84.5008469 165.1022949  23.6422005  83.9736328 165.9342957  23.8656540
  83.7750397 163.9068451  23.6015759  84.3647003 163.1132660  23.1426201
  83.4484558 163.3047333  24.9283333  82.7876205 164.0140076  25.4266396
  82.8270569 162.4135284  24.8404179  84.5527344 162.9760590  25.8622742
  85.1959381 163.8678894  26.6162186  85.0581818 164.9326782  26.4993191
  85.9604950 163.3424988  27.5663490  86.4643860 163.9087219  28.2338734
  85.8425827 161.9389801  27.5207386  86.2299500 160.9938507  28.4119339
  86.7652664 161.2623901  29.3106670  85.9705811 159.6249084  28.1189003
  86.1905289 158.8867340  28.8759575  85.2824631 159.2904205  26.9426537
  84.9673767 158.2781830  26.7365322  84.7576828 160.3380280  26.1201706
  84.2026443 160.0932465  25.2266312  85.0591507 161.6957397  26.3647118
  82.5394897 163.9322815  22.6500206  81.6636200 164.7985077  22.7458706
  82.5661926 163.1250153  21.6475296  83.3249969 162.4584656  21.6532726
  81.5314178 162.8084869  20.7023888  80.7598953 163.5679016  20.5752850
  81.9391556 162.6083527  19.7115288  80.7710648 161.5132141  21.1217365
  81.1671295 160.4157104  20.8136368  79.7145462 161.6975403  21.8924942
  79.3750687 162.6479492  21.9321346  78.9033890 160.6367493  22.4818745
  79.5065918 159.7334290  22.5727253  78.5083466 160.9604340  23.9200783
  77.7793961 161.7645416  23.8193512  77.9217606 160.1317444  24.3166695
  79.6475754 161.4135437  24.8956127  80.0207748 162.3475647  24.4755840
  78.9460907 161.7406158  26.1745205  78.6683578 160.7995605  26.6492710
  79.6863861 162.3249969  26.7209396  78.0861816 162.3783112  25.9695969
  80.7641296 160.4062653  25.1013012  81.4276886 160.3143311  24.2414532
  81.3778458 160.6504364  25.9683819  80.3512650 159.4075928  25.2437363
  77.6946564 160.2624664  21.6312256  77.1261902 161.2613220  21.1700401
  77.4351196 158.9947052  21.4353313  77.7700577 158.2557831  22.0369167
  76.3245392 158.4943085  20.5545063  76.4692230 159.0980988  19.6586246
  76.5689926 156.9823151  20.1130295  75.6308517 156.6179962  19.6943703
  77.6124649 156.7723999  19.0230541  78.5442657 157.2533112  19.3206787
  77.8718796 155.7274170  18.8532867  77.2372589 157.2415314  18.1135254
  76.9939423 156.2030487  21.2113094  76.2502060 156.0150452  21.7884655
  74.9662323 158.7326050  21.2526798  74.6018448 158.0979919  22.2319965
  74.2203751 159.7509766  20.7326221  74.6665268 160.2414398  19.9707203
  72.9286575 160.2627411  21.2342777  73.1302261 160.4682922  22.2855701
  72.5603561 161.6402740  20.6490650  71.8163986 162.1164093  21.2877502
  73.4937744 162.1975250  20.7283421  72.0541534 161.5700378  19.2001495
  72.7079010 162.1936493  18.5903740  72.1615677 160.5327606  18.8829708
  70.6375046 162.0124664  19.0001621  70.4500504 163.0051727  19.4094028
  70.4824066 162.0114899  17.9212532  69.6708984 161.1195679  19.6793785
  69.3283691 161.3352966  20.6047096  68.9228821 160.2468262  18.9882832
  69.0236816 159.8796234  17.7484016  69.5852661 160.3857117  17.0786324
  68.1769638 159.4843292  17.3650951  67.9480743 159.7614899  19.6619873
  67.8301544 160.1381531  20.5916805  67.2652588 159.1416626  19.2500629
  71.7556152 159.2520447  21.2596302  70.8967285 159.3206940  22.1282711
  71.8631516 158.2449341  20.3220253  72.4946594 158.4546204  19.5622005
  71.0751572 157.0355682  20.3129807  70.0225296 157.3159027  20.3515377
  71.4478683 156.2783508  19.0439339  70.8886032 155.3601227  18.8645134
  71.2205048 156.8914795  18.1718845  72.7720566 155.7700958  19.0608196
  72.7727814 154.9437714  18.5721550  71.2669373 156.0566101  21.5287666
  70.3455658 155.3212280  21.8868828  72.3665314 156.2199554  22.2756042
  73.0647507 156.8113403  21.8479748  72.7398911 155.5118256  23.5580101
  72.1102219 154.6228638  23.5950279  74.2426987 155.0566711  23.3891544
  74.9032288 155.9211121  23.4566002  74.4832458 154.3689117  24.1998482
  74.4068832 154.6317596  22.3989048  72.4315338 156.3637390  24.8530617
  72.5765762 155.8414154  25.9254055  72.0320435 157.5917053  24.7243481
  71.7179108 157.9957428  23.8536148  71.7494583 158.4196320  25.9067249
  72.1543579 157.9019165  26.7762871  72.4936066 159.8176575  25.7269840
  72.0377350 160.3226929  24.8753929  72.2201157 160.3797607  26.6199226
  73.9912415 159.9097748  25.6064243  74.4089661 159.1300507  24.9695301
  74.3986893 161.3172607  25.1001835  73.8768845 162.0593109  25.7044907
  75.4809341 161.4428711  25.1329784  74.1705093 161.3729706  24.0357914
  74.5370865 159.7899933  26.9780617  74.1041260 158.9770508  27.5609608
  75.6122742 159.6125031  26.9540672  74.4110184 160.7394714  27.4983273
  70.2969055 158.7311401  26.2954826  69.4281769 158.7796478  25.4225731
  70.0602264 158.8158722  27.6191463  70.8497925 158.7669067  28.2470684
  68.7444000 158.9799042  28.2542019  67.9596558 159.2252197  27.5385933
  68.3297119 157.7073059  28.9579563  68.4999390 156.8517914  28.3043213
  69.0802536 157.5207672  29.7260723  66.9176178 157.6372681  29.4636612
  66.7850037 158.5596619  30.0290909  65.8887711 157.4498901  28.3543930
  66.1343536 156.5568085  27.7797680  64.8863907 157.3256989  28.7641678
  65.8320847 158.3407135  27.7288399  66.7419739 156.4499969  30.4304676
  67.4354935 156.5783844  31.2615223  65.6910248 156.4705048  30.7188854
  66.9290085 155.5156403  29.9012299  68.7585220 160.1812286  29.2015915
  69.4326019 160.1639557  30.2025204  68.0166245 161.2766724  28.8879433
  67.3478775 161.6161041  27.6739807  66.3040237 161.3127594  27.7542038
  67.7069016 161.0782623  26.7965221  67.6734161 163.1164246  27.4236526
  66.8628693 163.4943695  26.8005352  68.6819839 163.3087769  27.0577507
  67.6407623 163.6393738  28.8746109  66.6207962 163.9951782  29.0201035
  68.3794861 164.4332123  28.9850445  67.9460907 162.4389343  29.7714252
  68.8992157 162.5916748  30.2777061  66.9191666 162.2217407  30.8947067
  65.8563538 162.8051758  30.9234333  67.2558517 161.3873138  31.8583813
  68.1015854 160.8547516  31.7127857  66.5809937 161.1511688  33.1355133
  65.5186462 160.9640808  32.9788971  67.2626495 159.8701019  33.8141861
  67.1546097 159.0411987  33.1146431  68.3193588 159.9715118  34.0615311
  66.6357346 159.4360962  35.1541061  67.0484543 160.0892029  35.9230118
  65.5599747 159.5966492  35.0829391  66.9745636 158.0392456  35.5614395
  68.0049133 157.8132019  35.2868958  66.8655548 157.8805389  36.6343040
  66.1098633 157.0285187  34.9124374  65.5314407 157.4577637  34.2044220
  65.8049927 155.8675385  35.3629341  66.2691116 155.4817505  36.5423088
  66.9271011 155.9769135  37.1270828  65.9617996 154.6324310  36.9943161
  65.0462799 155.0507355  34.7100639  64.7060699 155.2895355  33.7895584
  64.7340546 154.2093048  35.1733093  66.6247711 162.3556061  34.1044998
  65.5553970 162.8165131  34.5543518  67.7369232 162.8140106  34.4545937
  84.9219589 154.4860687  14.2469797  84.9321136 153.4734497  15.2879400
  84.1282349 153.3152008  14.0129080  84.5272446 152.1175690  15.9872074
  83.4580078 152.2183990  13.9866705  83.6260071 151.3662720  15.1910458
  84.6908722 151.4721527  17.1640434  83.2731018 150.2826080  15.8656406
  84.5494843 150.2147369  16.4537067  83.6410522 151.4193420  18.0445576
  82.5043640 150.4162598  17.0508633  85.4290161 149.1021576  16.2392998
  82.2359161 151.3481293  18.0490303  85.1663284 148.1495819  15.4595432
  85.6510925 156.0264893  11.9377718  85.2668228 156.6074219  12.9418726
  84.7013550 155.8618317  14.0327082  85.5687790 158.0596924  13.0490761
  84.5320435 156.8189392  14.9430475  85.3543701 158.9067078  14.2554626
  84.7358093 157.9365845  15.1621981  85.4081345 160.0916443  14.2592726
  85.8428345 158.5444336  12.2026176  86.6572723 149.4448547  16.6424465
  87.6995926 148.3946075  16.8313580  88.0799255 147.8293304  15.5303640
  88.8259277 149.0322876  17.5623417  87.2914047 147.3252411  17.8301849
  82.7689285 150.2116394  18.6248760  82.5364532 149.3019714  19.7276573
  81.2318192 149.0113831  20.2099667  83.4982452 148.5448456  20.4041023
  80.9938431 148.2096710  21.1076012  83.1653671 147.7199402  21.3034382
  81.9665375 147.6078033  21.6344738
