Cpptraj Generated Restart                                                       
   32  4.0000001E-01
  84.9338837 154.1251831  13.4064703  84.1567307 153.2869720  14.2309637
  85.9608383 153.6767273  12.5725813  84.5457993 151.9298096  14.3020248
  86.0563278 152.3906555  12.8926592  85.6638718 151.4436340  13.4796467
  84.7589722 155.9844666  11.0359116  84.7925262 156.4094849  12.1899252
  84.6486740 155.5073395  13.3823032  85.0302811 157.8463440  12.4624538
  84.7678299 156.2293854  14.4366646  84.9945526 158.5436707  13.8003855
  84.8605194 157.3636017  14.6759033  85.1675873 159.7546539  14.0800257
  85.2605820 158.4054260  11.6494560  83.0761032 153.7617950  14.9411345
  81.8563080 153.7102051  14.4482908  86.8365021 154.2378998  11.6492472
  87.6972198 153.5627136  10.9647684  83.8988266 150.9459076  15.0908966
  83.0242004 149.9617157  15.3640804  81.7906876 150.2247467  16.1016617
  83.9749756 149.9116821  16.3132362  81.7160721 150.3072815  17.5152264
  84.4069366 149.7557831  17.4839993  82.1419830 150.1085815  18.8268871
  83.3565903 149.9357758  18.1615772  81.8375473 149.2443848  19.2739353
  80.5304108 150.5295563  15.4384089  80.4934464 150.4189148  14.2020826
  79.3845215 151.0872498  15.9039278  79.5578613 151.1598663  16.8580971
