;
;   File /home/ubuntu/rayca-sessions/e26cbe99-cda1-479d-beb9-9d03c9c7cc03-d43a861c8a85/md_EDS01806218_ent1/abfe_solv/lig_solv.top  was generated
;   By user: ubuntu (1000)
;   On host:platform.europe-north1-a.c.project-s-496512.internal 
;   At date:Fri. September  5 23:32:36 2026 
;
;   This is a standalone topology file
;
;   Created by:
;   ParmEd:       abfe_parmed_conv.py, VERSION4.3.1 
;   Executable:   abfe_parmed_conv.py
;   Library dir:  /home/ubuntu/rayca-runtime/.mamba/envs/rayca/share/gromacs/top
;   Command line:
;     /home/ubuntu/rayca-sessions/e26cbe99-cda1-479d-beb9-9d03c9c7cc03-d43a861c8a85/abfe_parmed_conv.py EDS01806218_ent1 /home/ubuntu/rayca-sessions/e26cbe99-cda1-479d-beb9-9d03c9c7cc03-d43a861c8a85
;

[ defaults ]
; nbfunc        comb-rule       gen-pairs       fudgeLJ fudgeQQ
1               2               yes             0.5          0.83333333  

[ atomtypes ]
; name    at.num    mass    charge ptype  sigma      epsilon
n3             7  14.010000  0.00000000  A     0.33651026      0.3589872
c6             6  12.010000  0.00000000  A     0.33977095      0.4510352
n              7  14.010000  0.00000000  A     0.31808648      0.6845024
ca             6  12.010000  0.00000000  A     0.33152123      0.4133792
c              6  12.010000  0.00000000  A     0.33152123      0.4133792
o              8  16.000000  0.00000000  A     0.30481209      0.6121192
c3             6  12.010000  0.00000000  A     0.33977095      0.4510352
nb             7  14.010000  0.00000000  A     0.33841679      0.3937144
sy            16  32.060000  0.00000000  A        0.40584      0.2568976
cx             6  12.010000  0.00000000  A     0.33977095      0.4510352
nu             7  14.010000  0.00000000  A     0.32790418       0.646428
hn             1   1.008000  0.00000000  A     0.11064962        0.04184
h1             1   1.008000  0.00000000  A     0.24219973      0.0870272
hc             1   1.008000  0.00000000  A      0.2600177      0.0870272
h4             1   1.008000  0.00000000  A     0.25363887      0.0673624
ha             1   1.008000  0.00000000  A     0.26254785      0.0673624
OW             8  16.000000  0.00000000  A     0.31507524       0.635968
HW             1   1.008000  0.00000000  A              0              0


[ moleculetype ]
; Name            nrexcl
LIG          3

[ atoms ]
;   nr       type  resnr residue  atom   cgnr    charge       mass  typeB    chargeB      massB
; residue    1 LIG rtp LIG q -0.0
    1         n3      1    LIG     N1      1 -0.81350000  14.010000   ; qtot -0.813500
    2         c6      1    LIG     C1      2 0.21780000  12.010000   ; qtot -0.595700
    3         c6      1    LIG     C2      3 0.21880000  12.010000   ; qtot -0.376900
    4         c6      1    LIG     C3      4 0.15900000  12.010000   ; qtot -0.217900
    5         c6      1    LIG     C4      5 0.08370000  12.010000   ; qtot -0.134200
    6          n      1    LIG     N2      6 -0.46280000  14.010000   ; qtot -0.597000
    7         ca      1    LIG     C5      7 -0.33590000  12.010000   ; qtot -0.932900
    8         c6      1    LIG     C6      8 -0.16370000  12.010000   ; qtot -1.096600
    9          c      1    LIG     C7      9 0.66510000  12.010000   ; qtot -0.431500
   10         ca      1    LIG     C8     10 0.62520000  12.010000   ; qtot 0.193700
   11         ca      1    LIG     C9     11 0.47060000  12.010000   ; qtot 0.664300
   12          o      1    LIG     O1     12 -0.60110000  16.000000   ; qtot 0.063200
   13         c3      1    LIG    C10     13 -0.17010000  12.010000   ; qtot -0.106900
   14         nb      1    LIG     N3     14 -0.74200000  14.010000   ; qtot -0.848900
   15         nb      1    LIG     N4     15 -0.70100000  14.010000   ; qtot -1.549900
   16         ca      1    LIG    C11     16 0.70830000  12.010000   ; qtot -0.841600
   17         sy      1    LIG     S1     17 1.51420000  32.060000   ; qtot 0.672600
   18          o      1    LIG     O2     18 -0.65080000  16.000000   ; qtot 0.021800
   19          o      1    LIG     O3     19 -0.65080000  16.000000   ; qtot -0.629000
   20         ca      1    LIG    C12     20 -0.49780000  12.010000   ; qtot -1.126800
   21         ca      1    LIG    C13     21 0.50720000  12.010000   ; qtot -0.619600
   22         ca      1    LIG    C14     22 0.02100000  12.010000   ; qtot -0.598600
   23         nb      1    LIG     N5     23 -0.68000000  14.010000   ; qtot -1.278600
   24         ca      1    LIG    C15     24 -0.27230000  12.010000   ; qtot -1.550900
   25         ca      1    LIG    C16     25 0.45620000  12.010000   ; qtot -1.094700
   26         cx      1    LIG    C17     26 -0.18100000  12.010000   ; qtot -1.275700
   27         cx      1    LIG    C18     27 -0.11040000  12.010000   ; qtot -1.386100
   28         cx      1    LIG    C19     28 -0.11040000  12.010000   ; qtot -1.496500
   29         nu      1    LIG     N6     29 -0.81290000  14.010000   ; qtot -2.309400
   30         hn      1    LIG     H1     30 0.38280000   1.008000   ; qtot -1.926600
   31         c3      1    LIG    C20     31 0.17580000  12.010000   ; qtot -1.750800
   32         cx      1    LIG    C21     32 -0.15770000  12.010000   ; qtot -1.908500
   33         cx      1    LIG    C22     33 -0.12940000  12.010000   ; qtot -2.037900
   34         cx      1    LIG    C23     34 -0.12940000  12.010000   ; qtot -2.167300
   35         h1      1    LIG     H2     35 0.06620000   1.008000   ; qtot -2.101100
   36         h1      1    LIG     H3     36 0.06620000   1.008000   ; qtot -2.034900
   37         h1      1    LIG     H4     37 0.06070000   1.008000   ; qtot -1.974200
   38         h1      1    LIG     H5     38 0.06070000   1.008000   ; qtot -1.913500
   39         h1      1    LIG     H6     39 0.09670000   1.008000   ; qtot -1.816800
   40         h1      1    LIG     H7     40 0.10270000   1.008000   ; qtot -1.714100
   41         hc      1    LIG     H8     41 0.08670000   1.008000   ; qtot -1.627400
   42         hc      1    LIG     H9     42 0.08670000   1.008000   ; qtot -1.540700
   43         hc      1    LIG    H10     43 0.06936700   1.008000   ; qtot -1.471333
   44         hc      1    LIG    H11     44 0.06936700   1.008000   ; qtot -1.401966
   45         hc      1    LIG    H12     45 0.06936700   1.008000   ; qtot -1.332599
   46         h4      1    LIG    H13     46 0.04110000   1.008000   ; qtot -1.291499
   47         ha      1    LIG    H14     47 0.16100000   1.008000   ; qtot -1.130499
   48         ha      1    LIG    H15     48 0.15500000   1.008000   ; qtot -0.975499
   49         h4      1    LIG    H16     49 0.03010000   1.008000   ; qtot -0.945399
   50         hc      1    LIG    H17     50 0.10770000   1.008000   ; qtot -0.837699
   51         hc      1    LIG    H18     51 0.07870000   1.008000   ; qtot -0.758999
   52         hc      1    LIG    H19     52 0.07870000   1.008000   ; qtot -0.680299
   53         hc      1    LIG    H20     53 0.07870000   1.008000   ; qtot -0.601599
   54         hc      1    LIG    H21     54 0.07870000   1.008000   ; qtot -0.522899
   55         h1      1    LIG    H22     55 0.06970000   1.008000   ; qtot -0.453199
   56         h1      1    LIG    H23     56 0.06970000   1.008000   ; qtot -0.383499
   57         hc      1    LIG    H24     57 0.09870000   1.008000   ; qtot -0.284799
   58         hc      1    LIG    H25     58 0.07070000   1.008000   ; qtot -0.214099
   59         hc      1    LIG    H26     59 0.07070000   1.008000   ; qtot -0.143399
   60         hc      1    LIG    H27     60 0.07070000   1.008000   ; qtot -0.072699
   61         hc      1    LIG    H28     61 0.07070000   1.008000   ; qtot -0.001999

[ bonds ]
;    ai     aj funct         c0         c1         c2         c3
      1     17     1   0.17051 242546.480000
      1      2     1   0.14657 211986.544000
      1      3     1   0.14657 211986.544000
      2      4     1   0.15384 189794.608000
      3      5     1   0.15384 189794.608000
      4      6     1   0.14669 211174.848000
      4      7     1   0.15203 200606.064000
      5      8     1   0.15384 189794.608000
      5      6     1   0.14669 211174.848000
      6      9     1   0.13967 265650.528000
      7     10     1   0.13986 296436.400000
      7     11     1   0.13986 296436.400000
      8     11     1   0.15203 200606.064000
      9     12     1   0.12190 494214.080000
      9     13     1   0.15270 196522.480000
     10     14     1   0.13392 323414.832000
     10     29     1   0.13944 267709.056000
     11     15     1   0.13392 323414.832000
     14     16     1   0.13392 323414.832000
     15     16     1   0.13392 323414.832000
     16     26     1   0.14955 216655.888000
     17     18     1   0.14656 514364.224000
     17     19     1   0.14656 514364.224000
     17     20     1   0.17913 175577.376000
     20     21     1   0.13986 296436.400000
     20     22     1   0.13986 296436.400000
     21     23     1   0.13392 323414.832000
     22     24     1   0.13986 296436.400000
     23     25     1   0.13392 323414.832000
     24     25     1   0.13986 296436.400000
     26     27     1   0.15082 208246.048000
     26     28     1   0.15082 208246.048000
     27     28     1   0.15082 208246.048000
     29     31     1   0.14590 216580.576000
     31     32     1   0.15174 202405.184000
     32     33     1   0.15082 208246.048000
     32     34     1   0.15082 208246.048000
     33     34     1   0.15082 208246.048000
      2     35     1   0.10984 286202.336000
      2     36     1   0.10984 286202.336000
      3     37     1   0.10984 286202.336000
      3     38     1   0.10984 286202.336000
      4     39     1   0.10984 286202.336000
      5     40     1   0.10984 286202.336000
      8     41     1   0.10979 286813.200000
      8     42     1   0.10979 286813.200000
     13     43     1   0.10962 288905.200000
     13     44     1   0.10962 288905.200000
     13     45     1   0.10962 288905.200000
     21     46     1   0.10885 298586.976000
     22     47     1   0.10860 301825.392000
     24     48     1   0.10860 301825.392000
     25     49     1   0.10885 298586.976000
     26     50     1   0.10865 301172.688000
     27     51     1   0.10865 301172.688000
     27     52     1   0.10865 301172.688000
     28     53     1   0.10865 301172.688000
     28     54     1   0.10865 301172.688000
     29     30     1   0.10137 395379.632000
     31     55     1   0.10969 288043.296000
     31     56     1   0.10969 288043.296000
     32     57     1   0.10865 301172.688000
     33     58     1   0.10865 301172.688000
     33     59     1   0.10865 301172.688000
     34     60     1   0.10865 301172.688000
     34     61     1   0.10865 301172.688000

[ pairs ]
;    ai     aj funct         c0         c1         c2         c3
      1     21     1
      1     22     1
      1      6     1
      1      7     1
      1      8     1
      2     18     1
      2     19     1
      2     20     1
      2      5     1
      2      9     1
      2     10     1
      2     11     1
      3     18     1
      3     19     1
      3     20     1
      3      4     1
      3     11     1
      3      9     1
     17      4     1
      4     12     1
      4     13     1
      4      8     1
      4     14     1
      4     29     1
      4     15     1
     17      5     1
      5      7     1
      5     15     1
      5     12     1
      5     13     1
      6     10     1
      6     11     1
      7      9     1
      7     16     1
      7     31     1
      8      9     1
      8     10     1
      8     16     1
     10     15     1
     10     26     1
     10     32     1
     11     14     1
     11     29     1
     11     26     1
     14     31     1
     14     27     1
     14     28     1
     15     27     1
     15     28     1
     16     29     1
     17     23     1
     17     24     1
     18     21     1
     18     22     1
     19     21     1
     19     22     1
     20     25     1
     21     24     1
     22     23     1
     29     33     1
     29     34     1
      1     39     1
      1     40     1
      2     37     1
      2     38     1
      3     35     1
      3     36     1
      3     41     1
      3     42     1
      4     40     1
      5     39     1
      6     35     1
      6     36     1
      6     43     1
      6     44     1
      6     45     1
      6     37     1
      6     38     1
      6     41     1
      6     42     1
      7     35     1
      7     36     1
      7     30     1
      7     41     1
      7     42     1
      8     37     1
      8     38     1
      9     39     1
      9     40     1
     10     39     1
     10     55     1
     10     56     1
     11     39     1
     11     40     1
     12     43     1
     12     44     1
     12     45     1
     14     30     1
     14     50     1
     15     41     1
     15     42     1
     15     50     1
     16     51     1
     16     52     1
     16     53     1
     16     54     1
     17     35     1
     17     36     1
     17     37     1
     17     38     1
     17     46     1
     17     47     1
     20     48     1
     21     47     1
     21     49     1
     22     46     1
     22     49     1
     23     48     1
     25     46     1
     25     47     1
     29     57     1
     30     32     1
     30     55     1
     30     56     1
     31     58     1
     31     59     1
     31     60     1
     31     61     1
     33     55     1
     33     56     1
     34     55     1
     34     56     1
     35     39     1
     36     39     1
     37     40     1
     38     40     1
     40     41     1
     40     42     1
     47     48     1
     48     49     1
     50     51     1
     50     52     1
     50     53     1
     50     54     1
     51     53     1
     51     54     1
     52     53     1
     52     54     1
     55     57     1
     56     57     1
     57     58     1
     57     59     1
     57     60     1
     57     61     1
     58     60     1
     58     61     1
     59     60     1
     59     61     1

[ angles ]
;    ai     aj     ak funct         c0         c1         c2         c3
      1     17     18     1   107.3500457 1113.446080
      1     17     19     1   107.3500457 1113.446080
      1     17     20     1   102.3700438 854.121760
      1      2      4     1   110.8400474 547.434560
      1      3      5     1   110.8400474 547.434560
      2      1     17     1   115.1500496 681.071520
      2      1      3     1   110.7000474 654.293920
      2      4      6     1   111.1700476 546.346720
      2      4      7     1   111.9700479 504.423040
      3      1     17     1   115.1500496 681.071520
      3      5      8     1   111.0600477 503.586240
      3      5      6     1   111.1700476 546.346720
      4      6      9     1   120.4700516 641.239840
      4      6      5     1   114.0700488 644.001280
      4      7     10     1   120.6000517 507.602880
      4      7     11     1   120.6000517 507.602880
      5      8     11     1   111.9700479 504.423040
      5      6      9     1   120.4700516 641.239840
      6      4      7     1   111.8900481 548.187680
      6      9     12     1   122.5700525 725.338240
      6      9     13     1   117.1600503 545.509920
      6      5      8     1   111.1700476 546.346720
      7     10     14     1   122.9400526 570.446560
      7     10     29     1   120.7400516 564.756320
      7     11     15     1   122.9400526 570.446560
      7     11      8     1   120.6000517 507.602880
      8     11     15     1   115.6900498 559.066080
     10      7     11     1   120.0200517 532.790560
     10     14     16     1   117.2400501 695.799200
     10     29     31     1   123.7300531 635.131200
     11     15     16     1   117.2400501 695.799200
     12      9     13     1   122.9000527 639.733600
     14     10     29     1   117.1700502 621.324000
     14     16     26     1   116.9000501 562.078560
     14     16     15     1   127.3000546 608.855680
     15     16     26     1   116.9000501 562.078560
     16     26     27     1   121.8400521 492.456800
     16     26     28     1   121.8400521 492.456800
     17     20     21     1   119.4100510 527.853440
     17     20     22     1   119.4100510 527.853440
     18     17     19     1   121.3800518 1320.052000
     18     17     20     1   108.3400463 1007.758240
     19     17     20     1   108.3400463 1007.758240
     20     21     23     1   122.9400526 570.446560
     20     22     24     1   120.0200517 532.790560
     21     20     22     1   120.0200517 532.790560
     21     23     25     1   117.2400501 695.799200
     22     24     25     1   120.0200517 532.790560
     23     25     24     1   122.9400526 570.446560
     26     27     28     1   60.0000257 698.811680
     26     28     27     1   60.0000257 698.811680
     27     26     28     1   60.0000257 698.811680
     29     31     32     1   111.3900479 551.367520
     31     32     33     1   120.7600519 491.117920
     31     32     34     1   120.7600519 491.117920
     32     33     34     1   60.0000257 698.811680
     32     34     33     1   60.0000257 698.811680
     33     32     34     1   60.0000257 698.811680
      1      2     35     1   109.6300470 400.408800
      1      2     36     1   109.6300470 400.408800
      1      3     37     1   109.6300470 400.408800
      1      3     38     1   109.6300470 400.408800
      2      4     39     1   109.1800466 362.167040
      3      5     40     1   109.1800466 362.167040
      4      2     35     1   109.1800466 362.167040
      4      2     36     1   109.1800466 362.167040
      5      3     37     1   109.1800466 362.167040
      5      3     38     1   109.1800466 362.167040
      5      8     41     1   109.4500472 361.748640
      5      8     42     1   109.4500472 361.748640
      6      4     39     1   108.5200467 402.166080
      6      5     40     1   108.5200467 402.166080
      7      4     39     1   108.9300467 366.518400
      8      5     40     1   109.1800466 362.167040
      9     13     43     1   108.9500470 365.095840
      9     13     44     1   108.9500470 365.095840
      9     13     45     1   108.9500470 365.095840
     10     29     30     1   114.7300492 480.825280
     11      8     41     1   109.4700469 365.597920
     11      8     42     1   109.4700469 365.597920
     16     26     50     1   113.7200490 364.426400
     20     21     46     1   120.3200518 374.886400
     20     22     47     1   119.8800511 375.723200
     22     24     48     1   119.8800511 375.723200
     23     21     46     1   116.0200500 419.236800
     23     25     49     1   116.0200500 419.236800
     24     22     47     1   119.8800511 375.723200
     24     25     49     1   120.3200518 374.886400
     25     24     48     1   119.8800511 375.723200
     26     27     51     1   117.6900506 355.556320
     26     27     52     1   117.6900506 355.556320
     26     28     53     1   117.6900506 355.556320
     26     28     54     1   117.6900506 355.556320
     27     26     50     1   117.6900506 355.556320
     27     28     53     1   117.6900506 355.556320
     27     28     54     1   117.6900506 355.556320
     28     26     50     1   117.6900506 355.556320
     28     27     51     1   117.6900506 355.556320
     28     27     52     1   117.6900506 355.556320
     29     31     55     1   109.6600471 401.998720
     29     31     56     1   109.6600471 401.998720
     30     29     31     1   115.3100492 460.240000
     31     32     57     1   113.7200490 359.740320
     32     31     55     1   109.6200472 366.016320
     32     31     56     1   109.6200472 366.016320
     32     33     58     1   117.6900506 355.556320
     32     33     59     1   117.6900506 355.556320
     32     34     60     1   117.6900506 355.556320
     32     34     61     1   117.6900506 355.556320
     33     32     57     1   117.6900506 355.556320
     33     34     60     1   117.6900506 355.556320
     33     34     61     1   117.6900506 355.556320
     34     32     57     1   117.6900506 355.556320
     34     33     58     1   117.6900506 355.556320
     34     33     59     1   117.6900506 355.556320
     35      2     36     1   107.5000461 299.323360
     37      3     38     1   107.5000461 299.323360
     41      8     42     1   106.6200459 300.662240
     43     13     44     1   107.7300462 299.574400
     43     13     45     1   107.7300462 299.574400
     44     13     45     1   107.7300462 299.574400
     51     27     52     1   114.4300491 293.298400
     53     28     54     1   114.4300491 293.298400
     55     31     56     1   108.5500468 298.235520
     58     33     59     1   114.4300491 293.298400
     60     34     61     1   114.4300491 293.298400

[ dihedrals ]
;    ai     aj     ak     al funct         c0         c1         c2         c3         c4         c5
      1     17     20     21     1  180.0000771  5.4392000  2
      1     17     20     22     1  180.0000771  5.4392000  2
      1      2      4      6     1  0.0000000  0.6508444  3
      1      2      4      7     1  0.0000000  0.4184000  3
      1      3      5      8     1  0.0000000  0.8786400  3
      1      3      5      6     1  0.0000000  0.6508444  3
      2      1     17     18     1  0.0000000  13.1098667  2
      2      1     17     19     1  0.0000000  13.1098667  2
      2      1     17     20     1  0.0000000  13.1098667  2
      2      1      3      5     1  0.0000000  3.0543200  3
      2      4      6      9     1  180.0000771  4.2676800  1
      2      4      6      9     1  0.0000000  0.7112800  3
      2      4      6      9     1  180.0000771  0.4184000  4
      2      4      6      5     1  0.0000000  0.0000000  2
      2      4      7     10     1  180.0000771  1.0041600  2
      2      4      7     11     1  180.0000771  1.0041600  2
      3      1     17     18     1  0.0000000  13.1098667  2
      3      1     17     19     1  0.0000000  13.1098667  2
      3      1     17     20     1  0.0000000  13.1098667  2
      3      1      2      4     1  0.0000000  3.0543200  3
      3      5      8     11     1  0.0000000  0.6508444  3
      3      5      6      4     1  0.0000000  0.0000000  2
      3      5      6      9     1  180.0000771  4.2676800  1
      3      5      6      9     1  0.0000000  0.7112800  3
      3      5      6      9     1  180.0000771  0.4184000  4
     17      1      2      4     1  0.0000000  1.2552000  3
      4      6      9     12     1  180.0000771  10.4600000  2
      4      6      9     13     1  0.0000000  12.2591200  1
      4      6      9     13     1  180.0000771  5.8994400  2
      4      6      9     13     1  0.0000000  2.0920000  3
      4      6      5      8     1  0.0000000  0.0000000  2
      4      7     10     14     1  180.0000771  15.1670000  2
      4      7     10     29     1  180.0000771  15.1670000  2
      4      7     11     15     1  180.0000771  15.1670000  2
      4      7     11      8     1  180.0000771  15.1670000  2
     17      1      3      5     1  0.0000000  1.2552000  3
      5      8     11      7     1  180.0000771  1.0041600  2
      5      8     11     15     1  0.0000000  0.0000000  2
      5      6      4      7     1  0.0000000  0.0000000  2
      5      6      9     12     1  180.0000771  10.4600000  2
      5      6      9     13     1  0.0000000  12.2591200  1
      5      6      9     13     1  180.0000771  5.8994400  2
      5      6      9     13     1  0.0000000  2.0920000  3
      6      4      7     10     1  0.0000000  0.0000000  2
      6      4      7     11     1  0.0000000  0.0000000  2
      6      5      8     11     1  0.0000000  0.8786400  3
      7      4      6      9     1  0.0000000  0.0000000  2
      7     10     14     16     1  180.0000771  20.0832000  2
      7     10     29     31     1  180.0000771  1.3807200  2
      7     11     15     16     1  180.0000771  20.0832000  2
      8      5      6      9     1  180.0000771  4.2676800  1
      8      5      6      9     1  0.0000000  0.7112800  3
      8      5      6      9     1  180.0000771  0.4184000  4
      8     11      7     10     1  180.0000771  15.1670000  2
      8     11     15     16     1  180.0000771  20.0832000  2
     10      7     11     15     1  180.0000771  15.1670000  2
     10     14     16     26     1  180.0000771  20.0832000  2
     10     14     16     15     1  180.0000771  20.0832000  2
     10     29     31     32     1  0.0000000  0.0000000  2
     11      7     10     14     1  180.0000771  15.1670000  2
     11      7     10     29     1  180.0000771  15.1670000  2
     11     15     16     14     1  180.0000771  20.0832000  2
     11     15     16     26     1  180.0000771  20.0832000  2
     14     10     29     31     1  180.0000771  4.3932000  2
     14     16     26     27     1  0.0000000  0.0000000  2
     14     16     26     28     1  0.0000000  0.0000000  2
     15     16     26     27     1  0.0000000  0.0000000  2
     15     16     26     28     1  0.0000000  0.0000000  2
     16     14     10     29     1  180.0000771  20.0832000  2
     16     26     27     28     1  0.0000000  0.6508444  3
     16     26     28     27     1  0.0000000  0.6508444  3
     17     20     21     23     1  180.0000771  15.1670000  2
     17     20     22     24     1  180.0000771  15.1670000  2
     18     17     20     21     1  180.0000771  5.4392000  2
     18     17     20     22     1  180.0000771  5.4392000  2
     19     17     20     21     1  180.0000771  5.4392000  2
     19     17     20     22     1  180.0000771  5.4392000  2
     20     21     23     25     1  180.0000771  20.0832000  2
     20     22     24     25     1  180.0000771  15.1670000  2
     21     20     22     24     1  180.0000771  15.1670000  2
     21     23     25     24     1  180.0000771  20.0832000  2
     22     20     21     23     1  180.0000771  15.1670000  2
     22     24     25     23     1  180.0000771  15.1670000  2
     29     31     32     33     1  0.0000000  2.8032800  1
     29     31     32     34     1  0.0000000  2.8032800  1
     31     32     33     34     1  0.0000000  0.6508444  3
     31     32     34     33     1  0.0000000  0.6508444  3
      9      4      6      5     4  180.0000771  4.6024000  2
      4     10      7     11     4  180.0000771  4.6024000  2
     13      6      9     12     4  180.0000771  43.9320000  2
      7     14     10     29     4  180.0000771  43.9320000  2
      8      7     11     15     4  180.0000771  43.9320000  2
     26     14     16     15     4  180.0000771  43.9320000  2
     21     22     20     17     4  180.0000771  43.9320000  2
      1      2      4     39     1  0.0000000  0.6508444  3
      1      3      5     40     1  0.0000000  0.6508444  3
      2      1      3     37     1  0.0000000  0.9414000  3
      2      1      3     38     1  0.0000000  0.9414000  3
      3      1      2     35     1  0.0000000  0.9414000  3
      3      1      2     36     1  0.0000000  0.9414000  3
      3      5      8     41     1  0.0000000  0.5439200  3
      3      5      8     42     1  0.0000000  0.5439200  3
      4      6      5     40     1  0.0000000  0.0000000  2
      5      6      4     39     1  0.0000000  0.0000000  2
      6      4      2     35     1  0.0000000  0.6508444  3
      6      4      2     36     1  0.0000000  0.6508444  3
      6      9     13     43     1  180.0000771  0.0000000  2
      6      9     13     44     1  180.0000771  0.0000000  2
      6      9     13     45     1  180.0000771  0.0000000  2
      6      5      3     37     1  0.0000000  0.6508444  3
      6      5      3     38     1  0.0000000  0.6508444  3
      6      5      8     41     1  0.0000000  0.6508444  3
      6      5      8     42     1  0.0000000  0.6508444  3
      7      4      2     35     1  0.0000000  0.6508444  3
      7      4      2     36     1  0.0000000  0.6508444  3
      7     10     29     30     1  180.0000771  4.3932000  2
      7     11      8     41     1  0.0000000  0.0000000  1
      7     11      8     42     1  0.0000000  0.0000000  1
      8      5      3     37     1  0.0000000  0.6508444  3
      8      5      3     38     1  0.0000000  0.6508444  3
      9      6      4     39     1  180.0000771  0.0000000  2
      9      6      5     40     1  180.0000771  0.0000000  2
     10      7      4     39     1  0.0000000  0.0000000  2
     10     29     31     55     1  0.0000000  1.7572800  3
     10     29     31     56     1  0.0000000  1.7572800  3
     11      7      4     39     1  0.0000000  0.0000000  2
     11      8      5     40     1  0.0000000  0.6508444  3
     12      9     13     43     1  0.0000000  16.8615200  1
     12      9     13     43     1  180.0000771  15.3134400  2
     12      9     13     44     1  0.0000000  16.8615200  1
     12      9     13     44     1  180.0000771  15.3134400  2
     12      9     13     45     1  0.0000000  16.8615200  1
     12      9     13     45     1  180.0000771  15.3134400  2
     14     10     29     30     1  180.0000771  4.3932000  2
     14     16     26     50     1  0.0000000  0.0000000  2
     15     11      8     41     1  0.0000000  0.0000000  2
     15     11      8     42     1  0.0000000  0.0000000  2
     15     16     26     50     1  0.0000000  0.0000000  2
     16     26     27     51     1  0.0000000  0.6508444  3
     16     26     27     52     1  0.0000000  0.6508444  3
     16     26     28     53     1  0.0000000  0.6508444  3
     16     26     28     54     1  0.0000000  0.6508444  3
     17      1      2     35     1  0.0000000  1.2552000  3
     17      1      2     36     1  0.0000000  1.2552000  3
     17      1      3     37     1  0.0000000  1.2552000  3
     17      1      3     38     1  0.0000000  1.2552000  3
     17     20     21     46     1  180.0000771  15.1670000  2
     17     20     22     47     1  180.0000771  15.1670000  2
     20     22     24     48     1  180.0000771  15.1670000  2
     21     20     22     47     1  180.0000771  15.1670000  2
     21     23     25     49     1  180.0000771  20.0832000  2
     22     20     21     46     1  180.0000771  15.1670000  2
     22     24     25     49     1  180.0000771  15.1670000  2
     23     25     24     48     1  180.0000771  15.1670000  2
     25     23     21     46     1  180.0000771  20.0832000  2
     25     24     22     47     1  180.0000771  15.1670000  2
     26     27     28     53     1  0.0000000  0.6508444  3
     26     27     28     54     1  0.0000000  0.6508444  3
     26     28     27     51     1  0.0000000  0.6508444  3
     26     28     27     52     1  0.0000000  0.6508444  3
     27     26     28     53     1  0.0000000  0.6508444  3
     27     26     28     54     1  0.0000000  0.6508444  3
     27     28     26     50     1  0.0000000  0.6508444  3
     28     26     27     51     1  0.0000000  0.6508444  3
     28     26     27     52     1  0.0000000  0.6508444  3
     28     27     26     50     1  0.0000000  0.6508444  3
     29     31     32     57     1  0.0000000  0.6508444  3
     30     29     31     32     1  0.0000000  0.0000000  2
     30     29     31     55     1  0.0000000  0.0000000  2
     30     29     31     56     1  0.0000000  0.0000000  2
     31     32     33     58     1  0.0000000  0.6508444  3
     31     32     33     59     1  0.0000000  0.6508444  3
     31     32     34     60     1  0.0000000  0.6508444  3
     31     32     34     61     1  0.0000000  0.6508444  3
     32     33     34     60     1  0.0000000  0.6508444  3
     32     33     34     61     1  0.0000000  0.6508444  3
     32     34     33     58     1  0.0000000  0.6508444  3
     32     34     33     59     1  0.0000000  0.6508444  3
     33     32     31     55     1  0.0000000  0.5439200  3
     33     32     31     56     1  0.0000000  0.5439200  3
     33     32     34     60     1  0.0000000  0.6508444  3
     33     32     34     61     1  0.0000000  0.6508444  3
     33     34     32     57     1  0.0000000  0.6508444  3
     34     32     31     55     1  0.0000000  0.5439200  3
     34     32     31     56     1  0.0000000  0.5439200  3
     34     32     33     58     1  0.0000000  0.6508444  3
     34     32     33     59     1  0.0000000  0.6508444  3
     34     33     32     57     1  0.0000000  0.6508444  3
     35      2      4     39     1  0.0000000  0.6508444  3
     36      2      4     39     1  0.0000000  0.6508444  3
     37      3      5     40     1  0.0000000  0.6508444  3
     38      3      5     40     1  0.0000000  0.6508444  3
     40      5      8     41     1  0.0000000  0.6508444  3
     40      5      8     42     1  0.0000000  0.6508444  3
     47     22     24     48     1  180.0000771  15.1670000  2
     48     24     25     49     1  180.0000771  15.1670000  2
     50     26     27     51     1  0.0000000  0.6508444  3
     50     26     27     52     1  0.0000000  0.6508444  3
     50     26     28     53     1  0.0000000  0.6508444  3
     50     26     28     54     1  0.0000000  0.6508444  3
     51     27     28     53     1  0.0000000  0.6508444  3
     51     27     28     54     1  0.0000000  0.6508444  3
     52     27     28     53     1  0.0000000  0.6508444  3
     52     27     28     54     1  0.0000000  0.6508444  3
     55     31     32     57     1  0.0000000  0.5020800  3
     56     31     32     57     1  0.0000000  0.5020800  3
     57     32     33     58     1  0.0000000  0.6508444  3
     57     32     33     59     1  0.0000000  0.6508444  3
     57     32     34     60     1  0.0000000  0.6508444  3
     57     32     34     61     1  0.0000000  0.6508444  3
     58     33     34     60     1  0.0000000  0.6508444  3
     58     33     34     61     1  0.0000000  0.6508444  3
     59     33     34     60     1  0.0000000  0.6508444  3
     59     33     34     61     1  0.0000000  0.6508444  3
     20     46     21     23     4  180.0000771  43.9320000  2
     20     24     22     47     4  180.0000771  4.6024000  2
     22     25     24     48     4  180.0000771  4.6024000  2
     24     49     25     23     4  180.0000771  43.9320000  2
     31     10     29     30     4  180.0000771  4.6024000  2


[ moleculetype ]
; Name            nrexcl
WAT          3

[ atoms ]
;   nr       type  resnr residue  atom   cgnr    charge       mass  typeB    chargeB      massB
; residue    1 WAT rtp WAT q 0.0
    1         OW      1    WAT      O      1 -0.83400000  16.000000   ; qtot -0.834000
    2         HW      1    WAT     H1      2 0.41700000   1.008000   ; qtot -0.417000
    3         HW      1    WAT     H2      3 0.41700000   1.008000   ; qtot 0.000000

#ifdef FLEXIBLE

[ bonds ]
;    ai     aj funct         c0         c1         c2         c3
      2      1     1   0.09572 462750.400000
      3      1     1   0.09572 462750.400000
      3      2     1   0.15136 462750.400000


#else

[ settles ]
; i     funct   doh     dhh
1     1   0.09572000   0.15136000

#endif

[ exclusions ]
1  2  3
2  1  3
3  1  2

[ system ]
; Name
Generic title

[ molecules ]
; Compound       #mols
LIG                  1
WAT               1595
