;
;   File /home/ubuntu/rayca-sessions/e26cbe99-cda1-479d-beb9-9d03c9c7cc03-d43a861c8a85/md_EDS01889984/abfe_solv/lig_solv.top  was generated
;   By user: ubuntu (1000)
;   On host:platform.europe-north1-a.c.project-s-496512.internal 
;   At date:Fri. September  5 23:32:37 2026 
;
;   This is a standalone topology file
;
;   Created by:
;   ParmEd:       abfe_parmed_conv.py, VERSION4.3.1 
;   Executable:   abfe_parmed_conv.py
;   Library dir:  /home/ubuntu/rayca-runtime/.mamba/envs/rayca/share/gromacs/top
;   Command line:
;     /home/ubuntu/rayca-sessions/e26cbe99-cda1-479d-beb9-9d03c9c7cc03-d43a861c8a85/abfe_parmed_conv.py EDS01889984 /home/ubuntu/rayca-sessions/e26cbe99-cda1-479d-beb9-9d03c9c7cc03-d43a861c8a85
;

[ defaults ]
; nbfunc        comb-rule       gen-pairs       fudgeLJ fudgeQQ
1               2               yes             0.5          0.83333333  

[ atomtypes ]
; name    at.num    mass    charge ptype  sigma      epsilon
ca             6  12.010000  0.00000000  A     0.33152123      0.4133792
nb             7  14.010000  0.00000000  A     0.33841679      0.3937144
cc             6  12.010000  0.00000000  A     0.33152123      0.4133792
na             7  14.010000  0.00000000  A     0.32058099      0.8543728
cd             6  12.010000  0.00000000  A     0.33152123      0.4133792
c3             6  12.010000  0.00000000  A     0.33977095      0.4510352
nh             7  14.010000  0.00000000  A      0.3189952        0.89956
c              6  12.010000  0.00000000  A     0.33152123      0.4133792
o              8  16.000000  0.00000000  A     0.30481209      0.6121192
ns             7  14.010000  0.00000000  A     0.32699547      0.4912016
hn             1   1.008000  0.00000000  A     0.11064962        0.04184
n              7  14.010000  0.00000000  A     0.31808648      0.6845024
c6             6  12.010000  0.00000000  A     0.33977095      0.4510352
ss            16  32.060000  0.00000000  A     0.35324134      1.1815616
os             8  16.000000  0.00000000  A     0.31560978      0.3037584
ha             1   1.008000  0.00000000  A     0.26254785      0.0673624
h4             1   1.008000  0.00000000  A     0.25363887      0.0673624
h1             1   1.008000  0.00000000  A     0.24219973      0.0870272
hc             1   1.008000  0.00000000  A      0.2600177      0.0870272
OW             8  16.000000  0.00000000  A     0.31507524       0.635968
HW             1   1.008000  0.00000000  A              0              0


[ moleculetype ]
; Name            nrexcl
LIG          3

[ atoms ]
;   nr       type  resnr residue  atom   cgnr    charge       mass  typeB    chargeB      massB
; residue    1 LIG rtp LIG q -0.0
    1         ca      1    LIG     C1      1 0.52760000  12.010000   ; qtot 0.527600
    2         nb      1    LIG     N1      2 -0.75200000  14.010000   ; qtot -0.224400
    3         ca      1    LIG     C2      3 -0.34540000  12.010000   ; qtot -0.569800
    4         ca      1    LIG     C3      4 0.86390000  12.010000   ; qtot 0.294100
    5         ca      1    LIG     C4      5 0.47080000  12.010000   ; qtot 0.764900
    6         cc      1    LIG     C5      6 -0.15320000  12.010000   ; qtot 0.611700
    7         nb      1    LIG     N2      7 -0.74200000  14.010000   ; qtot -0.130300
    8         na      1    LIG     N3      8 -0.17510000  14.010000   ; qtot -0.305400
    9         cd      1    LIG     C6      9 -0.11510000  12.010000   ; qtot -0.420500
   10         c3      1    LIG     C7     10 0.03260000  12.010000   ; qtot -0.387900
   11         nh      1    LIG     N4     11 -0.72030000  14.010000   ; qtot -1.108200
   12         c3      1    LIG     C8     12 0.13880000  12.010000   ; qtot -0.969400
   13         c3      1    LIG     C9     13 0.18780000  12.010000   ; qtot -0.781600
   14          c      1    LIG    C10     14 0.68350000  12.010000   ; qtot -0.098100
   15         c3      1    LIG    C11     15 -0.12840000  12.010000   ; qtot -0.226500
   16          o      1    LIG     O1     16 -0.65050000  16.000000   ; qtot -0.877000
   17         ns      1    LIG     N5     17 -0.57590000  14.010000   ; qtot -1.452900
   18         c3      1    LIG    C12     18 0.10500000  12.010000   ; qtot -1.347900
   19         hn      1    LIG     H1     19 0.31850000   1.008000   ; qtot -1.029400
   20          c      1    LIG    C13     20 0.70270000  12.010000   ; qtot -0.326700
   21          o      1    LIG     O2     21 -0.59810000  16.000000   ; qtot -0.924800
   22          n      1    LIG     N6     22 -0.45880000  14.010000   ; qtot -1.383600
   23         c6      1    LIG    C14     23 0.09650000  12.010000   ; qtot -1.287100
   24         c6      1    LIG    C15     24 0.09650000  12.010000   ; qtot -1.190600
   25         c6      1    LIG    C16     25 -0.09290000  12.010000   ; qtot -1.283500
   26         c6      1    LIG    C17     26 -0.09290000  12.010000   ; qtot -1.376400
   27         c6      1    LIG    C18     27 -0.12000000  12.010000   ; qtot -1.496400
   28         ss      1    LIG     S1     28 0.06920000  32.060000   ; qtot -1.427200
   29         cc      1    LIG    C19     29 -0.27210000  12.010000   ; qtot -1.699300
   30         cc      1    LIG    C20     30 -0.11910000  12.010000   ; qtot -1.818400
   31         cd      1    LIG    C21     31 0.12010000  12.010000   ; qtot -1.698300
   32         cd      1    LIG    C22     32 -0.16960000  12.010000   ; qtot -1.867900
   33         os      1    LIG     O3     33 -0.30390000  16.000000   ; qtot -2.171800
   34         c3      1    LIG    C23     34 0.11270000  12.010000   ; qtot -2.059100
   35         ha      1    LIG     H2     35 0.16200000   1.008000   ; qtot -1.897100
   36         h4      1    LIG     H3     36 0.17000000   1.008000   ; qtot -1.727100
   37         h1      1    LIG     H4     37 0.05503300   1.008000   ; qtot -1.672067
   38         h1      1    LIG     H5     38 0.05503300   1.008000   ; qtot -1.617034
   39         h1      1    LIG     H6     39 0.05503300   1.008000   ; qtot -1.562001
   40         h1      1    LIG     H7     40 0.09020000   1.008000   ; qtot -1.471801
   41         h1      1    LIG     H8     41 0.09020000   1.008000   ; qtot -1.381601
   42         h1      1    LIG     H9     42 0.06920000   1.008000   ; qtot -1.312401
   43         h1      1    LIG    H10     43 0.06920000   1.008000   ; qtot -1.243201
   44         hc      1    LIG    H11     44 0.05720000   1.008000   ; qtot -1.186001
   45         hc      1    LIG    H12     45 0.05720000   1.008000   ; qtot -1.128801
   46         h1      1    LIG    H13     46 0.04220000   1.008000   ; qtot -1.086601
   47         h1      1    LIG    H14     47 0.04220000   1.008000   ; qtot -1.044401
   48         h1      1    LIG    H15     48 0.05270000   1.008000   ; qtot -0.991701
   49         h1      1    LIG    H16     49 0.05270000   1.008000   ; qtot -0.939001
   50         h1      1    LIG    H17     50 0.05270000   1.008000   ; qtot -0.886301
   51         h1      1    LIG    H18     51 0.05270000   1.008000   ; qtot -0.833601
   52         hc      1    LIG    H19     52 0.05795000   1.008000   ; qtot -0.775651
   53         hc      1    LIG    H20     53 0.05795000   1.008000   ; qtot -0.717701
   54         hc      1    LIG    H21     54 0.05795000   1.008000   ; qtot -0.659751
   55         hc      1    LIG    H22     55 0.05795000   1.008000   ; qtot -0.601801
   56         hc      1    LIG    H23     56 0.09070000   1.008000   ; qtot -0.511101
   57         h4      1    LIG    H24     57 0.17800000   1.008000   ; qtot -0.333101
   58         h4      1    LIG    H25     58 0.18600000   1.008000   ; qtot -0.147101
   59         h1      1    LIG    H26     59 0.04870000   1.008000   ; qtot -0.098401
   60         h1      1    LIG    H27     60 0.04870000   1.008000   ; qtot -0.049701
   61         h1      1    LIG    H28     61 0.04870000   1.008000   ; qtot -0.001001

[ bonds ]
;    ai     aj funct         c0         c1         c2         c3
      1     27     1   0.15203 200606.064000
      1      2     1   0.13392 323414.832000
      1      3     1   0.13986 296436.400000
      2      4     1   0.13392 323414.832000
      3      5     1   0.13986 296436.400000
      3      6     1   0.14528 248111.200000
      4      7     1   0.13392 323414.832000
      4     11     1   0.14030 260110.912000
      5      8     1   0.13858 275574.976000
      5      7     1   0.13392 323414.832000
      6      9     1   0.13730 323205.632000
      8     10     1   0.14639 213208.272000
      8      9     1   0.13830 278194.160000
     11     12     1   0.14613 214990.656000
     11     13     1   0.14613 214990.656000
     12     14     1   0.15270 196522.480000
     13     15     1   0.15354 191535.152000
     14     16     1   0.12190 494214.080000
     14     17     1   0.13798 281223.376000
     15     18     1   0.15354 191535.152000
     17     18     1   0.14556 218957.088000
     20     32     1   0.14728 232730.816000
     20     21     1   0.12190 494214.080000
     20     22     1   0.13967 265650.528000
     22     23     1   0.14669 211174.848000
     22     24     1   0.14669 211174.848000
     23     25     1   0.15384 189794.608000
     24     26     1   0.15384 189794.608000
     25     27     1   0.15384 189794.608000
     26     27     1   0.15384 189794.608000
     28     29     1   0.17538 193853.088000
     28     30     1   0.17538 193853.088000
     29     31     1   0.13730 323205.632000
     30     32     1   0.13730 323205.632000
     31     33     1   0.13608 295298.352000
     31     32     1   0.14279 269022.832000
     33     34     1   0.14273 236203.536000
      6     35     1   0.10838 304695.616000
      9     36     1   0.10818 307348.272000
     10     37     1   0.10969 288043.296000
     10     38     1   0.10969 288043.296000
     10     39     1   0.10969 288043.296000
     12     40     1   0.10969 288043.296000
     12     41     1   0.10969 288043.296000
     13     42     1   0.10969 288043.296000
     13     43     1   0.10969 288043.296000
     15     44     1   0.10962 288905.200000
     15     45     1   0.10962 288905.200000
     17     19     1   0.10132 396300.112000
     18     46     1   0.10969 288043.296000
     18     47     1   0.10969 288043.296000
     23     48     1   0.10984 286202.336000
     23     49     1   0.10984 286202.336000
     24     50     1   0.10984 286202.336000
     24     51     1   0.10984 286202.336000
     25     52     1   0.10979 286813.200000
     25     53     1   0.10979 286813.200000
     26     54     1   0.10979 286813.200000
     26     55     1   0.10979 286813.200000
     27     56     1   0.10979 286813.200000
     29     57     1   0.10809 308544.896000
     30     58     1   0.10809 308544.896000
     34     59     1   0.10969 288043.296000
     34     60     1   0.10969 288043.296000
     34     61     1   0.10969 288043.296000

[ pairs ]
;    ai     aj funct         c0         c1         c2         c3
      1     23     1
      1     24     1
      1      7     1
      1     11     1
      1      8     1
      1      9     1
      2     25     1
      2     26     1
      2      5     1
      2      6     1
      2     12     1
      2     13     1
      3     25     1
      3     26     1
      3      4     1
      3     10     1
     27      4     1
      4      8     1
      4     14     1
      4     15     1
     27      5     1
      5     11     1
     27      6     1
      6      7     1
      6     10     1
      7     12     1
      7     13     1
      7     10     1
      7      9     1
     11     16     1
     11     17     1
     11     18     1
     12     15     1
     12     18     1
     13     14     1
     13     17     1
     14     15     1
     16     18     1
     20     28     1
     20     29     1
     20     33     1
     20     25     1
     20     26     1
     21     30     1
     21     31     1
     21     23     1
     21     24     1
     22     30     1
     22     31     1
     22     27     1
     23     32     1
     23     26     1
     24     32     1
     24     25     1
     28     33     1
     29     34     1
     30     33     1
     32     34     1
      1     52     1
      1     53     1
      1     54     1
      1     55     1
      1     35     1
      2     56     1
      3     56     1
      3     36     1
      4     40     1
      4     41     1
      4     42     1
      4     43     1
      5     35     1
      5     37     1
      5     38     1
      5     39     1
      5     36     1
      8     35     1
      9     37     1
      9     38     1
      9     39     1
     10     36     1
     11     44     1
     11     45     1
     12     42     1
     12     43     1
     12     19     1
     13     40     1
     13     41     1
     13     46     1
     13     47     1
     14     46     1
     14     47     1
     15     19     1
     16     40     1
     16     41     1
     16     19     1
     17     40     1
     17     41     1
     17     44     1
     17     45     1
     18     42     1
     18     43     1
     19     46     1
     19     47     1
     20     58     1
     20     48     1
     20     49     1
     20     50     1
     20     51     1
     22     52     1
     22     53     1
     22     54     1
     22     55     1
     23     50     1
     23     51     1
     23     56     1
     24     48     1
     24     49     1
     24     56     1
     25     54     1
     25     55     1
     26     52     1
     26     53     1
     27     48     1
     27     49     1
     27     50     1
     27     51     1
     29     58     1
     30     57     1
     31     59     1
     31     60     1
     31     61     1
     31     58     1
     32     57     1
     33     57     1
     35     36     1
     42     44     1
     42     45     1
     43     44     1
     43     45     1
     44     46     1
     44     47     1
     45     46     1
     45     47     1
     48     52     1
     48     53     1
     49     52     1
     49     53     1
     50     54     1
     50     55     1
     51     54     1
     51     55     1
     52     56     1
     53     56     1
     54     56     1
     55     56     1

[ angles ]
;    ai     aj     ak funct         c0         c1         c2         c3
      1     27     25     1   111.9700479 504.423040
      1     27     26     1   111.9700479 504.423040
      1      2      4     1   117.2400501 695.799200
      1      3      5     1   120.0200517 532.790560
      1      3      6     1   120.9100516 520.405920
      2      1     27     1   115.6900498 559.066080
      2      1      3     1   122.9400526 570.446560
      2      4      7     1   127.3000546 608.855680
      2      4     11     1   117.1300503 619.315680
      3      1     27     1   120.6000517 507.602880
      3      5      8     1   120.3100514 567.517760
      3      5      7     1   122.9400526 570.446560
      3      6      9     1   116.0300498 535.552000
      4      7      5     1   117.2400501 695.799200
      4     11     12     1   119.5300513 643.833920
      4     11     13     1   119.5300513 643.833920
      5      3      6     1   120.9100516 520.405920
      5      8     10     1   120.5000516 644.084960
      5      8      9     1   108.7700466 698.811680
      6      9      8     1   108.9900469 602.412320
      7      4     11     1   117.1300503 619.315680
      7      5      8     1   127.1000545 598.563040
      9      8     10     1   125.5000538 631.700320
     11     12     14     1   112.6600484 545.928320
     11     13     15     1   113.4800484 542.330080
     12     11     13     1   116.5600501 639.566240
     12     14     16     1   122.9000527 639.733600
     12     14     17     1   115.0300494 553.124800
     13     15     18     1   112.6300483 500.992160
     14     17     18     1   121.9600524 643.499200
     15     18     17     1   111.6900480 547.518240
     16     14     17     1   123.0500530 729.773280
     20     32     30     1   121.3200522 519.652800
     20     32     31     1   125.5100536 502.247360
     20     22     23     1   120.4700516 641.239840
     20     22     24     1   120.4700516 641.239840
     21     20     32     1   123.7100528 655.298080
     21     20     22     1   122.5700525 725.338240
     22     20     32     1   112.5900484 568.438240
     22     23     25     1   111.1700476 546.346720
     22     24     26     1   111.1700476 546.346720
     23     22     24     1   114.0700488 644.001280
     23     25     27     1   111.0600477 503.586240
     24     26     27     1   111.0600477 503.586240
     25     27     26     1   111.0600477 503.586240
     28     29     31     1   111.5500481 557.476160
     28     30     32     1   111.5500481 557.476160
     29     28     30     1   90.3600388 854.707520
     29     31     33     1   116.7100498 676.134400
     29     31     32     1   116.2100496 540.321760
     30     32     31     1   116.2100496 540.321760
     31     33     34     1   117.1800500 744.333600
     32     31     33     1   117.4500506 659.984160
      1     27     56     1   109.4700469 365.597920
      3      6     35     1   122.9000527 359.656640
      6      9     36     1   127.6400546 369.865600
      8     10     37     1   108.7600467 402.500800
      8     10     38     1   108.7600467 402.500800
      8     10     39     1   108.7600467 402.500800
      8      9     36     1   120.1700514 402.333440
      9      6     35     1   121.4000520 379.070400
     11     12     40     1   109.6800468 401.412960
     11     12     41     1   109.6800468 401.412960
     11     13     42     1   109.6800468 401.412960
     11     13     43     1   109.6800468 401.412960
     13     15     44     1   109.6800468 362.083360
     13     15     45     1   109.6800468 362.083360
     14     12     40     1   108.3700464 366.016320
     14     12     41     1   108.3700464 366.016320
     14     17     19     1   117.2600504 480.072160
     15     13     42     1   109.5900471 362.167040
     15     13     43     1   109.5900471 362.167040
     15     18     46     1   109.5900471 362.167040
     15     18     47     1   109.5900471 362.167040
     17     18     46     1   108.4900467 404.927520
     17     18     47     1   108.4900467 404.927520
     18     15     44     1   109.6800468 362.083360
     18     15     45     1   109.6800468 362.083360
     18     17     19     1   117.4200506 457.060160
     22     23     48     1   108.5200467 402.166080
     22     23     49     1   108.5200467 402.166080
     22     24     50     1   108.5200467 402.166080
     22     24     51     1   108.5200467 402.166080
     23     25     52     1   109.4500472 361.748640
     23     25     53     1   109.4500472 361.748640
     24     26     54     1   109.4500472 361.748640
     24     26     55     1   109.4500472 361.748640
     25     23     48     1   109.1800466 362.167040
     25     23     49     1   109.1800466 362.167040
     25     27     56     1   109.4500472 361.748640
     26     24     50     1   109.1800466 362.167040
     26     24     51     1   109.1800466 362.167040
     26     27     56     1   109.4500472 361.748640
     27     25     52     1   109.4500472 361.748640
     27     25     53     1   109.4500472 361.748640
     27     26     54     1   109.4500472 361.748640
     27     26     55     1   109.4500472 361.748640
     28     29     57     1   120.1500518 352.376480
     28     30     58     1   120.1500518 352.376480
     31     29     57     1   129.1100552 367.773600
     32     30     58     1   129.1100552 367.773600
     33     34     59     1   110.3400472 470.281600
     33     34     60     1   110.3400472 470.281600
     33     34     61     1   110.3400472 470.281600
     37     10     38     1   108.5500468 298.235520
     37     10     39     1   108.5500468 298.235520
     38     10     39     1   108.5500468 298.235520
     40     12     41     1   108.5500468 298.235520
     42     13     43     1   108.5500468 298.235520
     44     15     45     1   107.7300462 299.574400
     46     18     47     1   108.5500468 298.235520
     48     23     49     1   107.5000461 299.323360
     50     24     51     1   107.5000461 299.323360
     52     25     53     1   106.6200459 300.662240
     54     26     55     1   106.6200459 300.662240
     59     34     60     1   108.5500468 298.235520
     59     34     61     1   108.5500468 298.235520
     60     34     61     1   108.5500468 298.235520

[ dihedrals ]
;    ai     aj     ak     al funct         c0         c1         c2         c3         c4         c5
      1     27     25     23     1  0.0000000  0.6508444  3
      1     27     26     24     1  0.0000000  0.6508444  3
      1      2      4      7     1  180.0000771  20.0832000  2
      1      2      4     11     1  180.0000771  20.0832000  2
      1      3      5      8     1  180.0000771  15.1670000  2
      1      3      5      7     1  180.0000771  15.1670000  2
      1      3      6      9     1  180.0000771  2.4476400  2
      2      1     27     25     1  0.0000000  0.0000000  2
      2      1     27     26     1  0.0000000  0.0000000  2
      2      1      3      5     1  180.0000771  15.1670000  2
      2      1      3      6     1  180.0000771  15.1670000  2
      2      4      7      5     1  180.0000771  20.0832000  2
      2      4     11     12     1  180.0000771  4.3932000  2
      2      4     11     13     1  180.0000771  4.3932000  2
      3      1     27     25     1  180.0000771  1.0041600  2
      3      1     27     26     1  180.0000771  1.0041600  2
      3      1      2      4     1  180.0000771  20.0832000  2
      3      5      8     10     1  180.0000771  1.2552000  2
      3      5      8      9     1  180.0000771  1.2552000  2
      3      5      7      4     1  180.0000771  20.0832000  2
      3      6      9      8     1  180.0000771  16.7360000  2
     27      1      2      4     1  180.0000771  20.0832000  2
      4      7      5      8     1  180.0000771  20.0832000  2
      4     11     12     14     1  0.0000000  0.0000000  2
      4     11     13     15     1  0.0000000  0.0000000  2
     27      1      3      5     1  180.0000771  15.1670000  2
      5      3      6      9     1  180.0000771  2.4476400  2
      5      8      9      6     1  180.0000771  7.1128000  2
      5      7      4     11     1  180.0000771  20.0832000  2
     27      1      3      6     1  180.0000771  15.1670000  2
      6      3      5      8     1  180.0000771  15.1670000  2
      6      3      5      7     1  180.0000771  15.1670000  2
      6      9      8     10     1  180.0000771  7.1128000  2
      7      4     11     12     1  180.0000771  4.3932000  2
      7      4     11     13     1  180.0000771  4.3932000  2
      7      5      8     10     1  180.0000771  1.2552000  2
      7      5      8      9     1  180.0000771  1.2552000  2
     11     12     14     16     1  180.0000771  0.0000000  2
     11     12     14     17     1  180.0000771  0.0000000  2
     11     13     15     18     1  0.0000000  0.8786400  3
     12     11     13     15     1  0.0000000  0.0000000  2
     12     14     17     18     1  180.0000771  2.4267200  1
     12     14     17     18     1  180.0000771  3.8074400  2
     12     14     17     18     1  0.0000000  3.8911200  3
     13     11     12     14     1  0.0000000  0.0000000  2
     13     15     18     17     1  180.0000771  0.9623200  2
     14     17     18     15     1  180.0000771  4.8116000  1
     16     14     17     18     1  180.0000771  10.4600000  2
     20     32     30     28     1  180.0000771  16.7360000  2
     20     32     31     29     1  180.0000771  16.7360000  2
     20     32     31     33     1  180.0000771  16.7360000  2
     20     22     23     25     1  180.0000771  4.2676800  1
     20     22     23     25     1  0.0000000  0.7112800  3
     20     22     23     25     1  180.0000771  0.4184000  4
     20     22     24     26     1  180.0000771  4.2676800  1
     20     22     24     26     1  0.0000000  0.7112800  3
     20     22     24     26     1  180.0000771  0.4184000  4
     21     20     32     30     1  180.0000771  12.0290000  2
     21     20     32     31     1  180.0000771  12.0290000  2
     21     20     22     23     1  180.0000771  10.4600000  2
     21     20     22     24     1  180.0000771  10.4600000  2
     22     20     32     30     1  180.0000771  12.0290000  2
     22     20     32     31     1  180.0000771  12.0290000  2
     22     23     25     27     1  0.0000000  0.4184000  3
     22     24     26     27     1  0.0000000  0.4184000  3
     23     22     20     32     1  180.0000771  10.4600000  2
     23     22     24     26     1  0.0000000  0.0000000  2
     23     25     27     26     1  0.0000000  2.1756800  3
     24     22     20     32     1  180.0000771  10.4600000  2
     24     22     23     25     1  0.0000000  0.0000000  2
     24     26     27     25     1  0.0000000  2.1756800  3
     28     29     31     33     1  180.0000771  16.7360000  2
     28     29     31     32     1  180.0000771  16.7360000  2
     28     30     32     31     1  180.0000771  16.7360000  2
     29     28     30     32     1  180.0000771  5.2718400  1
     29     28     30     32     1  180.0000771  0.0000000  2
     29     28     30     32     1  0.0000000  0.0000000  3
     29     31     33     34     1  180.0000771  4.3932000  1
     29     31     33     34     1  180.0000771  11.2968000  2
     29     31     33     34     1  180.0000771  3.7656000  3
     29     31     32     30     1  180.0000771  16.7360000  2
     30     28     29     31     1  180.0000771  5.2718400  1
     30     28     29     31     1  180.0000771  0.0000000  2
     30     28     29     31     1  0.0000000  0.0000000  3
     30     32     31     33     1  180.0000771  16.7360000  2
     32     31     33     34     1  180.0000771  4.3932000  1
     32     31     33     34     1  180.0000771  11.2968000  2
     32     31     33     34     1  180.0000771  3.7656000  3
      2      1      3     27     4  180.0000771  43.9320000  2
      1      5      3      6     4  180.0000771  4.6024000  2
      2      7      4     11     4  180.0000771  4.6024000  2
      3      8      5      7     4  180.0000771  43.9320000  2
     10      5      8      9     4  180.0000771  4.6024000  2
     12     13     11      4     4  180.0000771  4.6024000  2
     12     17     14     16     4  180.0000771  43.9320000  2
     32     22     20     21     4  180.0000771  43.9320000  2
     20     23     22     24     4  180.0000771  4.6024000  2
     29     32     31     33     4  180.0000771  43.9320000  2
     20     30     32     31     4  180.0000771  43.9320000  2
      1     27     25     52     1  0.0000000  0.6508444  3
      1     27     25     53     1  0.0000000  0.6508444  3
      1     27     26     54     1  0.0000000  0.6508444  3
      1     27     26     55     1  0.0000000  0.6508444  3
      1      3      6     35     1  180.0000771  2.9288000  2
      2      1     27     56     1  0.0000000  0.0000000  2
      3      1     27     56     1  0.0000000  0.0000000  1
      3      6      9     36     1  180.0000771  16.7360000  2
      4     11     12     40     1  0.0000000  1.3890880  2
      4     11     12     41     1  0.0000000  1.3890880  2
      4     11     13     42     1  0.0000000  1.3890880  2
      4     11     13     43     1  0.0000000  1.3890880  2
      5      3      6     35     1  180.0000771  2.9288000  2
      5      8     10     37     1  0.0000000  0.0000000  2
      5      8     10     38     1  0.0000000  0.0000000  2
      5      8     10     39     1  0.0000000  0.0000000  2
      5      8      9     36     1  180.0000771  7.1128000  2
      8      9      6     35     1  180.0000771  16.7360000  2
      9      8     10     37     1  0.0000000  0.0000000  2
      9      8     10     38     1  0.0000000  0.0000000  2
      9      8     10     39     1  0.0000000  0.0000000  2
     10      8      9     36     1  180.0000771  7.1128000  2
     11     13     15     44     1  0.0000000  0.6508444  3
     11     13     15     45     1  0.0000000  0.6508444  3
     12     11     13     42     1  0.0000000  0.0000000  2
     12     11     13     43     1  0.0000000  0.0000000  2
     12     14     17     19     1  180.0000771  10.4600000  2
     13     11     12     40     1  0.0000000  0.0000000  2
     13     11     12     41     1  0.0000000  0.0000000  2
     13     15     18     46     1  0.0000000  0.6508444  3
     13     15     18     47     1  0.0000000  0.6508444  3
     14     17     18     46     1  0.0000000  0.0000000  1
     14     17     18     47     1  0.0000000  0.0000000  1
     15     18     17     19     1  0.0000000  0.0000000  2
     16     14     12     40     1  0.0000000  3.3472000  1
     16     14     12     40     1  180.0000771  0.3347200  3
     16     14     12     41     1  0.0000000  3.3472000  1
     16     14     12     41     1  180.0000771  0.3347200  3
     16     14     17     19     1  0.0000000  8.3680000  1
     16     14     17     19     1  180.0000771  10.4600000  2
     17     14     12     40     1  180.0000771  0.0000000  2
     17     14     12     41     1  180.0000771  0.0000000  2
     17     18     15     44     1  0.0000000  0.6508444  3
     17     18     15     45     1  0.0000000  0.6508444  3
     18     15     13     42     1  0.0000000  0.6508444  3
     18     15     13     43     1  0.0000000  0.6508444  3
     19     17     18     46     1  0.0000000  0.0000000  2
     19     17     18     47     1  0.0000000  0.0000000  2
     20     32     30     58     1  180.0000771  16.7360000  2
     20     22     23     48     1  180.0000771  0.0000000  2
     20     22     23     49     1  180.0000771  0.0000000  2
     20     22     24     50     1  180.0000771  0.0000000  2
     20     22     24     51     1  180.0000771  0.0000000  2
     22     23     25     52     1  0.0000000  0.6508444  3
     22     23     25     53     1  0.0000000  0.6508444  3
     22     24     26     54     1  0.0000000  0.6508444  3
     22     24     26     55     1  0.0000000  0.6508444  3
     23     22     24     50     1  0.0000000  0.0000000  2
     23     22     24     51     1  0.0000000  0.0000000  2
     23     25     27     56     1  0.0000000  0.5439200  3
     24     22     23     48     1  0.0000000  0.0000000  2
     24     22     23     49     1  0.0000000  0.0000000  2
     24     26     27     56     1  0.0000000  0.5439200  3
     25     27     26     54     1  0.0000000  0.5439200  3
     25     27     26     55     1  0.0000000  0.5439200  3
     26     27     25     52     1  0.0000000  0.5439200  3
     26     27     25     53     1  0.0000000  0.5439200  3
     27     25     23     48     1  0.0000000  0.6508444  3
     27     25     23     49     1  0.0000000  0.6508444  3
     27     26     24     50     1  0.0000000  0.6508444  3
     27     26     24     51     1  0.0000000  0.6508444  3
     29     28     30     58     1  180.0000771  4.6024000  2
     30     28     29     57     1  180.0000771  4.6024000  2
     31     33     34     59     1  0.0000000  1.6038667  3
     31     33     34     60     1  0.0000000  1.6038667  3
     31     33     34     61     1  0.0000000  1.6038667  3
     31     32     30     58     1  180.0000771  16.7360000  2
     32     31     29     57     1  180.0000771  16.7360000  2
     33     31     29     57     1  180.0000771  16.7360000  2
     35      6      9     36     1  180.0000771  16.7360000  2
     42     13     15     44     1  0.0000000  0.6508444  3
     42     13     15     45     1  0.0000000  0.6508444  3
     43     13     15     44     1  0.0000000  0.6508444  3
     43     13     15     45     1  0.0000000  0.6508444  3
     44     15     18     46     1  0.0000000  0.6508444  3
     44     15     18     47     1  0.0000000  0.6508444  3
     45     15     18     46     1  0.0000000  0.6508444  3
     45     15     18     47     1  0.0000000  0.6508444  3
     48     23     25     52     1  0.0000000  0.6508444  3
     48     23     25     53     1  0.0000000  0.6508444  3
     49     23     25     52     1  0.0000000  0.6508444  3
     49     23     25     53     1  0.0000000  0.6508444  3
     50     24     26     54     1  0.0000000  0.6508444  3
     50     24     26     55     1  0.0000000  0.6508444  3
     51     24     26     54     1  0.0000000  0.6508444  3
     51     24     26     55     1  0.0000000  0.6508444  3
     52     25     27     56     1  0.0000000  0.5020800  3
     53     25     27     56     1  0.0000000  0.5020800  3
     54     26     27     56     1  0.0000000  0.5020800  3
     55     26     27     56     1  0.0000000  0.5020800  3
      3      9      6     35     4  180.0000771  43.9320000  2
      6     36      9      8     4  180.0000771  43.9320000  2
     14     18     17     19     4  180.0000771  4.6024000  2
     31     57     29     28     4  180.0000771  43.9320000  2
     32     58     30     28     4  180.0000771  43.9320000  2


[ moleculetype ]
; Name            nrexcl
WAT          3

[ atoms ]
;   nr       type  resnr residue  atom   cgnr    charge       mass  typeB    chargeB      massB
; residue    1 WAT rtp WAT q 0.0
    1         OW      1    WAT      O      1 -0.83400000  16.000000   ; qtot -0.834000
    2         HW      1    WAT     H1      2 0.41700000   1.008000   ; qtot -0.417000
    3         HW      1    WAT     H2      3 0.41700000   1.008000   ; qtot 0.000000

#ifdef FLEXIBLE

[ bonds ]
;    ai     aj funct         c0         c1         c2         c3
      2      1     1   0.09572 462750.400000
      3      1     1   0.09572 462750.400000
      3      2     1   0.15136 462750.400000


#else

[ settles ]
; i     funct   doh     dhh
1     1   0.09572000   0.15136000

#endif

[ exclusions ]
1  2  3
2  1  3
3  1  2

[ system ]
; Name
Generic title

[ molecules ]
; Compound       #mols
LIG                  1
WAT               1615
