GROningen MAchine for Chemical Simulation
 4816
    1LIG     N1    1   2.239   2.115   1.792
    1LIG     C1    2   2.113   2.033   1.771
    1LIG     C2    3   2.347   2.045   1.868
    1LIG     C3    4   2.135   1.880   1.780
    1LIG     C4    5   2.373   1.899   1.822
    1LIG     N2    6   2.269   1.851   1.730
    1LIG     C5    7   2.120   1.827   1.922
    1LIG     C6    8   2.371   1.805   1.943
    1LIG     C7    9   2.286   1.808   1.600
    1LIG     C8   10   1.996   1.815   1.984
    1LIG     C9   11   2.230   1.795   2.000
    1LIG     O1   12   2.190   1.783   1.527
    1LIG    C10   13   2.427   1.788   1.552
    1LIG     N3   14   1.986   1.777   2.112
    1LIG     N4   15   2.221   1.754   2.128
    1LIG    C11   16   2.098   1.747   2.181
    1LIG     S1   17   2.295   2.204   1.657
    1LIG     O2   18   2.192   2.200   1.556
    1LIG     O3   19   2.429   2.158   1.627
    1LIG    C12   20   2.309   2.367   1.719
    1LIG    C13   21   2.350   2.470   1.636
    1LIG    C14   22   2.280   2.395   1.853
    1LIG     N5   23   2.362   2.598   1.678
    1LIG    C15   24   2.293   2.526   1.898
    1LIG    C16   25   2.334   2.623   1.808
    1LIG    C17   26   2.084   1.702   2.324
    1LIG    C18   27   1.984   1.594   2.361
    1LIG    C19   28   2.131   1.564   2.366
    1LIG     N6   29   1.880   1.846   1.912
    1LIG     H1   30   1.900   1.922   1.847
    1LIG    C20   31   1.814   1.737   1.840
    1LIG    C21   32   1.665   1.754   1.842
    1LIG    C22   33   1.578   1.666   1.928
    1LIG    C23   34   1.575   1.651   1.779
    1LIG     H2   35   2.039   2.062   1.848
    1LIG     H3   36   2.077   2.054   1.669
    1LIG     H4   37   2.440   2.103   1.857
    1LIG     H5   38   2.313   2.040   1.973
    1LIG     H6   39   2.059   1.829   1.720
    1LIG     H7   40   2.471   1.899   1.772
    1LIG     H8   41   2.405   1.705   1.913
    1LIG     H9   42   2.437   1.845   2.021
    1LIG    H10   43   2.495   1.778   1.638
    1LIG    H11   44   2.433   1.696   1.491
    1LIG    H12   45   2.458   1.874   1.491
    1LIG    H13   46   2.374   2.446   1.531
    1LIG    H14   47   2.249   2.315   1.921
    1LIG    H15   48   2.271   2.552   2.003
    1LIG    H16   49   2.343   2.726   1.844
    1LIG    H17   50   2.104   1.805   2.358
    1LIG    H18   51   1.927   1.603   2.455
    1LIG    H19   52   1.897   1.549   2.311
    1LIG    H20   53   2.176   1.497   2.292
    1LIG    H21   54   2.200   1.526   2.443
    1LIG    H22   55   1.849   1.735   1.736
    1LIG    H23   56   1.840   1.642   1.890
    1LIG    H24   57   1.680   1.863   1.832
    1LIG    H25   58   1.624   1.587   1.990
    1LIG    H26   59   1.503   1.684   2.006
    1LIG    H27   60   1.486   1.684   1.722
    1LIG    H28   61   1.590   1.568   1.708
    2WAT      O   62   3.202   3.907   2.751
    2WAT     H1   63   3.194   3.816   2.724
    2WAT     H2   64   3.161   3.957   2.680
    3WAT      O   65   2.258   3.612   2.405
    3WAT     H1   66   2.169   3.647   2.395
    3WAT     H2   67   2.286   3.592   2.316
    4WAT      O   68   2.054   3.872   2.994
    4WAT     H1   69   2.111   3.796   2.994
    4WAT     H2   70   2.054   3.902   2.903
    5WAT      O   71   2.179   3.413   3.172
    5WAT     H1   72   2.161   3.324   3.200
    5WAT     H2   73   2.138   3.468   3.240
    6WAT      O   74   3.062   3.633   2.962
    6WAT     H1   75   3.100   3.546   2.951
    6WAT     H2   76   3.053   3.667   2.873
    7WAT      O   77   2.476   3.471   2.509
    7WAT     H1   78   2.486   3.561   2.539
    7WAT     H2   79   2.384   3.466   2.479
    8WAT      O   80   3.441   3.383   2.656
    8WAT     H1   81   3.523   3.334   2.660
    8WAT     H2   82   3.444   3.442   2.731
    9WAT      O   83   2.240   3.663   3.033
    9WAT     H1   84   2.308   3.689   3.095
    9WAT     H2   85   2.209   3.579   3.066
   10WAT      O   86   2.660   3.768   2.942
   10WAT     H1   87   2.710   3.817   3.006
   10WAT     H2   88   2.713   3.690   2.924
   11WAT      O   89   2.488   3.232   3.368
   11WAT     H1   90   2.488   3.283   3.288
   11WAT     H2   91   2.405   3.184   3.366
   12WAT      O   92   3.464   3.577   2.933
   12WAT     H1   93   3.394   3.606   2.991
   12WAT     H2   94   3.500   3.658   2.897
   13WAT      O   95   2.456   3.403   3.169
   13WAT     H1   96   2.490   3.487   3.140
   13WAT     H2   97   2.362   3.418   3.181
   14WAT      O   98   3.771   3.522   2.972
   14WAT     H1   99   3.676   3.525   2.985
   14WAT     H2  100   3.804   3.603   3.010
   15WAT      O  101   2.824   3.152   2.802
   15WAT     H1  102   2.855   3.096   2.730
   15WAT     H2  103   2.731   3.165   2.783
   16WAT      O  104   3.063   3.958   2.475
   16WAT     H1  105   2.971   3.951   2.498
   16WAT     H2  106   3.078   4.052   2.464
   17WAT      O  107   3.062   3.585   2.175
   17WAT     H1  108   2.968   3.601   2.183
   17WAT     H2  109   3.094   3.657   2.120
   18WAT      O  110   3.410   3.732   3.267
   18WAT     H1  111   3.369   3.815   3.293
   18WAT     H2  112   3.337   3.674   3.248
   19WAT      O  113   2.624   4.011   2.753
   19WAT     H1  114   2.583   3.939   2.704
   19WAT     H2  115   2.632   3.976   2.842
   20WAT      O  116   2.495   3.688   3.131
   20WAT     H1  117   2.550   3.699   3.054
   20WAT     H2  118   2.547   3.725   3.203
   21WAT      O  119   3.642   3.164   2.058
   21WAT     H1  120   3.611   3.173   2.148
   21WAT     H2  121   3.718   3.221   2.053
   22WAT      O  122   2.294   3.900   2.503
   22WAT     H1  123   2.282   3.973   2.442
   22WAT     H2  124   2.263   3.823   2.456
   23WAT      O  125   3.763   3.637   3.655
   23WAT     H1  126   3.701   3.688   3.603
   23WAT     H2  127   3.731   3.547   3.650
   24WAT      O  128   2.540   3.234   2.842
   24WAT     H1  129   2.496   3.313   2.808
   24WAT     H2  130   2.596   3.267   2.912
   25WAT      O  131   2.969   3.521   3.402
   25WAT     H1  132   2.923   3.542   3.483
   25WAT     H2  133   2.929   3.440   3.372
   26WAT      O  134   3.469   3.643   3.515
   26WAT     H1  135   3.384   3.613   3.547
   26WAT     H2  136   3.453   3.668   3.424
   27WAT      O  137   3.179   3.793   3.725
   27WAT     H1  138   3.211   3.710   3.691
   27WAT     H2  139   3.258   3.846   3.740
   28WAT      O  140   2.852   3.197   2.330
   28WAT     H1  141   2.790   3.196   2.402
   28WAT     H2  142   2.843   3.110   2.290
   29WAT      O  143   2.744   3.289   3.028
   29WAT     H1  144   2.774   3.380   3.019
   29WAT     H2  145   2.799   3.240   2.966
   30WAT      O  146   2.520   3.747   2.614
   30WAT     H1  147   2.497   3.725   2.705
   30WAT     H2  148   2.442   3.790   2.580
   31WAT      O  149   3.243   3.747   2.474
   31WAT     H1  150   3.183   3.820   2.456
   31WAT     H2  151   3.297   3.741   2.396
   32WAT      O  152   2.764   3.837   3.681
   32WAT     H1  153   2.754   3.743   3.666
   32WAT     H2  154   2.848   3.859   3.642
   33WAT      O  155   3.103   3.611   2.677
   33WAT     H1  156   3.143   3.643   2.596
   33WAT     H2  157   3.139   3.523   2.689
   34WAT      O  158   2.277   3.478   3.496
   34WAT     H1  159   2.237   3.563   3.517
   34WAT     H2  160   2.208   3.414   3.515
   35WAT      O  161   2.007   3.270   2.900
   35WAT     H1  162   1.978   3.327   2.971
   35WAT     H2  163   2.081   3.222   2.936
   36WAT      O  164   2.026   3.664   2.021
   36WAT     H1  165   2.017   3.759   2.035
   36WAT     H2  166   1.990   3.650   1.933
   37WAT      O  167   3.162   3.870   3.087
   37WAT     H1  168   3.089   3.921   3.122
   37WAT     H2  169   3.122   3.788   3.057
   38WAT      O  170   2.806   3.538   2.927
   38WAT     H1  171   2.806   3.494   2.842
   38WAT     H2  172   2.895   3.570   2.938
   39WAT      O  173   2.391   3.526   2.823
   39WAT     H1  174   2.357   3.574   2.899
   39WAT     H2  175   2.314   3.481   2.787
   40WAT      O  176   2.812   3.638   2.226
   40WAT     H1  177   2.824   3.634   2.321
   40WAT     H2  178   2.773   3.724   2.211
   41WAT      O  179   3.208   3.415   3.028
   41WAT     H1  180   3.210   3.461   3.113
   41WAT     H2  181   3.183   3.326   3.049
   42WAT      O  182   2.713   3.869   2.166
   42WAT     H1  183   2.656   3.824   2.104
   42WAT     H2  184   2.784   3.905   2.113
   43WAT      O  185   3.551   3.157   3.612
   43WAT     H1  186   3.583   3.084   3.665
   43WAT     H2  187   3.554   3.125   3.522
   44WAT      O  188   2.836   3.944   3.102
   44WAT     H1  189   2.872   3.896   3.177
   44WAT     H2  190   2.817   4.031   3.136
   45WAT      O  191   2.122   3.418   2.715
   45WAT     H1  192   2.094   3.382   2.799
   45WAT     H2  193   2.116   3.345   2.654
   46WAT      O  194   2.615   3.848   3.334
   46WAT     H1  195   2.584   3.936   3.356
   46WAT     H2  196   2.710   3.854   3.337
   47WAT      O  197   3.089   3.307   2.387
   47WAT     H1  198   3.008   3.258   2.380
   47WAT     H2  199   3.070   3.391   2.346
   48WAT      O  200   3.361   3.745   2.217
   48WAT     H1  201   3.450   3.776   2.199
   48WAT     H2  202   3.358   3.657   2.178
   49WAT      O  203   2.220   3.932   3.449
   49WAT     H1  204   2.184   3.998   3.507
   49WAT     H2  205   2.191   3.849   3.486
   50WAT      O  206   2.540   3.978   3.737
   50WAT     H1  207   2.510   3.992   3.647
   50WAT     H2  208   2.618   3.922   3.728
   51WAT      O  209   3.588   3.876   2.164
   51WAT     H1  210   3.580   3.919   2.079
   51WAT     H2  211   3.660   3.922   2.207
   52WAT      O  212   2.071   3.932   2.111
   52WAT     H1  213   2.158   3.960   2.139
   52WAT     H2  214   2.022   4.013   2.099
   53WAT      O  215   2.378   3.105   2.570
   53WAT     H1  216   2.365   3.104   2.665
   53WAT     H2  217   2.295   3.139   2.535
   54WAT      O  218   2.078   3.281   3.516
   54WAT     H1  219   2.006   3.301   3.577
   54WAT     H2  220   2.120   3.203   3.554
   55WAT      O  221   3.227   3.530   3.291
   55WAT     H1  222   3.264   3.448   3.324
   55WAT     H2  223   3.141   3.536   3.333
   56WAT      O  224   3.564   3.426   2.372
   56WAT     H1  225   3.501   3.436   2.301
   56WAT     H2  226   3.514   3.447   2.451
   57WAT      O  227   2.761   3.653   2.514
   57WAT     H1  228   2.690   3.700   2.558
   57WAT     H2  229   2.789   3.588   2.577
   58WAT      O  230   2.923   3.795   3.314
   58WAT     H1  231   2.973   3.843   3.380
   58WAT     H2  232   2.937   3.703   3.334
   59WAT      O  233   3.164   3.326   2.658
   59WAT     H1  234   3.151   3.328   2.563
   59WAT     H2  235   3.259   3.331   2.670
   60WAT      O  236   2.581   3.484   2.251
   60WAT     H1  237   2.666   3.528   2.245
   60WAT     H2  238   2.544   3.515   2.334
   61WAT      O  239   3.644   3.417   3.398
   61WAT     H1  240   3.594   3.491   3.432
   61WAT     H2  241   3.725   3.456   3.366
   62WAT      O  242   3.473   3.941   2.743
   62WAT     H1  243   3.379   3.943   2.760
   62WAT     H2  244   3.505   3.863   2.787
   63WAT      O  245   2.340   3.853   2.167
   63WAT     H1  246   2.348   3.758   2.178
   63WAT     H2  247   2.430   3.886   2.178
   64WAT      O  248   2.093   4.035   3.691
   64WAT     H1  249   2.143   3.977   3.748
   64WAT     H2  250   2.019   4.063   3.744
   65WAT      O  251   2.490   3.707   3.577
   65WAT     H1  252   2.437   3.658   3.514
   65WAT     H2  253   2.557   3.750   3.523
   66WAT      O  254   3.427   3.888   3.754
   66WAT     H1  255   3.486   3.812   3.745
   66WAT     H2  256   3.445   3.941   3.676
   67WAT      O  257   2.539   3.404   3.585
   67WAT     H1  258   2.530   3.342   3.512
   67WAT     H2  259   2.481   3.476   3.562
   68WAT      O  260   2.816   3.260   3.288
   68WAT     H1  261   2.771   3.262   3.204
   68WAT     H2  262   2.752   3.220   3.348
   69WAT      O  263   3.090   3.922   3.489
   69WAT     H1  264   3.102   3.863   3.563
   69WAT     H2  265   3.176   3.926   3.447
   70WAT      O  266   3.324   3.978   3.346
   70WAT     H1  267   3.271   4.030   3.286
   70WAT     H2  268   3.358   4.041   3.409
   71WAT      O  269   2.564   3.717   1.991
   71WAT     H1  270   2.544   3.630   2.027
   71WAT     H2  271   2.547   3.708   1.897
   72WAT      O  272   2.767   3.576   3.614
   72WAT     H1  273   2.826   3.546   3.683
   72WAT     H2  274   2.685   3.529   3.630
   73WAT      O  275   3.249   3.538   3.638
   73WAT     H1  276   3.180   3.472   3.631
   73WAT     H2  277   3.321   3.493   3.682
   74WAT      O  278   3.312   3.198   2.244
   74WAT     H1  279   3.340   3.113   2.279
   74WAT     H2  280   3.234   3.221   2.295
   75WAT      O  281   2.443   3.427   1.989
   75WAT     H1  282   2.474   3.427   1.899
   75WAT     H2  283   2.517   3.392   2.039
   76WAT      O  284   2.765   3.321   2.088
   76WAT     H1  285   2.731   3.253   2.030
   76WAT     H2  286   2.785   3.275   2.169
   77WAT      O  287   2.099   3.974   2.728
   77WAT     H1  288   2.034   3.947   2.663
   77WAT     H2  289   2.183   3.963   2.683
   78WAT      O  290   3.394   3.453   2.150
   78WAT     H1  291   3.436   3.434   2.066
   78WAT     H2  292   3.364   3.368   2.181
   79WAT      O  293   3.744   3.944   2.520
   79WAT     H1  294   3.707   3.868   2.476
   79WAT     H2  295   3.671   3.983   2.568
   80WAT      O  296   2.203   4.012   3.182
   80WAT     H1  297   2.240   4.004   3.270
   80WAT     H2  298   2.146   3.936   3.172
   81WAT      O  299   3.683   3.859   3.483
   81WAT     H1  300   3.660   3.836   3.393
   81WAT     H2  301   3.709   3.951   3.478
   82WAT      O  302   2.158   3.703   3.572
   82WAT     H1  303   2.069   3.700   3.606
   82WAT     H2  304   2.212   3.723   3.649
   83WAT      O  305   3.527   3.382   3.761
   83WAT     H1  306   3.615   3.383   3.799
   83WAT     H2  307   3.528   3.308   3.700
   84WAT      O  308   2.021   3.695   2.322
   84WAT     H1  309   1.930   3.721   2.304
   84WAT     H2  310   2.069   3.722   2.244
   85WAT      O  311   3.672   3.767   2.850
   85WAT     H1  312   3.724   3.718   2.787
   85WAT     H2  313   3.730   3.780   2.924
   86WAT      O  314   3.690   3.775   3.202
   86WAT     H1  315   3.595   3.772   3.213
   86WAT     H2  316   3.708   3.866   3.178
   87WAT      O  317   2.275   3.600   2.113
   87WAT     H1  318   2.346   3.558   2.064
   87WAT     H2  319   2.203   3.607   2.050
   88WAT      O  320   2.240   3.206   2.017
   88WAT     H1  321   2.312   3.260   2.049
   88WAT     H2  322   2.267   3.178   1.929
   89WAT      O  323   3.621   3.693   2.444
   89WAT     H1  324   3.670   3.669   2.522
   89WAT     H2  325   3.601   3.609   2.402
   90WAT      O  326   2.209   3.131   3.007
   90WAT     H1  327   2.273   3.076   2.963
   90WAT     H2  328   2.251   3.156   3.089
   91WAT      O  329   3.764   3.556   2.697
   91WAT     H1  330   3.753   3.541   2.791
   91WAT     H2  331   3.840   3.504   2.673
   92WAT      O  332   3.598   3.150   3.343
   92WAT     H1  333   3.662   3.212   3.379
   92WAT     H2  334   3.613   3.154   3.248
   93WAT      O  335   2.184   3.146   3.281
   93WAT     H1  336   2.149   3.192   3.358
   93WAT     H2  337   2.151   3.057   3.290
   94WAT      O  338   2.935   3.266   3.634
   94WAT     H1  339   2.929   3.325   3.709
   94WAT     H2  340   3.029   3.255   3.619
   95WAT      O  341   3.199   3.231   3.598
   95WAT     H1  342   3.260   3.263   3.531
   95WAT     H2  343   3.254   3.183   3.659
   96WAT      O  344   2.251   3.099   3.609
   96WAT     H1  345   2.306   3.081   3.533
   96WAT     H2  346   2.258   3.020   3.662
   97WAT      O  347   3.273   3.088   3.230
   97WAT     H1  348   3.186   3.121   3.210
   97WAT     H2  349   3.262   3.040   3.313
   98WAT      O  350   3.364   3.308   3.369
   98WAT     H1  351   3.331   3.227   3.331
   98WAT     H2  352   3.459   3.304   3.356
   99WAT      O  353   3.048   3.179   3.124
   99WAT     H1  354   2.970   3.227   3.152
   99WAT     H2  355   3.018   3.089   3.113
  100WAT      O  356   3.503   3.249   2.929
  100WAT     H1  357   3.547   3.244   2.844
  100WAT     H2  358   3.476   3.341   2.936
  101WAT      O  359   3.689   3.213   2.730
  101WAT     H1  360   3.683   3.118   2.715
  101WAT     H2  361   3.767   3.223   2.784
  102WAT      O  362   2.182   3.210   2.376
  102WAT     H1  363   2.258   3.221   2.319
  102WAT     H2  364   2.136   3.293   2.372
  103WAT      O  365   2.836   3.421   2.675
  103WAT     H1  366   2.755   3.384   2.641
  103WAT     H2  367   2.887   3.346   2.705
  104WAT      O  368   3.287   3.088   2.799
  104WAT     H1  369   3.347   3.145   2.847
  104WAT     H2  370   3.213   3.144   2.777
  105WAT      O  371   3.601   3.128   2.327
  105WAT     H1  372   3.620   3.218   2.353
  105WAT     H2  373   3.522   3.105   2.376
  106WAT      O  374   2.420   3.262   2.230
  106WAT     H1  375   2.472   3.184   2.217
  106WAT     H2  376   2.483   3.330   2.254
  107WAT      O  377   2.639   3.236   2.536
  107WAT     H1  378   2.576   3.166   2.552
  107WAT     H2  379   2.585   3.312   2.514
  108WAT      O  380   2.651   3.164   3.779
  108WAT     H1  381   2.623   3.214   3.703
  108WAT     H2  382   2.690   3.084   3.743
  109WAT      O  383   3.202   3.907   0.873
  109WAT     H1  384   3.194   3.816   0.846
  109WAT     H2  385   3.161   3.957   0.803
  110WAT      O  386   2.258   3.612   0.528
  110WAT     H1  387   2.169   3.647   0.517
  110WAT     H2  388   2.286   3.592   0.438
  111WAT      O  389   2.054   3.872   1.116
  111WAT     H1  390   2.111   3.796   1.116
  111WAT     H2  391   2.054   3.902   1.025
  112WAT      O  392   2.179   3.413   1.295
  112WAT     H1  393   2.161   3.324   1.323
  112WAT     H2  394   2.138   3.468   1.362
  113WAT      O  395   3.062   3.633   1.085
  113WAT     H1  396   3.100   3.546   1.074
  113WAT     H2  397   3.053   3.667   0.996
  114WAT      O  398   2.476   3.471   0.631
  114WAT     H1  399   2.486   3.561   0.662
  114WAT     H2  400   2.384   3.466   0.602
  115WAT      O  401   3.441   3.383   0.778
  115WAT     H1  402   3.523   3.334   0.782
  115WAT     H2  403   3.444   3.442   0.853
  116WAT      O  404   2.240   3.663   1.156
  116WAT     H1  405   2.308   3.689   1.217
  116WAT     H2  406   2.209   3.579   1.189
  117WAT      O  407   2.660   3.768   1.064
  117WAT     H1  408   2.710   3.817   1.128
  117WAT     H2  409   2.713   3.690   1.047
  118WAT      O  410   2.488   3.232   1.491
  118WAT     H1  411   2.488   3.283   1.410
  118WAT     H2  412   2.405   3.184   1.489
  119WAT      O  413   3.464   3.577   1.055
  119WAT     H1  414   3.394   3.606   1.113
  119WAT     H2  415   3.500   3.658   1.019
  120WAT      O  416   2.456   3.403   1.292
  120WAT     H1  417   2.490   3.487   1.262
  120WAT     H2  418   2.362   3.418   1.303
  121WAT      O  419   3.771   3.522   1.095
  121WAT     H1  420   3.676   3.525   1.108
  121WAT     H2  421   3.804   3.603   1.133
  122WAT      O  422   2.824   3.152   0.924
  122WAT     H1  423   2.855   3.096   0.852
  122WAT     H2  424   2.731   3.165   0.906
  123WAT      O  425   3.063   3.958   0.598
  123WAT     H1  426   2.971   3.951   0.621
  123WAT     H2  427   3.078   4.052   0.586
  124WAT      O  428   3.062   3.585   0.297
  124WAT     H1  429   2.968   3.601   0.306
  124WAT     H2  430   3.094   3.657   0.243
  125WAT      O  431   3.410   3.732   1.390
  125WAT     H1  432   3.369   3.815   1.415
  125WAT     H2  433   3.337   3.674   1.370
  126WAT      O  434   2.624   4.011   0.876
  126WAT     H1  435   2.583   3.939   0.826
  126WAT     H2  436   2.632   3.976   0.965
  127WAT      O  437   2.495   3.688   1.254
  127WAT     H1  438   2.550   3.699   1.176
  127WAT     H2  439   2.547   3.725   1.325
  128WAT      O  440   3.642   3.164   0.180
  128WAT     H1  441   3.611   3.173   0.270
  128WAT     H2  442   3.718   3.221   0.175
  129WAT      O  443   2.294   3.900   0.626
  129WAT     H1  444   2.282   3.973   0.565
  129WAT     H2  445   2.263   3.823   0.578
  130WAT      O  446   3.763   3.637   1.778
  130WAT     H1  447   3.701   3.688   1.725
  130WAT     H2  448   3.731   3.547   1.772
  131WAT      O  449   2.540   3.234   0.964
  131WAT     H1  450   2.496   3.313   0.931
  131WAT     H2  451   2.596   3.267   1.035
  132WAT      O  452   2.969   3.521   1.525
  132WAT     H1  453   2.923   3.542   1.606
  132WAT     H2  454   2.929   3.440   1.494
  133WAT      O  455   3.469   3.643   1.638
  133WAT     H1  456   3.384   3.613   1.670
  133WAT     H2  457   3.453   3.668   1.546
  134WAT      O  458   3.179   3.793   1.848
  134WAT     H1  459   3.211   3.710   1.814
  134WAT     H2  460   3.258   3.846   1.862
  135WAT      O  461   2.852   3.197   0.452
  135WAT     H1  462   2.790   3.196   0.525
  135WAT     H2  463   2.843   3.110   0.413
  136WAT      O  464   2.744   3.289   1.150
  136WAT     H1  465   2.774   3.380   1.142
  136WAT     H2  466   2.799   3.240   1.089
  137WAT      O  467   2.520   3.747   0.737
  137WAT     H1  468   2.497   3.725   0.827
  137WAT     H2  469   2.442   3.790   0.702
  138WAT      O  470   3.243   3.747   0.597
  138WAT     H1  471   3.183   3.820   0.579
  138WAT     H2  472   3.297   3.741   0.519
  139WAT      O  473   2.764   3.837   1.804
  139WAT     H1  474   2.754   3.743   1.789
  139WAT     H2  475   2.848   3.859   1.764
  140WAT      O  476   3.103   3.611   0.800
  140WAT     H1  477   3.143   3.643   0.719
  140WAT     H2  478   3.139   3.523   0.811
  141WAT      O  479   2.277   3.478   1.619
  141WAT     H1  480   2.237   3.563   1.640
  141WAT     H2  481   2.208   3.414   1.638
  142WAT      O  482   2.934   3.486   1.926
  142WAT     H1  483   2.865   3.467   1.989
  142WAT     H2  484   3.008   3.514   1.979
  143WAT      O  485   2.007   3.270   1.022
  143WAT     H1  486   1.978   3.327   1.094
  143WAT     H2  487   2.081   3.222   1.059
  144WAT      O  488   3.162   3.870   1.209
  144WAT     H1  489   3.089   3.921   1.244
  144WAT     H2  490   3.122   3.788   1.179
  145WAT      O  491   2.806   3.538   1.050
  145WAT     H1  492   2.806   3.494   0.965
  145WAT     H2  493   2.895   3.570   1.061
  146WAT      O  494   2.391   3.526   0.946
  146WAT     H1  495   2.357   3.574   1.022
  146WAT     H2  496   2.314   3.481   0.910
  147WAT      O  497   2.812   3.638   0.349
  147WAT     H1  498   2.824   3.634   0.444
  147WAT     H2  499   2.773   3.724   0.334
  148WAT      O  500   3.208   3.415   1.151
  148WAT     H1  501   3.210   3.461   1.235
  148WAT     H2  502   3.183   3.326   1.172
  149WAT      O  503   2.713   3.869   0.289
  149WAT     H1  504   2.656   3.824   0.226
  149WAT     H2  505   2.784   3.905   0.236
  150WAT      O  506   3.551   3.157   1.735
  150WAT     H1  507   3.583   3.084   1.787
  150WAT     H2  508   3.554   3.125   1.644
  151WAT      O  509   2.836   3.944   1.225
  151WAT     H1  510   2.872   3.896   1.299
  151WAT     H2  511   2.817   4.031   1.259
  152WAT      O  512   2.122   3.418   0.838
  152WAT     H1  513   2.094   3.382   0.921
  152WAT     H2  514   2.116   3.345   0.776
  153WAT      O  515   2.615   3.848   1.456
  153WAT     H1  516   2.584   3.936   1.479
  153WAT     H2  517   2.710   3.854   1.460
  154WAT      O  518   3.089   3.307   0.510
  154WAT     H1  519   3.008   3.258   0.502
  154WAT     H2  520   3.070   3.391   0.468
  155WAT      O  521   3.361   3.745   0.339
  155WAT     H1  522   3.450   3.776   0.322
  155WAT     H2  523   3.358   3.657   0.300
  156WAT      O  524   2.220   3.932   1.571
  156WAT     H1  525   2.184   3.998   1.630
  156WAT     H2  526   2.191   3.849   1.608
  157WAT      O  527   2.540   3.978   1.860
  157WAT     H1  528   2.510   3.992   1.770
  157WAT     H2  529   2.618   3.922   1.850
  158WAT      O  530   3.588   3.876   0.286
  158WAT     H1  531   3.580   3.919   0.201
  158WAT     H2  532   3.660   3.922   0.329
  159WAT      O  533   2.071   3.932   0.234
  159WAT     H1  534   2.158   3.960   0.262
  159WAT     H2  535   2.022   4.013   0.222
  160WAT      O  536   2.378   3.105   0.693
  160WAT     H1  537   2.365   3.104   0.788
  160WAT     H2  538   2.295   3.139   0.658
  161WAT      O  539   2.078   3.281   1.639
  161WAT     H1  540   2.006   3.301   1.699
  161WAT     H2  541   2.120   3.203   1.676
  162WAT      O  542   3.227   3.530   1.414
  162WAT     H1  543   3.264   3.448   1.447
  162WAT     H2  544   3.141   3.536   1.455
  163WAT      O  545   3.564   3.426   0.495
  163WAT     H1  546   3.501   3.436   0.423
  163WAT     H2  547   3.514   3.447   0.574
  164WAT      O  548   2.761   3.653   0.636
  164WAT     H1  549   2.690   3.700   0.681
  164WAT     H2  550   2.789   3.588   0.700
  165WAT      O  551   2.923   3.795   1.436
  165WAT     H1  552   2.973   3.843   1.503
  165WAT     H2  553   2.937   3.703   1.457
  166WAT      O  554   3.164   3.326   0.780
  166WAT     H1  555   3.151   3.328   0.685
  166WAT     H2  556   3.259   3.331   0.792
  167WAT      O  557   2.581   3.484   0.374
  167WAT     H1  558   2.666   3.528   0.367
  167WAT     H2  559   2.544   3.515   0.457
  168WAT      O  560   3.644   3.417   1.521
  168WAT     H1  561   3.594   3.491   1.555
  168WAT     H2  562   3.725   3.456   1.489
  169WAT      O  563   3.473   3.941   0.865
  169WAT     H1  564   3.379   3.943   0.883
  169WAT     H2  565   3.505   3.863   0.910
  170WAT      O  566   2.340   3.853   0.290
  170WAT     H1  567   2.348   3.758   0.301
  170WAT     H2  568   2.430   3.886   0.300
  171WAT      O  569   2.093   4.035   1.813
  171WAT     H1  570   2.143   3.977   1.870
  171WAT     H2  571   2.019   4.063   1.867
  172WAT      O  572   2.296   3.849   1.903
  172WAT     H1  573   2.300   3.819   1.993
  172WAT     H2  574   2.382   3.889   1.887
  173WAT      O  575   2.490   3.707   1.699
  173WAT     H1  576   2.437   3.658   1.637
  173WAT     H2  577   2.557   3.750   1.646
  174WAT      O  578   3.427   3.888   1.876
  174WAT     H1  579   3.486   3.812   1.867
  174WAT     H2  580   3.445   3.941   1.799
  175WAT      O  581   2.539   3.404   1.707
  175WAT     H1  582   2.530   3.342   1.635
  175WAT     H2  583   2.481   3.476   1.685
  176WAT      O  584   2.816   3.260   1.411
  176WAT     H1  585   2.771   3.262   1.326
  176WAT     H2  586   2.752   3.220   1.470
  177WAT      O  587   3.090   3.922   1.611
  177WAT     H1  588   3.102   3.863   1.685
  177WAT     H2  589   3.176   3.926   1.569
  178WAT      O  590   3.324   3.978   1.469
  178WAT     H1  591   3.271   4.030   1.408
  178WAT     H2  592   3.358   4.041   1.532
  179WAT      O  593   2.767   3.576   1.737
  179WAT     H1  594   2.826   3.546   1.806
  179WAT     H2  595   2.685   3.529   1.752
  180WAT      O  596   3.249   3.538   1.760
  180WAT     H1  597   3.180   3.472   1.754
  180WAT     H2  598   3.321   3.493   1.805
  181WAT      O  599   3.312   3.198   0.366
  181WAT     H1  600   3.340   3.113   0.402
  181WAT     H2  601   3.234   3.221   0.418
  182WAT      O  602   2.765   3.321   0.211
  182WAT     H1  603   2.731   3.253   0.153
  182WAT     H2  604   2.785   3.275   0.292
  183WAT      O  605   2.099   3.974   0.850
  183WAT     H1  606   2.034   3.947   0.786
  183WAT     H2  607   2.183   3.963   0.805
  184WAT      O  608   3.394   3.453   0.272
  184WAT     H1  609   3.436   3.434   0.188
  184WAT     H2  610   3.364   3.368   0.303
  185WAT      O  611   3.744   3.944   0.642
  185WAT     H1  612   3.707   3.868   0.599
  185WAT     H2  613   3.671   3.983   0.691
  186WAT      O  614   2.203   4.012   1.304
  186WAT     H1  615   2.240   4.004   1.392
  186WAT     H2  616   2.146   3.936   1.294
  187WAT      O  617   3.683   3.859   1.606
  187WAT     H1  618   3.660   3.836   1.516
  187WAT     H2  619   3.709   3.951   1.601
  188WAT      O  620   2.158   3.703   1.695
  188WAT     H1  621   2.069   3.700   1.729
  188WAT     H2  622   2.212   3.723   1.771
  189WAT      O  623   3.527   3.382   1.883
  189WAT     H1  624   3.615   3.383   1.922
  189WAT     H2  625   3.528   3.308   1.822
  190WAT      O  626   2.021   3.695   0.445
  190WAT     H1  627   1.930   3.721   0.427
  190WAT     H2  628   2.069   3.722   0.367
  191WAT      O  629   3.672   3.767   0.972
  191WAT     H1  630   3.724   3.718   0.909
  191WAT     H2  631   3.730   3.780   1.047
  192WAT      O  632   3.690   3.775   1.324
  192WAT     H1  633   3.595   3.772   1.336
  192WAT     H2  634   3.708   3.866   1.301
  193WAT      O  635   2.275   3.600   0.235
  193WAT     H1  636   2.346   3.558   0.187
  193WAT     H2  637   2.203   3.607   0.172
  194WAT      O  638   3.621   3.693   0.566
  194WAT     H1  639   3.670   3.669   0.645
  194WAT     H2  640   3.601   3.609   0.525
  195WAT      O  641   2.209   3.131   1.130
  195WAT     H1  642   2.273   3.076   1.086
  195WAT     H2  643   2.251   3.156   1.212
  196WAT      O  644   3.764   3.556   0.820
  196WAT     H1  645   3.753   3.541   0.913
  196WAT     H2  646   3.840   3.504   0.795
  197WAT      O  647   3.598   3.150   1.465
  197WAT     H1  648   3.662   3.212   1.502
  197WAT     H2  649   3.613   3.154   1.371
  198WAT      O  650   2.184   3.146   1.404
  198WAT     H1  651   2.149   3.192   1.481
  198WAT     H2  652   2.151   3.057   1.412
  199WAT      O  653   2.935   3.266   1.756
  199WAT     H1  654   2.929   3.325   1.831
  199WAT     H2  655   3.029   3.255   1.742
  200WAT      O  656   3.199   3.231   1.720
  200WAT     H1  657   3.260   3.263   1.654
  200WAT     H2  658   3.254   3.183   1.782
  201WAT      O  659   2.251   3.099   1.731
  201WAT     H1  660   2.306   3.081   1.655
  201WAT     H2  661   2.258   3.020   1.785
  202WAT      O  662   3.273   3.088   1.353
  202WAT     H1  663   3.186   3.121   1.332
  202WAT     H2  664   3.262   3.040   1.435
  203WAT      O  665   3.364   3.308   1.491
  203WAT     H1  666   3.331   3.227   1.453
  203WAT     H2  667   3.459   3.304   1.479
  204WAT      O  668   3.048   3.179   1.247
  204WAT     H1  669   2.970   3.227   1.275
  204WAT     H2  670   3.018   3.089   1.236
  205WAT      O  671   3.503   3.249   1.051
  205WAT     H1  672   3.547   3.244   0.966
  205WAT     H2  673   3.476   3.341   1.058
  206WAT      O  674   3.689   3.213   0.852
  206WAT     H1  675   3.683   3.118   0.838
  206WAT     H2  676   3.767   3.223   0.907
  207WAT      O  677   2.182   3.210   0.499
  207WAT     H1  678   2.258   3.221   0.441
  207WAT     H2  679   2.136   3.293   0.494
  208WAT      O  680   2.836   3.421   0.798
  208WAT     H1  681   2.755   3.384   0.764
  208WAT     H2  682   2.887   3.346   0.828
  209WAT      O  683   3.287   3.088   0.922
  209WAT     H1  684   3.347   3.145   0.969
  209WAT     H2  685   3.213   3.144   0.899
  210WAT      O  686   3.601   3.128   0.449
  210WAT     H1  687   3.620   3.218   0.476
  210WAT     H2  688   3.522   3.105   0.498
  211WAT      O  689   2.420   3.262   0.353
  211WAT     H1  690   2.472   3.184   0.340
  211WAT     H2  691   2.483   3.330   0.376
  212WAT      O  692   2.639   3.236   0.658
  212WAT     H1  693   2.576   3.166   0.675
  212WAT     H2  694   2.585   3.312   0.637
  213WAT      O  695   2.651   3.164   1.902
  213WAT     H1  696   2.623   3.214   1.825
  213WAT     H2  697   2.690   3.084   1.865
  214WAT      O  698   3.312   3.105   1.960
  214WAT     H1  699   3.300   3.137   2.049
  214WAT     H2  700   3.393   3.146   1.930
  215WAT      O  701   3.202   2.030   2.751
  215WAT     H1  702   3.194   1.939   2.724
  215WAT     H2  703   3.161   2.080   2.680
  216WAT      O  704   3.015   2.208   2.939
  216WAT     H1  705   2.938   2.160   2.968
  216WAT     H2  706   3.080   2.140   2.922
  217WAT      O  707   2.417   2.239   3.027
  217WAT     H1  708   2.334   2.213   3.067
  217WAT     H2  709   2.478   2.246   3.100
  218WAT      O  710   3.417   2.648   2.817
  218WAT     H1  711   3.371   2.571   2.850
  218WAT     H2  712   3.499   2.651   2.867
  219WAT      O  713   2.415   2.642   3.046
  219WAT     H1  714   2.445   2.553   3.028
  219WAT     H2  715   2.489   2.698   3.024
  220WAT      O  716   2.054   1.995   2.994
  220WAT     H1  717   2.111   1.918   2.994
  220WAT     H2  718   2.054   2.025   2.903
  221WAT      O  719   3.040   2.877   2.779
  221WAT     H1  720   2.978   2.923   2.722
  221WAT     H2  721   3.126   2.892   2.739
  222WAT      O  722   2.959   2.475   2.940
  222WAT     H1  723   2.953   2.381   2.924
  222WAT     H2  724   3.036   2.484   2.997
  223WAT      O  725   2.179   1.536   3.172
  223WAT     H1  726   2.161   1.446   3.200
  223WAT     H2  727   2.138   1.591   3.240
  224WAT      O  728   3.062   1.756   2.962
  224WAT     H1  729   3.100   1.669   2.951
  224WAT     H2  730   3.053   1.790   2.873
  225WAT      O  731   3.441   1.506   2.656
  225WAT     H1  732   3.523   1.457   2.660
  225WAT     H2  733   3.444   1.565   2.731
  226WAT      O  734   2.240   1.785   3.033
  226WAT     H1  735   2.308   1.812   3.095
  226WAT     H2  736   2.209   1.702   3.066
  227WAT      O  737   2.660   1.890   2.942
  227WAT     H1  738   2.710   1.940   3.006
  227WAT     H2  739   2.713   1.813   2.924
  228WAT      O  740   2.488   1.354   3.368
  228WAT     H1  741   2.488   1.406   3.288
  228WAT     H2  742   2.405   1.306   3.366
  229WAT      O  743   3.127   2.365   2.518
  229WAT     H1  744   3.065   2.412   2.462
  229WAT     H2  745   3.178   2.435   2.560
  230WAT      O  746   2.613   2.318   3.186
  230WAT     H1  747   2.580   2.381   3.250
  230WAT     H2  748   2.631   2.371   3.108
  231WAT      O  749   3.464   1.700   2.933
  231WAT     H1  750   3.394   1.728   2.991
  231WAT     H2  751   3.500   1.781   2.897
  232WAT      O  752   2.456   1.525   3.169
  232WAT     H1  753   2.490   1.610   3.140
  232WAT     H2  754   2.362   1.540   3.181
  233WAT      O  755   2.534   2.515   3.368
  233WAT     H1  756   2.596   2.582   3.339
  233WAT     H2  757   2.448   2.556   3.358
  234WAT      O  758   2.064   2.434   2.256
  234WAT     H1  759   2.026   2.483   2.183
  234WAT     H2  760   2.089   2.501   2.319
  235WAT      O  761   3.626   2.661   3.159
  235WAT     H1  762   3.558   2.728   3.158
  235WAT     H2  763   3.680   2.681   3.083
  236WAT      O  764   3.771   1.644   2.972
  236WAT     H1  765   3.676   1.647   2.985
  236WAT     H2  766   3.804   1.725   3.010
  237WAT      O  767   2.824   1.274   2.802
  237WAT     H1  768   2.855   1.219   2.730
  237WAT     H2  769   2.731   1.288   2.783
  238WAT      O  770   3.380   2.846   3.031
  238WAT     H1  771   3.381   2.805   2.944
  238WAT     H2  772   3.324   2.923   3.020
  239WAT      O  773   3.509   2.518   2.540
  239WAT     H1  774   3.498   2.424   2.552
  239WAT     H2  775   3.509   2.554   2.628
  240WAT      O  776   3.319   2.336   3.163
  240WAT     H1  777   3.361   2.315   3.080
  240WAT     H2  778   3.392   2.362   3.221
  241WAT      O  779   3.063   2.081   2.475
  241WAT     H1  780   2.971   2.074   2.498
  241WAT     H2  781   3.078   2.174   2.464
  242WAT      O  782   3.062   1.708   2.175
  242WAT     H1  783   2.968   1.724   2.183
  242WAT     H2  784   3.094   1.780   2.120
  243WAT      O  785   3.714   2.176   3.173
  243WAT     H1  786   3.631   2.183   3.125
  243WAT     H2  787   3.774   2.234   3.126
  244WAT      O  788   3.466   2.237   2.525
  244WAT     H1  789   3.404   2.203   2.461
  244WAT     H2  790   3.464   2.172   2.596
  245WAT      O  791   3.410   1.855   3.267
  245WAT     H1  792   3.369   1.937   3.293
  245WAT     H2  793   3.337   1.796   3.248
  246WAT      O  794   2.624   2.133   2.753
  246WAT     H1  795   2.583   2.062   2.704
  246WAT     H2  796   2.632   2.099   2.842
  247WAT      O  797   2.671   2.502   2.970
  247WAT     H1  798   2.641   2.441   2.902
  247WAT     H2  799   2.766   2.506   2.959
  248WAT      O  800   2.495   1.811   3.131
  248WAT     H1  801   2.550   1.822   3.054
  248WAT     H2  802   2.547   1.848   3.203
  249WAT      O  803   3.479   2.859   3.336
  249WAT     H1  804   3.432   2.940   3.317
  249WAT     H2  805   3.411   2.794   3.351
  250WAT      O  806   2.580   2.476   3.635
  250WAT     H1  807   2.490   2.498   3.660
  250WAT     H2  808   2.582   2.488   3.540
  251WAT      O  809   3.284   2.161   2.226
  251WAT     H1  810   3.328   2.077   2.212
  251WAT     H2  811   3.355   2.224   2.235
  252WAT      O  812   2.463   2.163   3.492
  252WAT     H1  813   2.449   2.250   3.529
  252WAT     H2  814   2.374   2.129   3.478
  253WAT      O  815   3.095   2.655   2.623
  253WAT     H1  816   3.139   2.729   2.582
  253WAT     H2  817   3.089   2.679   2.715
  254WAT      O  818   2.642   2.757   3.713
  254WAT     H1  819   2.639   2.797   3.627
  254WAT     H2  820   2.626   2.664   3.697
  255WAT      O  821   3.642   1.286   2.058
  255WAT     H1  822   3.611   1.295   2.148
  255WAT     H2  823   3.718   1.344   2.053
  256WAT      O  824   2.058   2.340   3.084
  256WAT     H1  825   2.065   2.353   2.990
  256WAT     H2  826   2.119   2.269   3.103
  257WAT      O  827   2.182   2.510   2.725
  257WAT     H1  828   2.141   2.524   2.640
  257WAT     H2  829   2.271   2.481   2.705
  258WAT      O  830   3.778   2.554   3.559
  258WAT     H1  831   3.790   2.531   3.467
  258WAT     H2  832   3.782   2.471   3.606
  259WAT      O  833   3.164   2.925   3.416
  259WAT     H1  834   3.215   2.916   3.496
  259WAT     H2  835   3.080   2.959   3.445
  260WAT      O  836   3.362   2.953   2.359
  260WAT     H1  837   3.346   2.924   2.448
  260WAT     H2  838   3.345   2.876   2.305
  261WAT      O  839   2.609   2.931   2.536
  261WAT     H1  840   2.592   2.840   2.515
  261WAT     H2  841   2.524   2.967   2.560
  262WAT      O  842   3.332   2.704   2.215
  262WAT     H1  843   3.262   2.704   2.149
  262WAT     H2  844   3.406   2.662   2.172
  263WAT      O  845   3.288   2.867   2.622
  263WAT     H1  846   3.334   2.789   2.654
  263WAT     H2  847   3.322   2.938   2.677
  264WAT      O  848   3.763   1.760   3.655
  264WAT     H1  849   3.701   1.811   3.603
  264WAT     H2  850   3.731   1.670   3.650
  265WAT      O  851   2.063   2.444   3.338
  265WAT     H1  852   2.080   2.397   3.256
  265WAT     H2  853   2.110   2.393   3.405
  266WAT      O  854   2.540   1.357   2.842
  266WAT     H1  855   2.496   1.435   2.808
  266WAT     H2  856   2.596   1.389   2.912
  267WAT      O  857   2.969   1.644   3.402
  267WAT     H1  858   2.923   1.665   3.483
  267WAT     H2  859   2.929   1.562   3.372
  268WAT      O  860   3.469   1.766   3.515
  268WAT     H1  861   3.384   1.736   3.547
  268WAT     H2  862   3.453   1.790   3.424
  269WAT      O  863   3.179   1.916   3.725
  269WAT     H1  864   3.211   1.832   3.691
  269WAT     H2  865   3.258   1.968   3.740
  270WAT      O  866   2.852   1.319   2.330
  270WAT     H1  867   2.790   1.319   2.402
  270WAT     H2  868   2.843   1.232   2.290
  271WAT      O  869   2.744   1.411   3.028
  271WAT     H1  870   2.774   1.502   3.019
  271WAT     H2  871   2.799   1.363   2.966
  272WAT      O  872   2.520   1.869   2.614
  272WAT     H1  873   2.497   1.848   2.705
  272WAT     H2  874   2.442   1.913   2.580
  273WAT      O  875   3.243   1.870   2.474
  273WAT     H1  876   3.183   1.942   2.456
  273WAT     H2  877   3.297   1.864   2.396
  274WAT      O  878   2.764   1.959   3.681
  274WAT     H1  879   2.754   1.865   3.666
  274WAT     H2  880   2.848   1.981   3.642
  275WAT      O  881   3.103   1.734   2.677
  275WAT     H1  882   3.143   1.765   2.596
  275WAT     H2  883   3.139   1.646   2.689
  276WAT      O  884   2.277   1.600   3.496
  276WAT     H1  885   2.237   1.685   3.517
  276WAT     H2  886   2.208   1.537   3.515
  277WAT      O  887   2.007   1.393   2.900
  277WAT     H1  888   1.978   1.450   2.971
  277WAT     H2  889   2.081   1.345   2.936
  278WAT      O  890   3.162   1.993   3.087
  278WAT     H1  891   3.089   2.044   3.122
  278WAT     H2  892   3.122   1.911   3.057
  279WAT      O  893   2.806   1.660   2.927
  279WAT     H1  894   2.806   1.616   2.842
  279WAT     H2  895   2.895   1.692   2.938
  280WAT      O  896   2.391   1.648   2.823
  280WAT     H1  897   2.357   1.696   2.899
  280WAT     H2  898   2.314   1.603   2.787
  281WAT      O  899   2.812   1.760   2.226
  281WAT     H1  900   2.824   1.756   2.321
  281WAT     H2  901   2.773   1.847   2.211
  282WAT      O  902   3.208   1.538   3.028
  282WAT     H1  903   3.210   1.583   3.113
  282WAT     H2  904   3.183   1.448   3.049
  283WAT      O  905   2.713   1.991   2.166
  283WAT     H1  906   2.656   1.947   2.104
  283WAT     H2  907   2.784   2.027   2.113
  284WAT      O  908   3.551   1.279   3.612
  284WAT     H1  909   3.583   1.206   3.665
  284WAT     H2  910   3.554   1.247   3.522
  285WAT      O  911   2.221   2.381   3.554
  285WAT     H1  912   2.182   2.317   3.614
  285WAT     H2  913   2.252   2.452   3.611
  286WAT      O  914   2.836   2.066   3.102
  286WAT     H1  915   2.872   2.019   3.177
  286WAT     H2  916   2.817   2.154   3.136
  287WAT      O  917   2.615   1.970   3.334
  287WAT     H1  918   2.584   2.058   3.356
  287WAT     H2  919   2.710   1.976   3.337
  288WAT      O  920   2.467   2.391   2.394
  288WAT     H1  921   2.390   2.337   2.378
  288WAT     H2  922   2.540   2.339   2.360
  289WAT      O  923   3.543   2.291   2.973
  289WAT     H1  924   3.615   2.340   2.934
  289WAT     H2  925   3.523   2.223   2.908
  290WAT      O  926   3.089   1.430   2.387
  290WAT     H1  927   3.008   1.380   2.380
  290WAT     H2  928   3.070   1.514   2.346
  291WAT      O  929   3.082   2.298   3.562
  291WAT     H1  930   3.075   2.206   3.536
  291WAT     H2  931   3.019   2.307   3.633
  292WAT      O  932   3.361   1.867   2.217
  292WAT     H1  933   3.450   1.898   2.199
  292WAT     H2  934   3.358   1.780   2.178
  293WAT      O  935   2.472   2.358   2.757
  293WAT     H1  936   2.524   2.277   2.752
  293WAT     H2  937   2.427   2.352   2.842
  294WAT      O  938   2.961   2.484   2.285
  294WAT     H1  939   2.995   2.559   2.235
  294WAT     H2  940   2.878   2.516   2.321
  295WAT      O  941   2.220   2.054   3.449
  295WAT     H1  942   2.184   2.121   3.507
  295WAT     H2  943   2.191   1.971   3.486
  296WAT      O  944   2.540   2.100   3.737
  296WAT     H1  945   2.510   2.115   3.647
  296WAT     H2  946   2.618   2.044   3.728
  297WAT      O  947   3.075   2.580   3.537
  297WAT     H1  948   3.076   2.487   3.515
  297WAT     H2  949   3.004   2.588   3.600
  298WAT      O  950   3.588   1.998   2.164
  298WAT     H1  951   3.580   2.041   2.079
  298WAT     H2  952   3.660   2.044   2.207
  299WAT      O  953   3.696   2.244   3.471
  299WAT     H1  954   3.623   2.303   3.452
  299WAT     H2  955   3.749   2.243   3.391
  300WAT      O  956   3.691   2.684   2.436
  300WAT     H1  957   3.627   2.618   2.464
  300WAT     H2  958   3.652   2.724   2.359
  301WAT      O  959   3.249   2.417   2.821
  301WAT     H1  960   3.284   2.357   2.755
  301WAT     H2  961   3.160   2.384   2.838
  302WAT      O  962   2.857   2.493   2.562
  302WAT     H1  963   2.926   2.547   2.600
  302WAT     H2  964   2.779   2.547   2.565
  303WAT      O  965   2.788   2.193   2.523
  303WAT     H1  966   2.833   2.274   2.546
  303WAT     H2  967   2.753   2.161   2.606
  304WAT      O  968   3.018   2.744   3.246
  304WAT     H1  969   3.082   2.765   3.314
  304WAT     H2  970   3.054   2.668   3.201
  305WAT      O  971   2.378   1.227   2.570
  305WAT     H1  972   2.365   1.227   2.665
  305WAT     H2  973   2.295   1.261   2.535
  306WAT      O  974   3.145   2.544   3.118
  306WAT     H1  975   3.210   2.474   3.129
  306WAT     H2  976   3.198   2.622   3.100
  307WAT      O  977   3.530   2.573   2.090
  307WAT     H1  978   3.507   2.501   2.149
  307WAT     H2  979   3.491   2.548   2.006
  308WAT      O  980   3.323   2.624   3.438
  308WAT     H1  981   3.356   2.683   3.506
  308WAT     H2  982   3.231   2.611   3.461
  309WAT      O  983   2.108   2.976   2.168
  309WAT     H1  984   2.144   3.035   2.102
  309WAT     H2  985   2.094   3.030   2.245
  310WAT      O  986   2.078   1.403   3.516
  310WAT     H1  987   2.006   1.423   3.577
  310WAT     H2  988   2.120   1.326   3.554
  311WAT      O  989   3.488   2.365   2.256
  311WAT     H1  990   3.459   2.411   2.335
  311WAT     H2  991   3.568   2.319   2.283
  312WAT      O  992   2.106   2.802   3.615
  312WAT     H1  993   2.117   2.708   3.601
  312WAT     H2  994   2.041   2.829   3.550
  313WAT      O  995   2.710   2.714   2.249
  313WAT     H1  996   2.709   2.787   2.188
  313WAT     H2  997   2.618   2.689   2.259
  314WAT      O  998   2.270   2.236   2.324
  314WAT     H1  999   2.209   2.310   2.325
  314WAT     H2 1000   2.317   2.245   2.241
  315WAT      O 1001   3.227   1.653   3.291
  315WAT     H1 1002   3.264   1.570   3.324
  315WAT     H2 1003   3.141   1.659   3.333
  316WAT      O 1004   3.564   1.548   2.372
  316WAT     H1 1005   3.501   1.559   2.301
  316WAT     H2 1006   3.514   1.570   2.451
  317WAT      O 1007   3.008   2.720   2.116
  317WAT     H1 1008   3.018   2.700   2.023
  317WAT     H2 1009   2.918   2.695   2.136
  318WAT      O 1010   2.761   1.776   2.514
  318WAT     H1 1011   2.690   1.823   2.558
  318WAT     H2 1012   2.789   1.710   2.577
  319WAT      O 1013   2.923   1.918   3.314
  319WAT     H1 1014   2.973   1.965   3.380
  319WAT     H2 1015   2.937   1.826   3.334
  320WAT      O 1016   3.164   1.448   2.658
  320WAT     H1 1017   3.151   1.450   2.563
  320WAT     H2 1018   3.259   1.453   2.670
  321WAT      O 1019   2.873   2.972   2.585
  321WAT     H1 1020   2.898   2.968   2.493
  321WAT     H2 1021   2.778   2.959   2.584
  322WAT      O 1022   2.581   1.607   2.251
  322WAT     H1 1023   2.666   1.650   2.245
  322WAT     H2 1024   2.544   1.638   2.334
  323WAT      O 1025   3.644   1.540   3.398
  323WAT     H1 1026   3.594   1.614   3.432
  323WAT     H2 1027   3.725   1.578   3.366
  324WAT      O 1028   3.473   2.064   2.743
  324WAT     H1 1029   3.379   2.065   2.760
  324WAT     H2 1030   3.505   1.985   2.787
  325WAT      O 1031   3.673   2.781   2.910
  325WAT     H1 1032   3.686   2.863   2.957
  325WAT     H2 1033   3.760   2.760   2.875
  326WAT      O 1034   2.420   2.990   2.877
  326WAT     H1 1035   2.494   2.935   2.904
  326WAT     H2 1036   2.459   3.077   2.863
  327WAT      O 1037   2.109   2.597   2.465
  327WAT     H1 1038   2.016   2.621   2.464
  327WAT     H2 1039   2.156   2.680   2.453
  328WAT      O 1040   2.732   2.908   2.060
  328WAT     H1 1041   2.811   2.937   2.014
  328WAT     H2 1042   2.680   2.865   1.992
  329WAT      O 1043   3.348   2.892   3.652
  329WAT     H1 1044   3.443   2.884   3.647
  329WAT     H2 1045   3.333   2.959   3.719
  330WAT      O 1046   3.637   2.830   2.202
  330WAT     H1 1047   3.608   2.789   2.121
  330WAT     H2 1048   3.617   2.923   2.190
  331WAT      O 1049   2.093   2.158   3.691
  331WAT     H1 1050   2.143   2.100   3.748
  331WAT     H2 1051   2.019   2.186   3.744
  332WAT      O 1052   2.783   2.430   2.046
  332WAT     H1 1053   2.773   2.368   2.119
  332WAT     H2 1054   2.767   2.377   1.968
  333WAT      O 1055   2.798   2.298   3.644
  333WAT     H1 1056   2.722   2.355   3.635
  333WAT     H2 1057   2.817   2.269   3.555
  334WAT      O 1058   3.107   2.336   2.106
  334WAT     H1 1059   3.052   2.381   2.171
  334WAT     H2 1060   3.170   2.285   2.159
  335WAT      O 1061   3.513   2.471   3.700
  335WAT     H1 1062   3.587   2.505   3.649
  335WAT     H2 1063   3.436   2.488   3.644
  336WAT      O 1064   2.674   2.232   2.296
  336WAT     H1 1065   2.716   2.215   2.380
  336WAT     H2 1066   2.687   2.151   2.247
  337WAT      O 1067   2.490   1.830   3.577
  337WAT     H1 1068   2.437   1.781   3.514
  337WAT     H2 1069   2.557   1.873   3.523
  338WAT      O 1070   2.925   2.134   2.021
  338WAT     H1 1071   2.977   2.063   1.984
  338WAT     H2 1072   2.990   2.198   2.051
  339WAT      O 1073   3.380   2.276   3.553
  339WAT     H1 1074   3.422   2.292   3.638
  339WAT     H2 1075   3.287   2.289   3.569
  340WAT      O 1076   3.427   2.010   3.754
  340WAT     H1 1077   3.486   1.935   3.745
  340WAT     H2 1078   3.445   2.063   3.676
  341WAT      O 1079   2.539   1.526   3.585
  341WAT     H1 1080   2.530   1.465   3.512
  341WAT     H2 1081   2.481   1.599   3.562
  342WAT      O 1082   2.816   1.382   3.288
  342WAT     H1 1083   2.771   1.384   3.204
  342WAT     H2 1084   2.752   1.342   3.348
  343WAT      O 1085   2.856   2.272   3.350
  343WAT     H1 1086   2.898   2.356   3.333
  343WAT     H2 1087   2.764   2.285   3.327
  344WAT      O 1088   3.090   2.045   3.489
  344WAT     H1 1089   3.102   1.985   3.563
  344WAT     H2 1090   3.176   2.048   3.447
  345WAT      O 1091   3.324   2.100   3.346
  345WAT     H1 1092   3.271   2.153   3.286
  345WAT     H2 1093   3.358   2.163   3.409
  346WAT      O 1094   2.641   2.902   3.462
  346WAT     H1 1095   2.588   2.975   3.430
  346WAT     H2 1096   2.667   2.854   3.383
  347WAT      O 1097   2.767   1.699   3.614
  347WAT     H1 1098   2.826   1.668   3.683
  347WAT     H2 1099   2.685   1.652   3.630
  348WAT      O 1100   3.249   1.661   3.638
  348WAT     H1 1101   3.180   1.594   3.631
  348WAT     H2 1102   3.321   1.616   3.682
  349WAT      O 1103   3.312   1.320   2.244
  349WAT     H1 1104   3.340   1.236   2.279
  349WAT     H2 1105   3.234   1.343   2.295
  350WAT      O 1106   2.927   3.026   3.488
  350WAT     H1 1107   2.920   3.116   3.518
  350WAT     H2 1108   2.837   2.994   3.485
  351WAT      O 1109   2.765   1.443   2.088
  351WAT     H1 1110   2.731   1.376   2.030
  351WAT     H2 1111   2.785   1.397   2.169
  352WAT      O 1112   2.982   2.942   2.250
  352WAT     H1 1113   3.071   2.976   2.252
  352WAT     H2 1114   2.985   2.870   2.187
  353WAT      O 1115   2.067   2.758   2.818
  353WAT     H1 1116   2.100   2.672   2.795
  353WAT     H2 1117   2.110   2.779   2.901
  354WAT      O 1118   2.527   2.592   2.584
  354WAT     H1 1119   2.497   2.579   2.674
  354WAT     H2 1120   2.516   2.506   2.543
  355WAT      O 1121   2.116   2.845   3.092
  355WAT     H1 1122   2.072   2.863   3.175
  355WAT     H2 1123   2.173   2.921   3.078
  356WAT      O 1124   3.680   2.795   3.521
  356WAT     H1 1125   3.620   2.801   3.446
  356WAT     H2 1126   3.693   2.701   3.534
  357WAT      O 1127   3.804   2.569   2.054
  357WAT     H1 1128   3.721   2.576   2.101
  357WAT     H2 1129   3.822   2.659   2.024
  358WAT      O 1130   3.749   2.244   2.305
  358WAT     H1 1131   3.826   2.301   2.315
  358WAT     H2 1132   3.751   2.187   2.382
  359WAT      O 1133   2.099   2.096   2.728
  359WAT     H1 1134   2.034   2.069   2.663
  359WAT     H2 1135   2.183   2.085   2.683
  360WAT      O 1136   3.548   2.468   3.330
  360WAT     H1 1137   3.467   2.511   3.357
  360WAT     H2 1138   3.589   2.529   3.269
  361WAT      O 1139   3.755   2.273   2.020
  361WAT     H1 1140   3.782   2.364   2.008
  361WAT     H2 1141   3.736   2.267   2.114
  362WAT      O 1142   3.394   1.576   2.150
  362WAT     H1 1143   3.436   1.557   2.066
  362WAT     H2 1144   3.364   1.491   2.181
  363WAT      O 1145   3.744   2.067   2.520
  363WAT     H1 1146   3.707   1.990   2.476
  363WAT     H2 1147   3.671   2.105   2.568
  364WAT      O 1148   2.203   2.135   3.182
  364WAT     H1 1149   2.240   2.126   3.270
  364WAT     H2 1150   2.146   2.059   3.172
  365WAT      O 1151   3.683   1.982   3.483
  365WAT     H1 1152   3.660   1.959   3.393
  365WAT     H2 1153   3.709   2.074   3.478
  366WAT      O 1154   2.158   1.826   3.572
  366WAT     H1 1155   2.069   1.823   3.606
  366WAT     H2 1156   2.212   1.846   3.649
  367WAT      O 1157   3.527   1.504   3.761
  367WAT     H1 1158   3.615   1.505   3.799
  367WAT     H2 1159   3.528   1.431   3.700
  368WAT      O 1160   3.672   1.890   2.850
  368WAT     H1 1161   3.724   1.840   2.787
  368WAT     H2 1162   3.730   1.903   2.924
  369WAT      O 1163   3.690   1.898   3.202
  369WAT     H1 1164   3.595   1.895   3.213
  369WAT     H2 1165   3.708   1.989   3.178
  370WAT      O 1166   2.240   1.328   2.017
  370WAT     H1 1167   2.312   1.382   2.049
  370WAT     H2 1168   2.267   1.301   1.929
  371WAT      O 1169   3.621   1.815   2.444
  371WAT     H1 1170   3.670   1.792   2.522
  371WAT     H2 1171   3.601   1.731   2.402
  372WAT      O 1172   2.209   1.253   3.007
  372WAT     H1 1173   2.273   1.198   2.963
  372WAT     H2 1174   2.251   1.279   3.089
  373WAT      O 1175   3.764   1.679   2.697
  373WAT     H1 1176   3.753   1.663   2.791
  373WAT     H2 1177   3.840   1.626   2.673
  374WAT      O 1178   3.598   1.273   3.343
  374WAT     H1 1179   3.662   1.334   3.379
  374WAT     H2 1180   3.613   1.276   3.248
  375WAT      O 1181   3.554   2.943   2.683
  375WAT     H1 1182   3.614   2.911   2.615
  375WAT     H2 1183   3.580   2.896   2.762
  376WAT      O 1184   2.184   1.269   3.281
  376WAT     H1 1185   2.149   1.315   3.358
  376WAT     H2 1186   2.151   1.180   3.290
  377WAT      O 1187   2.345   2.586   3.698
  377WAT     H1 1188   2.340   2.549   3.786
  377WAT     H2 1189   2.358   2.680   3.712
  378WAT      O 1190   2.715   2.742   3.258
  378WAT     H1 1191   2.691   2.769   3.169
  378WAT     H2 1192   2.809   2.759   3.264
  379WAT      O 1193   2.935   1.388   3.634
  379WAT     H1 1194   2.929   1.447   3.709
  379WAT     H2 1195   3.029   1.377   3.619
  380WAT      O 1196   3.199   1.354   3.598
  380WAT     H1 1197   3.260   1.386   3.531
  380WAT     H2 1198   3.254   1.305   3.659
  381WAT      O 1199   2.251   1.222   3.609
  381WAT     H1 1200   2.306   1.204   3.533
  381WAT     H2 1201   2.258   1.143   3.662
  382WAT      O 1202   2.329   2.881   3.410
  382WAT     H1 1203   2.269   2.868   3.484
  382WAT     H2 1204   2.328   2.797   3.363
  383WAT      O 1205   3.273   1.210   3.230
  383WAT     H1 1206   3.186   1.243   3.210
  383WAT     H2 1207   3.262   1.163   3.313
  384WAT      O 1208   3.364   1.431   3.369
  384WAT     H1 1209   3.331   1.349   3.331
  384WAT     H2 1210   3.459   1.427   3.356
  385WAT      O 1211   3.609   3.008   3.066
  385WAT     H1 1212   3.563   3.083   3.029
  385WAT     H2 1213   3.546   2.936   3.060
  386WAT      O 1214   2.292   2.617   3.305
  386WAT     H1 1215   2.219   2.555   3.298
  386WAT     H2 1216   2.298   2.657   3.218
  387WAT      O 1217   2.652   2.839   2.983
  387WAT     H1 1218   2.704   2.778   2.931
  387WAT     H2 1219   2.717   2.889   3.033
  388WAT      O 1220   2.926   2.928   3.066
  388WAT     H1 1221   2.955   2.902   2.978
  388WAT     H2 1222   2.977   2.873   3.125
  389WAT      O 1223   3.048   1.302   3.124
  389WAT     H1 1224   2.970   1.349   3.152
  389WAT     H2 1225   3.018   1.211   3.113
  390WAT      O 1226   3.503   1.372   2.929
  390WAT     H1 1227   3.547   1.367   2.844
  390WAT     H2 1228   3.476   1.464   2.936
  391WAT      O 1229   3.689   1.335   2.730
  391WAT     H1 1230   3.683   1.241   2.715
  391WAT     H2 1231   3.767   1.346   2.784
  392WAT      O 1232   2.120   2.949   2.626
  392WAT     H1 1233   2.103   2.886   2.696
  392WAT     H2 1234   2.033   2.970   2.591
  393WAT      O 1235   2.836   1.544   2.675
  393WAT     H1 1236   2.755   1.506   2.641
  393WAT     H2 1237   2.887   1.468   2.705
  394WAT      O 1238   3.287   1.210   2.799
  394WAT     H1 1239   3.347   1.267   2.847
  394WAT     H2 1240   3.213   1.267   2.777
  395WAT      O 1241   3.601   1.250   2.327
  395WAT     H1 1242   3.620   1.340   2.353
  395WAT     H2 1243   3.522   1.227   2.376
  396WAT      O 1244   2.281   2.818   2.370
  396WAT     H1 1245   2.228   2.857   2.300
  396WAT     H2 1246   2.273   2.881   2.443
  397WAT      O 1247   2.639   1.359   2.536
  397WAT     H1 1248   2.576   1.289   2.552
  397WAT     H2 1249   2.585   1.435   2.514
  398WAT      O 1250   3.756   2.974   2.503
  398WAT     H1 1251   3.774   2.906   2.438
  398WAT     H2 1252   3.686   3.027   2.463
  399WAT      O 1253   2.651   1.287   3.779
  399WAT     H1 1254   2.623   1.337   3.703
  399WAT     H2 1255   2.690   1.207   3.743
  400WAT      O 1256   2.541   3.013   2.258
  400WAT     H1 1257   2.614   2.985   2.203
  400WAT     H2 1258   2.566   2.989   2.347
  401WAT      O 1259   3.202   2.030   0.873
  401WAT     H1 1260   3.194   1.939   0.846
  401WAT     H2 1261   3.161   2.080   0.803
  402WAT      O 1262   3.015   2.208   1.062
  402WAT     H1 1263   2.938   2.160   1.090
  402WAT     H2 1264   3.080   2.140   1.044
  403WAT      O 1265   2.417   2.239   1.149
  403WAT     H1 1266   2.334   2.213   1.189
  403WAT     H2 1267   2.478   2.246   1.223
  404WAT      O 1268   3.417   2.648   0.939
  404WAT     H1 1269   3.371   2.571   0.972
  404WAT     H2 1270   3.499   2.651   0.990
  405WAT      O 1271   2.415   2.642   1.169
  405WAT     H1 1272   2.445   2.553   1.151
  405WAT     H2 1273   2.489   2.698   1.146
  406WAT      O 1274   2.258   1.735   0.528
  406WAT     H1 1275   2.169   1.769   0.517
  406WAT     H2 1276   2.286   1.715   0.438
  407WAT      O 1277   2.054   1.995   1.116
  407WAT     H1 1278   2.111   1.918   1.116
  407WAT     H2 1279   2.054   2.025   1.025
  408WAT      O 1280   3.040   2.877   0.902
  408WAT     H1 1281   2.978   2.923   0.844
  408WAT     H2 1282   3.126   2.892   0.861
  409WAT      O 1283   2.959   2.475   1.062
  409WAT     H1 1284   2.953   2.381   1.046
  409WAT     H2 1285   3.036   2.484   1.119
  410WAT      O 1286   3.062   1.756   1.085
  410WAT     H1 1287   3.100   1.669   1.074
  410WAT     H2 1288   3.053   1.790   0.996
  411WAT      O 1289   2.476   1.593   0.631
  411WAT     H1 1290   2.486   1.683   0.662
  411WAT     H2 1291   2.384   1.588   0.602
  412WAT      O 1292   3.441   1.506   0.778
  412WAT     H1 1293   3.523   1.457   0.782
  412WAT     H2 1294   3.444   1.565   0.853
  413WAT      O 1295   2.240   1.785   1.156
  413WAT     H1 1296   2.308   1.812   1.217
  413WAT     H2 1297   2.209   1.702   1.189
  414WAT      O 1298   2.660   1.890   1.064
  414WAT     H1 1299   2.710   1.940   1.128
  414WAT     H2 1300   2.713   1.813   1.047
  415WAT      O 1301   2.488   1.354   1.491
  415WAT     H1 1302   2.488   1.406   1.410
  415WAT     H2 1303   2.405   1.306   1.489
  416WAT      O 1304   3.127   2.365   0.641
  416WAT     H1 1305   3.065   2.412   0.584
  416WAT     H2 1306   3.178   2.435   0.683
  417WAT      O 1307   2.613   2.318   1.309
  417WAT     H1 1308   2.580   2.381   1.373
  417WAT     H2 1309   2.631   2.371   1.231
  418WAT      O 1310   3.464   1.700   1.055
  418WAT     H1 1311   3.394   1.728   1.113
  418WAT     H2 1312   3.500   1.781   1.019
  419WAT      O 1313   2.064   2.434   0.378
  419WAT     H1 1314   2.026   2.483   0.305
  419WAT     H2 1315   2.089   2.501   0.441
  420WAT      O 1316   3.626   2.661   1.282
  420WAT     H1 1317   3.558   2.728   1.281
  420WAT     H2 1318   3.680   2.681   1.205
  421WAT      O 1319   3.771   1.644   1.095
  421WAT     H1 1320   3.676   1.647   1.108
  421WAT     H2 1321   3.804   1.725   1.133
  422WAT      O 1322   2.824   1.274   0.924
  422WAT     H1 1323   2.855   1.219   0.852
  422WAT     H2 1324   2.731   1.288   0.906
  423WAT      O 1325   3.380   2.846   1.153
  423WAT     H1 1326   3.381   2.805   1.066
  423WAT     H2 1327   3.324   2.923   1.143
  424WAT      O 1328   3.509   2.518   0.662
  424WAT     H1 1329   3.498   2.424   0.675
  424WAT     H2 1330   3.509   2.554   0.751
  425WAT      O 1331   3.319   2.336   1.286
  425WAT     H1 1332   3.361   2.315   1.203
  425WAT     H2 1333   3.392   2.362   1.343
  426WAT      O 1334   3.063   2.081   0.598
  426WAT     H1 1335   2.971   2.074   0.621
  426WAT     H2 1336   3.078   2.174   0.586
  427WAT      O 1337   3.062   1.708   0.297
  427WAT     H1 1338   2.968   1.724   0.306
  427WAT     H2 1339   3.094   1.780   0.243
  428WAT      O 1340   3.714   2.176   1.295
  428WAT     H1 1341   3.631   2.183   1.248
  428WAT     H2 1342   3.774   2.234   1.248
  429WAT      O 1343   3.466   2.237   0.648
  429WAT     H1 1344   3.404   2.203   0.583
  429WAT     H2 1345   3.464   2.172   0.719
  430WAT      O 1346   3.410   1.855   1.390
  430WAT     H1 1347   3.369   1.937   1.415
  430WAT     H2 1348   3.337   1.796   1.370
  431WAT      O 1349   2.624   2.133   0.876
  431WAT     H1 1350   2.583   2.062   0.826
  431WAT     H2 1351   2.632   2.099   0.965
  432WAT      O 1352   2.671   2.502   1.092
  432WAT     H1 1353   2.641   2.441   1.024
  432WAT     H2 1354   2.766   2.506   1.081
  433WAT      O 1355   3.479   2.859   1.459
  433WAT     H1 1356   3.432   2.940   1.439
  433WAT     H2 1357   3.411   2.794   1.474
  434WAT      O 1358   3.284   2.161   0.349
  434WAT     H1 1359   3.328   2.077   0.334
  434WAT     H2 1360   3.355   2.224   0.357
  435WAT      O 1361   3.095   2.655   0.746
  435WAT     H1 1362   3.139   2.729   0.704
  435WAT     H2 1363   3.089   2.679   0.838
  436WAT      O 1364   3.642   1.286   0.180
  436WAT     H1 1365   3.611   1.295   0.270
  436WAT     H2 1366   3.718   1.344   0.175
  437WAT      O 1367   2.294   2.023   0.626
  437WAT     H1 1368   2.282   2.095   0.565
  437WAT     H2 1369   2.263   1.946   0.578
  438WAT      O 1370   2.058   2.340   1.207
  438WAT     H1 1371   2.065   2.353   1.112
  438WAT     H2 1372   2.119   2.269   1.226
  439WAT      O 1373   2.182   2.510   0.848
  439WAT     H1 1374   2.141   2.524   0.762
  439WAT     H2 1375   2.271   2.481   0.827
  440WAT      O 1376   3.778   2.554   1.681
  440WAT     H1 1377   3.790   2.531   1.590
  440WAT     H2 1378   3.782   2.471   1.729
  441WAT      O 1379   3.164   2.925   1.538
  441WAT     H1 1380   3.215   2.916   1.619
  441WAT     H2 1381   3.080   2.959   1.568
  442WAT      O 1382   3.362   2.953   0.481
  442WAT     H1 1383   3.346   2.924   0.571
  442WAT     H2 1384   3.345   2.876   0.428
  443WAT      O 1385   2.609   2.931   0.659
  443WAT     H1 1386   2.592   2.840   0.638
  443WAT     H2 1387   2.524   2.967   0.683
  444WAT      O 1388   3.332   2.704   0.337
  444WAT     H1 1389   3.262   2.704   0.271
  444WAT     H2 1390   3.406   2.662   0.294
  445WAT      O 1391   3.288   2.867   0.745
  445WAT     H1 1392   3.334   2.789   0.776
  445WAT     H2 1393   3.322   2.938   0.799
  446WAT      O 1394   3.763   1.760   1.778
  446WAT     H1 1395   3.701   1.811   1.725
  446WAT     H2 1396   3.731   1.670   1.772
  447WAT      O 1397   2.540   1.357   0.964
  447WAT     H1 1398   2.496   1.435   0.931
  447WAT     H2 1399   2.596   1.389   1.035
  448WAT      O 1400   2.969   1.644   1.525
  448WAT     H1 1401   2.923   1.665   1.606
  448WAT     H2 1402   2.929   1.562   1.494
  449WAT      O 1403   3.469   1.766   1.638
  449WAT     H1 1404   3.384   1.736   1.670
  449WAT     H2 1405   3.453   1.790   1.546
  450WAT      O 1406   3.179   1.916   1.848
  450WAT     H1 1407   3.211   1.832   1.814
  450WAT     H2 1408   3.258   1.968   1.862
  451WAT      O 1409   2.852   1.319   0.452
  451WAT     H1 1410   2.790   1.319   0.525
  451WAT     H2 1411   2.843   1.232   0.413
  452WAT      O 1412   2.744   1.411   1.150
  452WAT     H1 1413   2.774   1.502   1.142
  452WAT     H2 1414   2.799   1.363   1.089
  453WAT      O 1415   2.520   1.869   0.737
  453WAT     H1 1416   2.497   1.848   0.827
  453WAT     H2 1417   2.442   1.913   0.702
  454WAT      O 1418   3.243   1.870   0.597
  454WAT     H1 1419   3.183   1.942   0.579
  454WAT     H2 1420   3.297   1.864   0.519
  455WAT      O 1421   3.103   1.734   0.800
  455WAT     H1 1422   3.143   1.765   0.719
  455WAT     H2 1423   3.139   1.646   0.811
  456WAT      O 1424   2.934   1.609   1.926
  456WAT     H1 1425   2.865   1.589   1.989
  456WAT     H2 1426   3.008   1.637   1.979
  457WAT      O 1427   2.007   1.393   1.022
  457WAT     H1 1428   1.978   1.450   1.094
  457WAT     H2 1429   2.081   1.345   1.059
  458WAT      O 1430   3.162   1.993   1.209
  458WAT     H1 1431   3.089   2.044   1.244
  458WAT     H2 1432   3.122   1.911   1.179
  459WAT      O 1433   2.806   1.660   1.050
  459WAT     H1 1434   2.806   1.616   0.965
  459WAT     H2 1435   2.895   1.692   1.061
  460WAT      O 1436   2.391   1.648   0.946
  460WAT     H1 1437   2.357   1.696   1.022
  460WAT     H2 1438   2.314   1.603   0.910
  461WAT      O 1439   2.812   1.760   0.349
  461WAT     H1 1440   2.824   1.756   0.444
  461WAT     H2 1441   2.773   1.847   0.334
  462WAT      O 1442   3.208   1.538   1.151
  462WAT     H1 1443   3.210   1.583   1.235
  462WAT     H2 1444   3.183   1.448   1.172
  463WAT      O 1445   2.713   1.991   0.289
  463WAT     H1 1446   2.656   1.947   0.226
  463WAT     H2 1447   2.784   2.027   0.236
  464WAT      O 1448   3.551   1.279   1.735
  464WAT     H1 1449   3.583   1.206   1.787
  464WAT     H2 1450   3.554   1.247   1.644
  465WAT      O 1451   2.836   2.066   1.225
  465WAT     H1 1452   2.872   2.019   1.299
  465WAT     H2 1453   2.817   2.154   1.259
  466WAT      O 1454   2.122   1.541   0.838
  466WAT     H1 1455   2.094   1.504   0.921
  466WAT     H2 1456   2.116   1.467   0.776
  467WAT      O 1457   2.467   2.391   0.516
  467WAT     H1 1458   2.390   2.337   0.500
  467WAT     H2 1459   2.540   2.339   0.482
  468WAT      O 1460   3.543   2.291   1.095
  468WAT     H1 1461   3.615   2.340   1.056
  468WAT     H2 1462   3.523   2.223   1.031
  469WAT      O 1463   3.089   1.430   0.510
  469WAT     H1 1464   3.008   1.380   0.502
  469WAT     H2 1465   3.070   1.514   0.468
  470WAT      O 1466   3.082   2.298   1.684
  470WAT     H1 1467   3.075   2.206   1.659
  470WAT     H2 1468   3.019   2.307   1.756
  471WAT      O 1469   3.361   1.867   0.339
  471WAT     H1 1470   3.450   1.898   0.322
  471WAT     H2 1471   3.358   1.780   0.300
  472WAT      O 1472   2.472   2.358   0.880
  472WAT     H1 1473   2.524   2.277   0.875
  472WAT     H2 1474   2.427   2.352   0.964
  473WAT      O 1475   2.961   2.484   0.407
  473WAT     H1 1476   2.995   2.559   0.358
  473WAT     H2 1477   2.878   2.516   0.443
  474WAT      O 1478   3.075   2.580   1.659
  474WAT     H1 1479   3.076   2.487   1.637
  474WAT     H2 1480   3.004   2.588   1.723
  475WAT      O 1481   3.588   1.998   0.286
  475WAT     H1 1482   3.580   2.041   0.201
  475WAT     H2 1483   3.660   2.044   0.329
  476WAT      O 1484   3.696   2.244   1.594
  476WAT     H1 1485   3.623   2.303   1.574
  476WAT     H2 1486   3.749   2.243   1.514
  477WAT      O 1487   3.691   2.684   0.559
  477WAT     H1 1488   3.627   2.618   0.586
  477WAT     H2 1489   3.652   2.724   0.481
  478WAT      O 1490   3.249   2.417   0.944
  478WAT     H1 1491   3.284   2.357   0.878
  478WAT     H2 1492   3.160   2.384   0.961
  479WAT      O 1493   2.857   2.493   0.684
  479WAT     H1 1494   2.926   2.547   0.722
  479WAT     H2 1495   2.779   2.547   0.688
  480WAT      O 1496   2.071   2.054   0.234
  480WAT     H1 1497   2.158   2.083   0.262
  480WAT     H2 1498   2.022   2.136   0.222
  481WAT      O 1499   2.788   2.193   0.646
  481WAT     H1 1500   2.833   2.274   0.668
  481WAT     H2 1501   2.753   2.161   0.729
  482WAT      O 1502   3.018   2.744   1.369
  482WAT     H1 1503   3.082   2.765   1.436
  482WAT     H2 1504   3.054   2.668   1.323
  483WAT      O 1505   2.378   1.227   0.693
  483WAT     H1 1506   2.365   1.227   0.788
  483WAT     H2 1507   2.295   1.261   0.658
  484WAT      O 1508   3.145   2.544   1.240
  484WAT     H1 1509   3.210   2.474   1.252
  484WAT     H2 1510   3.198   2.622   1.222
  485WAT      O 1511   3.323   2.624   1.561
  485WAT     H1 1512   3.356   2.683   1.628
  485WAT     H2 1513   3.231   2.611   1.584
  486WAT      O 1514   2.108   2.976   0.290
  486WAT     H1 1515   2.144   3.035   0.225
  486WAT     H2 1516   2.094   3.030   0.368
  487WAT      O 1517   2.078   1.403   1.639
  487WAT     H1 1518   2.006   1.423   1.699
  487WAT     H2 1519   2.120   1.326   1.676
  488WAT      O 1520   3.488   2.365   0.379
  488WAT     H1 1521   3.459   2.411   0.458
  488WAT     H2 1522   3.568   2.319   0.406
  489WAT      O 1523   2.906   2.629   1.878
  489WAT     H1 1524   2.874   2.557   1.932
  489WAT     H2 1525   2.838   2.697   1.885
  490WAT      O 1526   2.710   2.714   0.372
  490WAT     H1 1527   2.709   2.787   0.310
  490WAT     H2 1528   2.618   2.689   0.381
  491WAT      O 1529   2.270   2.236   0.446
  491WAT     H1 1530   2.209   2.310   0.447
  491WAT     H2 1531   2.317   2.245   0.364
  492WAT      O 1532   3.227   1.653   1.414
  492WAT     H1 1533   3.264   1.570   1.447
  492WAT     H2 1534   3.141   1.659   1.455
  493WAT      O 1535   3.564   1.548   0.495
  493WAT     H1 1536   3.501   1.559   0.423
  493WAT     H2 1537   3.514   1.570   0.574
  494WAT      O 1538   3.008   2.720   0.238
  494WAT     H1 1539   3.018   2.700   0.145
  494WAT     H2 1540   2.918   2.695   0.259
  495WAT      O 1541   2.761   1.776   0.636
  495WAT     H1 1542   2.690   1.823   0.681
  495WAT     H2 1543   2.789   1.710   0.700
  496WAT      O 1544   2.923   1.918   1.436
  496WAT     H1 1545   2.973   1.965   1.503
  496WAT     H2 1546   2.937   1.826   1.457
  497WAT      O 1547   3.164   1.448   0.780
  497WAT     H1 1548   3.151   1.450   0.685
  497WAT     H2 1549   3.259   1.453   0.792
  498WAT      O 1550   2.873   2.972   0.708
  498WAT     H1 1551   2.898   2.968   0.615
  498WAT     H2 1552   2.778   2.959   0.707
  499WAT      O 1553   2.581   1.607   0.374
  499WAT     H1 1554   2.666   1.650   0.367
  499WAT     H2 1555   2.544   1.638   0.457
  500WAT      O 1556   3.644   1.540   1.521
  500WAT     H1 1557   3.594   1.614   1.555
  500WAT     H2 1558   3.725   1.578   1.489
  501WAT      O 1559   3.473   2.064   0.865
  501WAT     H1 1560   3.379   2.065   0.883
  501WAT     H2 1561   3.505   1.985   0.910
  502WAT      O 1562   2.471   2.232   0.221
  502WAT     H1 1563   2.548   2.221   0.278
  502WAT     H2 1564   2.479   2.162   0.156
  503WAT      O 1565   2.340   1.975   0.290
  503WAT     H1 1566   2.348   1.881   0.301
  503WAT     H2 1567   2.430   2.008   0.300
  504WAT      O 1568   3.673   2.781   1.033
  504WAT     H1 1569   3.686   2.863   1.080
  504WAT     H2 1570   3.760   2.760   0.998
  505WAT      O 1571   2.420   2.990   1.000
  505WAT     H1 1572   2.494   2.935   1.027
  505WAT     H2 1573   2.459   3.077   0.986
  506WAT      O 1574   2.109   2.597   0.587
  506WAT     H1 1575   2.016   2.621   0.586
  506WAT     H2 1576   2.156   2.680   0.575
  507WAT      O 1577   3.205   2.520   1.914
  507WAT     H1 1578   3.144   2.522   1.839
  507WAT     H2 1579   3.174   2.446   1.967
  508WAT      O 1580   3.348   2.892   1.775
  508WAT     H1 1581   3.443   2.884   1.770
  508WAT     H2 1582   3.333   2.959   1.842
  509WAT      O 1583   3.637   2.830   0.325
  509WAT     H1 1584   3.608   2.789   0.243
  509WAT     H2 1585   3.617   2.923   0.313
  510WAT      O 1586   2.798   2.298   1.767
  510WAT     H1 1587   2.722   2.355   1.758
  510WAT     H2 1588   2.817   2.269   1.677
  511WAT      O 1589   3.107   2.336   0.229
  511WAT     H1 1590   3.052   2.381   0.293
  511WAT     H2 1591   3.170   2.285   0.281
  512WAT      O 1592   3.513   2.471   1.822
  512WAT     H1 1593   3.587   2.505   1.772
  512WAT     H2 1594   3.436   2.488   1.767
  513WAT      O 1595   2.674   2.232   0.419
  513WAT     H1 1596   2.716   2.215   0.503
  513WAT     H2 1597   2.687   2.151   0.369
  514WAT      O 1598   3.380   2.276   1.676
  514WAT     H1 1599   3.422   2.292   1.761
  514WAT     H2 1600   3.287   2.289   1.692
  515WAT      O 1601   3.427   2.010   1.876
  515WAT     H1 1602   3.486   1.935   1.867
  515WAT     H2 1603   3.445   2.063   1.799
  516WAT      O 1604   2.816   1.382   1.411
  516WAT     H1 1605   2.771   1.384   1.326
  516WAT     H2 1606   2.752   1.342   1.470
  517WAT      O 1607   2.856   2.272   1.473
  517WAT     H1 1608   2.898   2.356   1.456
  517WAT     H2 1609   2.764   2.285   1.450
  518WAT      O 1610   3.090   2.045   1.611
  518WAT     H1 1611   3.102   1.985   1.685
  518WAT     H2 1612   3.176   2.048   1.569
  519WAT      O 1613   3.324   2.100   1.469
  519WAT     H1 1614   3.271   2.153   1.408
  519WAT     H2 1615   3.358   2.163   1.532
  520WAT      O 1616   2.641   2.902   1.584
  520WAT     H1 1617   2.588   2.975   1.552
  520WAT     H2 1618   2.667   2.854   1.505
  521WAT      O 1619   3.249   1.661   1.760
  521WAT     H1 1620   3.180   1.594   1.754
  521WAT     H2 1621   3.321   1.616   1.805
  522WAT      O 1622   3.312   1.320   0.366
  522WAT     H1 1623   3.340   1.236   0.402
  522WAT     H2 1624   3.234   1.343   0.418
  523WAT      O 1625   2.927   3.026   1.610
  523WAT     H1 1626   2.920   3.116   1.641
  523WAT     H2 1627   2.837   2.994   1.607
  524WAT      O 1628   2.765   1.443   0.211
  524WAT     H1 1629   2.731   1.376   0.153
  524WAT     H2 1630   2.785   1.397   0.292
  525WAT      O 1631   2.982   2.942   0.372
  525WAT     H1 1632   3.071   2.976   0.375
  525WAT     H2 1633   2.985   2.870   0.310
  526WAT      O 1634   2.346   2.480   0.195
  526WAT     H1 1635   2.390   2.534   0.261
  526WAT     H2 1636   2.394   2.397   0.196
  527WAT      O 1637   2.067   2.758   0.941
  527WAT     H1 1638   2.100   2.672   0.917
  527WAT     H2 1639   2.110   2.779   1.024
  528WAT      O 1640   2.527   2.592   0.707
  528WAT     H1 1641   2.497   2.579   0.797
  528WAT     H2 1642   2.516   2.506   0.666
  529WAT      O 1643   2.116   2.845   1.214
  529WAT     H1 1644   2.072   2.863   1.298
  529WAT     H2 1645   2.173   2.921   1.200
  530WAT      O 1646   3.680   2.795   1.643
  530WAT     H1 1647   3.620   2.801   1.569
  530WAT     H2 1648   3.693   2.701   1.656
  531WAT      O 1649   3.804   2.569   0.177
  531WAT     H1 1650   3.721   2.576   0.224
  531WAT     H2 1651   3.822   2.659   0.146
  532WAT      O 1652   3.749   2.244   0.427
  532WAT     H1 1653   3.826   2.301   0.438
  532WAT     H2 1654   3.751   2.187   0.504
  533WAT      O 1655   2.099   2.096   0.850
  533WAT     H1 1656   2.034   2.069   0.786
  533WAT     H2 1657   2.183   2.085   0.805
  534WAT      O 1658   3.548   2.468   1.453
  534WAT     H1 1659   3.467   2.511   1.479
  534WAT     H2 1660   3.589   2.529   1.392
  535WAT      O 1661   3.394   1.576   0.272
  535WAT     H1 1662   3.436   1.557   0.188
  535WAT     H2 1663   3.364   1.491   0.303
  536WAT      O 1664   3.744   2.067   0.642
  536WAT     H1 1665   3.707   1.990   0.599
  536WAT     H2 1666   3.671   2.105   0.691
  537WAT      O 1667   3.683   1.982   1.606
  537WAT     H1 1668   3.660   1.959   1.516
  537WAT     H2 1669   3.709   2.074   1.601
  538WAT      O 1670   3.527   1.504   1.883
  538WAT     H1 1671   3.615   1.505   1.922
  538WAT     H2 1672   3.528   1.431   1.822
  539WAT      O 1673   2.021   1.817   0.445
  539WAT     H1 1674   1.930   1.844   0.427
  539WAT     H2 1675   2.069   1.844   0.367
  540WAT      O 1676   3.672   1.890   0.972
  540WAT     H1 1677   3.724   1.840   0.909
  540WAT     H2 1678   3.730   1.903   1.047
  541WAT      O 1679   3.690   1.898   1.324
  541WAT     H1 1680   3.595   1.895   1.336
  541WAT     H2 1681   3.708   1.989   1.301
  542WAT      O 1682   2.275   1.723   0.235
  542WAT     H1 1683   2.346   1.681   0.187
  542WAT     H2 1684   2.203   1.730   0.172
  543WAT      O 1685   3.621   1.815   0.566
  543WAT     H1 1686   3.670   1.792   0.645
  543WAT     H2 1687   3.601   1.731   0.525
  544WAT      O 1688   2.209   1.253   1.130
  544WAT     H1 1689   2.273   1.198   1.086
  544WAT     H2 1690   2.251   1.279   1.212
  545WAT      O 1691   3.764   1.679   0.820
  545WAT     H1 1692   3.753   1.663   0.913
  545WAT     H2 1693   3.840   1.626   0.795
  546WAT      O 1694   3.598   1.273   1.465
  546WAT     H1 1695   3.662   1.334   1.502
  546WAT     H2 1696   3.613   1.276   1.371
  547WAT      O 1697   3.554   2.943   0.806
  547WAT     H1 1698   3.614   2.911   0.738
  547WAT     H2 1699   3.580   2.896   0.885
  548WAT      O 1700   2.184   1.269   1.404
  548WAT     H1 1701   2.149   1.315   1.481
  548WAT     H2 1702   2.151   1.180   1.412
  549WAT      O 1703   2.715   2.742   1.381
  549WAT     H1 1704   2.691   2.769   1.292
  549WAT     H2 1705   2.809   2.759   1.386
  550WAT      O 1706   2.935   1.388   1.756
  550WAT     H1 1707   2.929   1.447   1.831
  550WAT     H2 1708   3.029   1.377   1.742
  551WAT      O 1709   3.199   1.354   1.720
  551WAT     H1 1710   3.260   1.386   1.654
  551WAT     H2 1711   3.254   1.305   1.782
  552WAT      O 1712   2.251   1.222   1.731
  552WAT     H1 1713   2.306   1.204   1.655
  552WAT     H2 1714   2.258   1.143   1.785
  553WAT      O 1715   3.273   1.210   1.353
  553WAT     H1 1716   3.186   1.243   1.332
  553WAT     H2 1717   3.262   1.163   1.435
  554WAT      O 1718   3.364   1.431   1.491
  554WAT     H1 1719   3.331   1.349   1.453
  554WAT     H2 1720   3.459   1.427   1.479
  555WAT      O 1721   3.609   3.008   1.189
  555WAT     H1 1722   3.563   3.083   1.151
  555WAT     H2 1723   3.546   2.936   1.183
  556WAT      O 1724   2.652   2.839   1.106
  556WAT     H1 1725   2.704   2.778   1.054
  556WAT     H2 1726   2.717   2.889   1.155
  557WAT      O 1727   2.926   2.928   1.189
  557WAT     H1 1728   2.955   2.902   1.101
  557WAT     H2 1729   2.977   2.873   1.248
  558WAT      O 1730   3.048   1.302   1.247
  558WAT     H1 1731   2.970   1.349   1.275
  558WAT     H2 1732   3.018   1.211   1.236
  559WAT      O 1733   3.503   1.372   1.051
  559WAT     H1 1734   3.547   1.367   0.966
  559WAT     H2 1735   3.476   1.464   1.058
  560WAT      O 1736   3.689   1.335   0.852
  560WAT     H1 1737   3.683   1.241   0.838
  560WAT     H2 1738   3.767   1.346   0.907
  561WAT      O 1739   2.120   2.949   0.749
  561WAT     H1 1740   2.103   2.886   0.818
  561WAT     H2 1741   2.033   2.970   0.713
  562WAT      O 1742   2.182   1.332   0.499
  562WAT     H1 1743   2.258   1.344   0.441
  562WAT     H2 1744   2.136   1.416   0.494
  563WAT      O 1745   2.836   1.544   0.798
  563WAT     H1 1746   2.755   1.506   0.764
  563WAT     H2 1747   2.887   1.468   0.828
  564WAT      O 1748   3.287   1.210   0.922
  564WAT     H1 1749   3.347   1.267   0.969
  564WAT     H2 1750   3.213   1.267   0.899
  565WAT      O 1751   3.601   1.250   0.449
  565WAT     H1 1752   3.620   1.340   0.476
  565WAT     H2 1753   3.522   1.227   0.498
  566WAT      O 1754   2.281   2.818   0.493
  566WAT     H1 1755   2.228   2.857   0.423
  566WAT     H2 1756   2.273   2.881   0.565
  567WAT      O 1757   2.420   1.385   0.353
  567WAT     H1 1758   2.472   1.306   0.340
  567WAT     H2 1759   2.483   1.453   0.376
  568WAT      O 1760   2.639   1.359   0.658
  568WAT     H1 1761   2.576   1.289   0.675
  568WAT     H2 1762   2.585   1.435   0.637
  569WAT      O 1763   2.933   3.020   1.925
  569WAT     H1 1764   3.025   2.997   1.930
  569WAT     H2 1765   2.931   3.103   1.877
  570WAT      O 1766   3.756   2.974   0.625
  570WAT     H1 1767   3.774   2.906   0.561
  570WAT     H2 1768   3.686   3.027   0.586
  571WAT      O 1769   2.651   1.287   1.902
  571WAT     H1 1770   2.623   1.337   1.825
  571WAT     H2 1771   2.690   1.207   1.865
  572WAT      O 1772   2.541   3.013   0.381
  572WAT     H1 1773   2.614   2.985   0.326
  572WAT     H2 1774   2.566   2.989   0.469
  573WAT      O 1775   2.457   2.625   0.381
  573WAT     H1 1776   2.394   2.672   0.436
  573WAT     H2 1777   2.468   2.540   0.424
  574WAT      O 1778   3.312   1.228   1.960
  574WAT     H1 1779   3.300   1.260   2.049
  574WAT     H2 1780   3.393   1.268   1.930
  575WAT      O 1781   3.590   2.943   1.908
  575WAT     H1 1782   3.669   2.893   1.887
  575WAT     H2 1783   3.619   3.011   1.969
  576WAT      O 1784   3.015   0.330   2.939
  576WAT     H1 1785   2.938   0.282   2.968
  576WAT     H2 1786   3.080   0.262   2.922
  577WAT      O 1787   2.417   0.362   3.027
  577WAT     H1 1788   2.334   0.336   3.067
  577WAT     H2 1789   2.478   0.369   3.100
  578WAT      O 1790   3.417   0.771   2.817
  578WAT     H1 1791   3.371   0.694   2.850
  578WAT     H2 1792   3.499   0.774   2.867
  579WAT      O 1793   2.415   0.765   3.046
  579WAT     H1 1794   2.445   0.676   3.028
  579WAT     H2 1795   2.489   0.821   3.024
  580WAT      O 1796   3.040   1.000   2.779
  580WAT     H1 1797   2.978   1.045   2.722
  580WAT     H2 1798   3.126   1.015   2.739
  581WAT      O 1799   2.959   0.598   2.940
  581WAT     H1 1800   2.953   0.504   2.924
  581WAT     H2 1801   3.036   0.607   2.997
  582WAT      O 1802   3.127   0.488   2.518
  582WAT     H1 1803   3.065   0.534   2.462
  582WAT     H2 1804   3.178   0.557   2.560
  583WAT      O 1805   2.613   0.441   3.186
  583WAT     H1 1806   2.580   0.503   3.250
  583WAT     H2 1807   2.631   0.493   3.108
  584WAT      O 1808   2.534   0.637   3.368
  584WAT     H1 1809   2.596   0.705   3.339
  584WAT     H2 1810   2.448   0.678   3.358
  585WAT      O 1811   2.064   0.556   2.256
  585WAT     H1 1812   2.026   0.605   2.183
  585WAT     H2 1813   2.089   0.624   2.319
  586WAT      O 1814   3.626   0.784   3.159
  586WAT     H1 1815   3.558   0.851   3.158
  586WAT     H2 1816   3.680   0.804   3.083
  587WAT      O 1817   3.380   0.968   3.031
  587WAT     H1 1818   3.381   0.928   2.944
  587WAT     H2 1819   3.324   1.046   3.020
  588WAT      O 1820   3.509   0.640   2.540
  588WAT     H1 1821   3.498   0.546   2.552
  588WAT     H2 1822   3.509   0.677   2.628
  589WAT      O 1823   3.319   0.459   3.163
  589WAT     H1 1824   3.361   0.437   3.080
  589WAT     H2 1825   3.392   0.484   3.221
  590WAT      O 1826   3.063   0.203   2.475
  590WAT     H1 1827   2.971   0.197   2.498
  590WAT     H2 1828   3.078   0.297   2.464
  591WAT      O 1829   3.714   0.298   3.173
  591WAT     H1 1830   3.631   0.305   3.125
  591WAT     H2 1831   3.774   0.357   3.126
  592WAT      O 1832   3.466   0.359   2.525
  592WAT     H1 1833   3.404   0.326   2.461
  592WAT     H2 1834   3.464   0.295   2.596
  593WAT      O 1835   2.624   0.256   2.753
  593WAT     H1 1836   2.583   0.185   2.704
  593WAT     H2 1837   2.632   0.221   2.842
  594WAT      O 1838   2.671   0.624   2.970
  594WAT     H1 1839   2.641   0.564   2.902
  594WAT     H2 1840   2.766   0.628   2.959
  595WAT      O 1841   3.479   0.982   3.336
  595WAT     H1 1842   3.432   1.062   3.317
  595WAT     H2 1843   3.411   0.917   3.351
  596WAT      O 1844   2.580   0.598   3.635
  596WAT     H1 1845   2.490   0.621   3.660
  596WAT     H2 1846   2.582   0.611   3.540
  597WAT      O 1847   3.284   0.283   2.226
  597WAT     H1 1848   3.328   0.199   2.212
  597WAT     H2 1849   3.355   0.346   2.235
  598WAT      O 1850   2.463   0.285   3.492
  598WAT     H1 1851   2.449   0.373   3.529
  598WAT     H2 1852   2.374   0.251   3.478
  599WAT      O 1853   3.095   0.777   2.623
  599WAT     H1 1854   3.139   0.851   2.582
  599WAT     H2 1855   3.089   0.801   2.715
  600WAT      O 1856   2.642   0.880   3.713
  600WAT     H1 1857   2.639   0.920   3.627
  600WAT     H2 1858   2.626   0.787   3.697
  601WAT      O 1859   2.058   0.462   3.084
  601WAT     H1 1860   2.065   0.476   2.990
  601WAT     H2 1861   2.119   0.392   3.103
  602WAT      O 1862   2.182   0.632   2.725
  602WAT     H1 1863   2.141   0.647   2.640
  602WAT     H2 1864   2.271   0.604   2.705
  603WAT      O 1865   3.778   0.677   3.559
  603WAT     H1 1866   3.790   0.653   3.467
  603WAT     H2 1867   3.782   0.594   3.606
  604WAT      O 1868   3.164   1.047   3.416
  604WAT     H1 1869   3.215   1.038   3.496
  604WAT     H2 1870   3.080   1.082   3.445
  605WAT      O 1871   3.362   1.076   2.359
  605WAT     H1 1872   3.346   1.047   2.448
  605WAT     H2 1873   3.345   0.998   2.305
  606WAT      O 1874   2.609   1.054   2.536
  606WAT     H1 1875   2.592   0.962   2.515
  606WAT     H2 1876   2.524   1.090   2.560
  607WAT      O 1877   3.332   0.827   2.215
  607WAT     H1 1878   3.262   0.827   2.149
  607WAT     H2 1879   3.406   0.784   2.172
  608WAT      O 1880   3.288   0.989   2.622
  608WAT     H1 1881   3.334   0.911   2.654
  608WAT     H2 1882   3.322   1.060   2.677
  609WAT      O 1883   2.063   0.567   3.338
  609WAT     H1 1884   2.080   0.520   3.256
  609WAT     H2 1885   2.110   0.516   3.405
  610WAT      O 1886   2.221   0.504   3.554
  610WAT     H1 1887   2.182   0.440   3.614
  610WAT     H2 1888   2.252   0.574   3.611
  611WAT      O 1889   2.467   0.513   2.394
  611WAT     H1 1890   2.390   0.459   2.378
  611WAT     H2 1891   2.540   0.462   2.360
  612WAT      O 1892   3.543   0.413   2.973
  612WAT     H1 1893   3.615   0.463   2.934
  612WAT     H2 1894   3.523   0.345   2.908
  613WAT      O 1895   3.082   0.420   3.562
  613WAT     H1 1896   3.075   0.328   3.536
  613WAT     H2 1897   3.019   0.430   3.633
  614WAT      O 1898   2.472   0.480   2.757
  614WAT     H1 1899   2.524   0.400   2.752
  614WAT     H2 1900   2.427   0.474   2.842
  615WAT      O 1901   2.961   0.607   2.285
  615WAT     H1 1902   2.995   0.681   2.235
  615WAT     H2 1903   2.878   0.638   2.321
  616WAT      O 1904   2.540   0.223   3.737
  616WAT     H1 1905   2.510   0.237   3.647
  616WAT     H2 1906   2.618   0.167   3.728
  617WAT      O 1907   3.075   0.702   3.537
  617WAT     H1 1908   3.076   0.609   3.515
  617WAT     H2 1909   3.004   0.711   3.600
  618WAT      O 1910   3.696   0.367   3.471
  618WAT     H1 1911   3.623   0.426   3.452
  618WAT     H2 1912   3.749   0.366   3.391
  619WAT      O 1913   3.691   0.806   2.436
  619WAT     H1 1914   3.627   0.741   2.464
  619WAT     H2 1915   3.652   0.847   2.359
  620WAT      O 1916   3.249   0.539   2.821
  620WAT     H1 1917   3.284   0.479   2.755
  620WAT     H2 1918   3.160   0.507   2.838
  621WAT      O 1919   2.857   0.615   2.562
  621WAT     H1 1920   2.926   0.670   2.600
  621WAT     H2 1921   2.779   0.670   2.565
  622WAT      O 1922   2.071   0.177   2.111
  622WAT     H1 1923   2.158   0.205   2.139
  622WAT     H2 1924   2.022   0.258   2.099
  623WAT      O 1925   2.788   0.316   2.523
  623WAT     H1 1926   2.833   0.397   2.546
  623WAT     H2 1927   2.753   0.284   2.606
  624WAT      O 1928   3.018   0.867   3.246
  624WAT     H1 1929   3.082   0.887   3.314
  624WAT     H2 1930   3.054   0.791   3.201
  625WAT      O 1931   3.145   0.667   3.118
  625WAT     H1 1932   3.210   0.597   3.129
  625WAT     H2 1933   3.198   0.745   3.100
  626WAT      O 1934   3.530   0.695   2.090
  626WAT     H1 1935   3.507   0.624   2.149
  626WAT     H2 1936   3.491   0.671   2.006
  627WAT      O 1937   3.323   0.747   3.438
  627WAT     H1 1938   3.356   0.806   3.506
  627WAT     H2 1939   3.231   0.734   3.461
  628WAT      O 1940   2.108   1.098   2.168
  628WAT     H1 1941   2.144   1.158   2.102
  628WAT     H2 1942   2.094   1.153   2.245
  629WAT      O 1943   3.488   0.487   2.256
  629WAT     H1 1944   3.459   0.533   2.335
  629WAT     H2 1945   3.568   0.441   2.283
  630WAT      O 1946   2.106   0.925   3.615
  630WAT     H1 1947   2.117   0.831   3.601
  630WAT     H2 1948   2.041   0.951   3.550
  631WAT      O 1949   2.710   0.836   2.249
  631WAT     H1 1950   2.709   0.910   2.188
  631WAT     H2 1951   2.618   0.812   2.259
  632WAT      O 1952   2.270   0.359   2.324
  632WAT     H1 1953   2.209   0.433   2.325
  632WAT     H2 1954   2.317   0.368   2.241
  633WAT      O 1955   3.008   0.843   2.116
  633WAT     H1 1956   3.018   0.822   2.023
  633WAT     H2 1957   2.918   0.817   2.136
  634WAT      O 1958   2.873   1.095   2.585
  634WAT     H1 1959   2.898   1.091   2.493
  634WAT     H2 1960   2.778   1.082   2.584
  635WAT      O 1961   2.471   0.355   2.099
  635WAT     H1 1962   2.548   0.343   2.155
  635WAT     H2 1963   2.479   0.285   2.033
  636WAT      O 1964   3.673   0.904   2.910
  636WAT     H1 1965   3.686   0.986   2.957
  636WAT     H2 1966   3.760   0.882   2.875
  637WAT      O 1967   2.420   1.113   2.877
  637WAT     H1 1968   2.494   1.058   2.904
  637WAT     H2 1969   2.459   1.199   2.863
  638WAT      O 1970   2.109   0.720   2.465
  638WAT     H1 1971   2.016   0.744   2.464
  638WAT     H2 1972   2.156   0.802   2.453
  639WAT      O 1973   2.732   1.030   2.060
  639WAT     H1 1974   2.811   1.059   2.014
  639WAT     H2 1975   2.680   0.987   1.992
  640WAT      O 1976   3.348   1.015   3.652
  640WAT     H1 1977   3.443   1.007   3.647
  640WAT     H2 1978   3.333   1.081   3.719
  641WAT      O 1979   3.637   0.953   2.202
  641WAT     H1 1980   3.608   0.912   2.121
  641WAT     H2 1981   3.617   1.046   2.190
  642WAT      O 1982   2.093   0.280   3.691
  642WAT     H1 1983   2.143   0.222   3.748
  642WAT     H2 1984   2.019   0.308   3.744
  643WAT      O 1985   2.783   0.552   2.046
  643WAT     H1 1986   2.773   0.491   2.119
  643WAT     H2 1987   2.767   0.500   1.968
  644WAT      O 1988   2.798   0.421   3.644
  644WAT     H1 1989   2.722   0.478   3.635
  644WAT     H2 1990   2.817   0.392   3.555
  645WAT      O 1991   3.107   0.458   2.106
  645WAT     H1 1992   3.052   0.503   2.171
  645WAT     H2 1993   3.170   0.408   2.159
  646WAT      O 1994   3.513   0.594   3.700
  646WAT     H1 1995   3.587   0.628   3.649
  646WAT     H2 1996   3.436   0.611   3.644
  647WAT      O 1997   2.674   0.354   2.296
  647WAT     H1 1998   2.716   0.338   2.380
  647WAT     H2 1999   2.687   0.273   2.247
  648WAT      O 2000   2.925   0.257   2.021
  648WAT     H1 2001   2.977   0.185   1.984
  648WAT     H2 2002   2.990   0.321   2.051
  649WAT      O 2003   3.380   0.399   3.553
  649WAT     H1 2004   3.422   0.414   3.638
  649WAT     H2 2005   3.287   0.412   3.569
  650WAT      O 2006   2.856   0.394   3.350
  650WAT     H1 2007   2.898   0.479   3.333
  650WAT     H2 2008   2.764   0.408   3.327
  651WAT      O 2009   3.324   0.223   3.346
  651WAT     H1 2010   3.271   0.275   3.286
  651WAT     H2 2011   3.358   0.286   3.409
  652WAT      O 2012   2.641   1.025   3.462
  652WAT     H1 2013   2.588   1.097   3.430
  652WAT     H2 2014   2.667   0.977   3.383
  653WAT      O 2015   2.927   1.148   3.488
  653WAT     H1 2016   2.920   1.239   3.518
  653WAT     H2 2017   2.837   1.116   3.485
  654WAT      O 2018   2.982   1.065   2.250
  654WAT     H1 2019   3.071   1.099   2.252
  654WAT     H2 2020   2.985   0.993   2.187
  655WAT      O 2021   2.346   0.602   2.073
  655WAT     H1 2022   2.390   0.656   2.138
  655WAT     H2 2023   2.394   0.520   2.074
  656WAT      O 2024   2.067   0.881   2.818
  656WAT     H1 2025   2.100   0.794   2.795
  656WAT     H2 2026   2.110   0.902   2.901
  657WAT      O 2027   2.527   0.714   2.584
  657WAT     H1 2028   2.497   0.702   2.674
  657WAT     H2 2029   2.516   0.628   2.543
  658WAT      O 2030   2.116   0.968   3.092
  658WAT     H1 2031   2.072   0.986   3.175
  658WAT     H2 2032   2.173   1.043   3.078
  659WAT      O 2033   3.680   0.918   3.521
  659WAT     H1 2034   3.620   0.924   3.446
  659WAT     H2 2035   3.693   0.824   3.534
  660WAT      O 2036   3.804   0.692   2.054
  660WAT     H1 2037   3.721   0.699   2.101
  660WAT     H2 2038   3.822   0.781   2.024
  661WAT      O 2039   3.749   0.367   2.305
  661WAT     H1 2040   3.826   0.423   2.315
  661WAT     H2 2041   3.751   0.310   2.382
  662WAT      O 2042   2.099   0.219   2.728
  662WAT     H1 2043   2.034   0.192   2.663
  662WAT     H2 2044   2.183   0.208   2.683
  663WAT      O 2045   3.548   0.590   3.330
  663WAT     H1 2046   3.467   0.633   3.357
  663WAT     H2 2047   3.589   0.652   3.269
  664WAT      O 2048   3.755   0.396   2.020
  664WAT     H1 2049   3.782   0.487   2.008
  664WAT     H2 2050   3.736   0.389   2.114
  665WAT      O 2051   2.203   0.257   3.182
  665WAT     H1 2052   2.240   0.249   3.270
  665WAT     H2 2053   2.146   0.181   3.172
  666WAT      O 2054   3.554   1.066   2.683
  666WAT     H1 2055   3.614   1.033   2.615
  666WAT     H2 2056   3.580   1.018   2.762
  667WAT      O 2057   2.345   0.709   3.698
  667WAT     H1 2058   2.340   0.672   3.786
  667WAT     H2 2059   2.358   0.803   3.712
  668WAT      O 2060   2.715   0.864   3.258
  668WAT     H1 2061   2.691   0.891   3.169
  668WAT     H2 2062   2.809   0.881   3.264
  669WAT      O 2063   2.329   1.003   3.410
  669WAT     H1 2064   2.269   0.990   3.484
  669WAT     H2 2065   2.328   0.920   3.363
  670WAT      O 2066   3.609   1.131   3.066
  670WAT     H1 2067   3.563   1.206   3.029
  670WAT     H2 2068   3.546   1.059   3.060
  671WAT      O 2069   2.292   0.740   3.305
  671WAT     H1 2070   2.219   0.678   3.298
  671WAT     H2 2071   2.298   0.779   3.218
  672WAT      O 2072   2.652   0.961   2.983
  672WAT     H1 2073   2.704   0.900   2.931
  672WAT     H2 2074   2.717   1.012   3.033
  673WAT      O 2075   2.926   1.050   3.066
  673WAT     H1 2076   2.955   1.025   2.978
  673WAT     H2 2077   2.977   0.995   3.125
  674WAT      O 2078   2.120   1.072   2.626
  674WAT     H1 2079   2.103   1.008   2.696
  674WAT     H2 2080   2.033   1.092   2.591
  675WAT      O 2081   2.281   0.941   2.370
  675WAT     H1 2082   2.228   0.979   2.300
  675WAT     H2 2083   2.273   1.004   2.443
  676WAT      O 2084   3.756   1.097   2.503
  676WAT     H1 2085   3.774   1.028   2.438
  676WAT     H2 2086   3.686   1.149   2.463
  677WAT      O 2087   2.541   1.136   2.258
  677WAT     H1 2088   2.614   1.107   2.203
  677WAT     H2 2089   2.566   1.112   2.347
  678WAT      O 2090   2.457   0.747   2.258
  678WAT     H1 2091   2.394   0.794   2.313
  678WAT     H2 2092   2.468   0.663   2.302
  679WAT      O 2093   3.015   0.330   1.062
  679WAT     H1 2094   2.938   0.282   1.090
  679WAT     H2 2095   3.080   0.262   1.044
  680WAT      O 2096   2.417   0.362   1.149
  680WAT     H1 2097   2.334   0.336   1.189
  680WAT     H2 2098   2.478   0.369   1.223
  681WAT      O 2099   3.417   0.771   0.939
  681WAT     H1 2100   3.371   0.694   0.972
  681WAT     H2 2101   3.499   0.774   0.990
  682WAT      O 2102   2.415   0.765   1.169
  682WAT     H1 2103   2.445   0.676   1.151
  682WAT     H2 2104   2.489   0.821   1.146
  683WAT      O 2105   3.040   1.000   0.902
  683WAT     H1 2106   2.978   1.045   0.844
  683WAT     H2 2107   3.126   1.015   0.861
  684WAT      O 2108   2.959   0.598   1.062
  684WAT     H1 2109   2.953   0.504   1.046
  684WAT     H2 2110   3.036   0.607   1.119
  685WAT      O 2111   3.127   0.488   0.641
  685WAT     H1 2112   3.065   0.534   0.584
  685WAT     H2 2113   3.178   0.557   0.683
  686WAT      O 2114   2.613   0.441   1.309
  686WAT     H1 2115   2.580   0.503   1.373
  686WAT     H2 2116   2.631   0.493   1.231
  687WAT      O 2117   2.534   0.637   1.490
  687WAT     H1 2118   2.596   0.705   1.462
  687WAT     H2 2119   2.448   0.678   1.481
  688WAT      O 2120   2.064   0.556   0.378
  688WAT     H1 2121   2.026   0.605   0.305
  688WAT     H2 2122   2.089   0.624   0.441
  689WAT      O 2123   3.626   0.784   1.282
  689WAT     H1 2124   3.558   0.851   1.281
  689WAT     H2 2125   3.680   0.804   1.205
  690WAT      O 2126   3.380   0.968   1.153
  690WAT     H1 2127   3.381   0.928   1.066
  690WAT     H2 2128   3.324   1.046   1.143
  691WAT      O 2129   3.509   0.640   0.662
  691WAT     H1 2130   3.498   0.546   0.675
  691WAT     H2 2131   3.509   0.677   0.751
  692WAT      O 2132   3.319   0.459   1.286
  692WAT     H1 2133   3.361   0.437   1.203
  692WAT     H2 2134   3.392   0.484   1.343
  693WAT      O 2135   3.063   0.203   0.598
  693WAT     H1 2136   2.971   0.197   0.621
  693WAT     H2 2137   3.078   0.297   0.586
  694WAT      O 2138   3.714   0.298   1.295
  694WAT     H1 2139   3.631   0.305   1.248
  694WAT     H2 2140   3.774   0.357   1.248
  695WAT      O 2141   3.466   0.359   0.648
  695WAT     H1 2142   3.404   0.326   0.583
  695WAT     H2 2143   3.464   0.295   0.719
  696WAT      O 2144   2.624   0.256   0.876
  696WAT     H1 2145   2.583   0.185   0.826
  696WAT     H2 2146   2.632   0.221   0.965
  697WAT      O 2147   2.671   0.624   1.092
  697WAT     H1 2148   2.641   0.564   1.024
  697WAT     H2 2149   2.766   0.628   1.081
  698WAT      O 2150   3.479   0.982   1.459
  698WAT     H1 2151   3.432   1.062   1.439
  698WAT     H2 2152   3.411   0.917   1.474
  699WAT      O 2153   2.580   0.598   1.757
  699WAT     H1 2154   2.490   0.621   1.782
  699WAT     H2 2155   2.582   0.611   1.662
  700WAT      O 2156   3.284   0.283   0.349
  700WAT     H1 2157   3.328   0.199   0.334
  700WAT     H2 2158   3.355   0.346   0.357
  701WAT      O 2159   2.463   0.285   1.615
  701WAT     H1 2160   2.449   0.373   1.652
  701WAT     H2 2161   2.374   0.251   1.600
  702WAT      O 2162   3.095   0.777   0.746
  702WAT     H1 2163   3.139   0.851   0.704
  702WAT     H2 2164   3.089   0.801   0.838
  703WAT      O 2165   2.642   0.880   1.836
  703WAT     H1 2166   2.639   0.920   1.749
  703WAT     H2 2167   2.626   0.787   1.820
  704WAT      O 2168   2.058   0.462   1.207
  704WAT     H1 2169   2.065   0.476   1.112
  704WAT     H2 2170   2.119   0.392   1.226
  705WAT      O 2171   2.182   0.632   0.848
  705WAT     H1 2172   2.141   0.647   0.762
  705WAT     H2 2173   2.271   0.604   0.827
  706WAT      O 2174   3.778   0.677   1.681
  706WAT     H1 2175   3.790   0.653   1.590
  706WAT     H2 2176   3.782   0.594   1.729
  707WAT      O 2177   3.164   1.047   1.538
  707WAT     H1 2178   3.215   1.038   1.619
  707WAT     H2 2179   3.080   1.082   1.568
  708WAT      O 2180   3.362   1.076   0.481
  708WAT     H1 2181   3.346   1.047   0.571
  708WAT     H2 2182   3.345   0.998   0.428
  709WAT      O 2183   2.609   1.054   0.659
  709WAT     H1 2184   2.592   0.962   0.638
  709WAT     H2 2185   2.524   1.090   0.683
  710WAT      O 2186   3.332   0.827   0.337
  710WAT     H1 2187   3.262   0.827   0.271
  710WAT     H2 2188   3.406   0.784   0.294
  711WAT      O 2189   3.288   0.989   0.745
  711WAT     H1 2190   3.334   0.911   0.776
  711WAT     H2 2191   3.322   1.060   0.799
  712WAT      O 2192   2.063   0.567   1.461
  712WAT     H1 2193   2.080   0.520   1.379
  712WAT     H2 2194   2.110   0.516   1.527
  713WAT      O 2195   2.221   0.504   1.677
  713WAT     H1 2196   2.182   0.440   1.736
  713WAT     H2 2197   2.252   0.574   1.734
  714WAT      O 2198   2.467   0.513   0.516
  714WAT     H1 2199   2.390   0.459   0.500
  714WAT     H2 2200   2.540   0.462   0.482
  715WAT      O 2201   3.543   0.413   1.095
  715WAT     H1 2202   3.615   0.463   1.056
  715WAT     H2 2203   3.523   0.345   1.031
  716WAT      O 2204   3.082   0.420   1.684
  716WAT     H1 2205   3.075   0.328   1.659
  716WAT     H2 2206   3.019   0.430   1.756
  717WAT      O 2207   2.472   0.480   0.880
  717WAT     H1 2208   2.524   0.400   0.875
  717WAT     H2 2209   2.427   0.474   0.964
  718WAT      O 2210   2.961   0.607   0.407
  718WAT     H1 2211   2.995   0.681   0.358
  718WAT     H2 2212   2.878   0.638   0.443
  719WAT      O 2213   2.540   0.223   1.860
  719WAT     H1 2214   2.510   0.237   1.770
  719WAT     H2 2215   2.618   0.167   1.850
  720WAT      O 2216   3.075   0.702   1.659
  720WAT     H1 2217   3.076   0.609   1.637
  720WAT     H2 2218   3.004   0.711   1.723
  721WAT      O 2219   3.696   0.367   1.594
  721WAT     H1 2220   3.623   0.426   1.574
  721WAT     H2 2221   3.749   0.366   1.514
  722WAT      O 2222   3.691   0.806   0.559
  722WAT     H1 2223   3.627   0.741   0.586
  722WAT     H2 2224   3.652   0.847   0.481
  723WAT      O 2225   3.249   0.539   0.944
  723WAT     H1 2226   3.284   0.479   0.878
  723WAT     H2 2227   3.160   0.507   0.961
  724WAT      O 2228   2.857   0.615   0.684
  724WAT     H1 2229   2.926   0.670   0.722
  724WAT     H2 2230   2.779   0.670   0.688
  725WAT      O 2231   2.071   0.177   0.234
  725WAT     H1 2232   2.158   0.205   0.262
  725WAT     H2 2233   2.022   0.258   0.222
  726WAT      O 2234   2.788   0.316   0.646
  726WAT     H1 2235   2.833   0.397   0.668
  726WAT     H2 2236   2.753   0.284   0.729
  727WAT      O 2237   3.018   0.867   1.369
  727WAT     H1 2238   3.082   0.887   1.436
  727WAT     H2 2239   3.054   0.791   1.323
  728WAT      O 2240   3.145   0.667   1.240
  728WAT     H1 2241   3.210   0.597   1.252
  728WAT     H2 2242   3.198   0.745   1.222
  729WAT      O 2243   3.323   0.747   1.561
  729WAT     H1 2244   3.356   0.806   1.628
  729WAT     H2 2245   3.231   0.734   1.584
  730WAT      O 2246   2.108   1.098   0.290
  730WAT     H1 2247   2.144   1.158   0.225
  730WAT     H2 2248   2.094   1.153   0.368
  731WAT      O 2249   3.488   0.487   0.379
  731WAT     H1 2250   3.459   0.533   0.458
  731WAT     H2 2251   3.568   0.441   0.406
  732WAT      O 2252   2.106   0.925   1.738
  732WAT     H1 2253   2.117   0.831   1.724
  732WAT     H2 2254   2.041   0.951   1.673
  733WAT      O 2255   2.906   0.752   1.878
  733WAT     H1 2256   2.874   0.680   1.932
  733WAT     H2 2257   2.838   0.819   1.885
  734WAT      O 2258   2.710   0.836   0.372
  734WAT     H1 2259   2.709   0.910   0.310
  734WAT     H2 2260   2.618   0.812   0.381
  735WAT      O 2261   2.270   0.359   0.446
  735WAT     H1 2262   2.209   0.433   0.447
  735WAT     H2 2263   2.317   0.368   0.364
  736WAT      O 2264   3.008   0.843   0.238
  736WAT     H1 2265   3.018   0.822   0.145
  736WAT     H2 2266   2.918   0.817   0.259
  737WAT      O 2267   2.873   1.095   0.708
  737WAT     H1 2268   2.898   1.091   0.615
  737WAT     H2 2269   2.778   1.082   0.707
  738WAT      O 2270   2.471   0.355   0.221
  738WAT     H1 2271   2.548   0.343   0.278
  738WAT     H2 2272   2.479   0.285   0.156
  739WAT      O 2273   3.673   0.904   1.033
  739WAT     H1 2274   3.686   0.986   1.080
  739WAT     H2 2275   3.760   0.882   0.998
  740WAT      O 2276   2.420   1.113   1.000
  740WAT     H1 2277   2.494   1.058   1.027
  740WAT     H2 2278   2.459   1.199   0.986
  741WAT      O 2279   2.109   0.720   0.587
  741WAT     H1 2280   2.016   0.744   0.586
  741WAT     H2 2281   2.156   0.802   0.575
  742WAT      O 2282   2.321   1.031   1.919
  742WAT     H1 2283   2.401   1.063   1.960
  742WAT     H2 2284   2.270   0.995   1.991
  743WAT      O 2285   3.205   0.642   1.914
  743WAT     H1 2286   3.144   0.644   1.839
  743WAT     H2 2287   3.174   0.569   1.967
  744WAT      O 2288   3.348   1.015   1.775
  744WAT     H1 2289   3.443   1.007   1.770
  744WAT     H2 2290   3.333   1.081   1.842
  745WAT      O 2291   3.637   0.953   0.325
  745WAT     H1 2292   3.608   0.912   0.243
  745WAT     H2 2293   3.617   1.046   0.313
  746WAT      O 2294   2.093   0.280   1.813
  746WAT     H1 2295   2.143   0.222   1.870
  746WAT     H2 2296   2.019   0.308   1.867
  747WAT      O 2297   2.798   0.421   1.767
  747WAT     H1 2298   2.722   0.478   1.758
  747WAT     H2 2299   2.817   0.392   1.677
  748WAT      O 2300   3.107   0.458   0.229
  748WAT     H1 2301   3.052   0.503   0.293
  748WAT     H2 2302   3.170   0.408   0.281
  749WAT      O 2303   3.513   0.594   1.822
  749WAT     H1 2304   3.587   0.628   1.772
  749WAT     H2 2305   3.436   0.611   1.767
  750WAT      O 2306   2.674   0.354   0.419
  750WAT     H1 2307   2.716   0.338   0.503
  750WAT     H2 2308   2.687   0.273   0.369
  751WAT      O 2309   3.380   0.399   1.676
  751WAT     H1 2310   3.422   0.414   1.761
  751WAT     H2 2311   3.287   0.412   1.692
  752WAT      O 2312   2.856   0.394   1.473
  752WAT     H1 2313   2.898   0.479   1.456
  752WAT     H2 2314   2.764   0.408   1.450
  753WAT      O 2315   3.324   0.223   1.469
  753WAT     H1 2316   3.271   0.275   1.408
  753WAT     H2 2317   3.358   0.286   1.532
  754WAT      O 2318   2.641   1.025   1.584
  754WAT     H1 2319   2.588   1.097   1.552
  754WAT     H2 2320   2.667   0.977   1.505
  755WAT      O 2321   2.927   1.148   1.610
  755WAT     H1 2322   2.920   1.239   1.641
  755WAT     H2 2323   2.837   1.116   1.607
  756WAT      O 2324   2.982   1.065   0.372
  756WAT     H1 2325   3.071   1.099   0.375
  756WAT     H2 2326   2.985   0.993   0.310
  757WAT      O 2327   2.346   0.602   0.195
  757WAT     H1 2328   2.390   0.656   0.261
  757WAT     H2 2329   2.394   0.520   0.196
  758WAT      O 2330   2.067   0.881   0.941
  758WAT     H1 2331   2.100   0.794   0.917
  758WAT     H2 2332   2.110   0.902   1.024
  759WAT      O 2333   2.527   0.714   0.707
  759WAT     H1 2334   2.497   0.702   0.797
  759WAT     H2 2335   2.516   0.628   0.666
  760WAT      O 2336   2.116   0.968   1.214
  760WAT     H1 2337   2.072   0.986   1.298
  760WAT     H2 2338   2.173   1.043   1.200
  761WAT      O 2339   3.680   0.918   1.643
  761WAT     H1 2340   3.620   0.924   1.569
  761WAT     H2 2341   3.693   0.824   1.656
  762WAT      O 2342   3.804   0.692   0.177
  762WAT     H1 2343   3.721   0.699   0.224
  762WAT     H2 2344   3.822   0.781   0.146
  763WAT      O 2345   3.749   0.367   0.427
  763WAT     H1 2346   3.826   0.423   0.438
  763WAT     H2 2347   3.751   0.310   0.504
  764WAT      O 2348   2.099   0.219   0.850
  764WAT     H1 2349   2.034   0.192   0.786
  764WAT     H2 2350   2.183   0.208   0.805
  765WAT      O 2351   3.548   0.590   1.453
  765WAT     H1 2352   3.467   0.633   1.479
  765WAT     H2 2353   3.589   0.652   1.392
  766WAT      O 2354   2.203   0.257   1.304
  766WAT     H1 2355   2.240   0.249   1.392
  766WAT     H2 2356   2.146   0.181   1.294
  767WAT      O 2357   3.554   1.066   0.806
  767WAT     H1 2358   3.614   1.033   0.738
  767WAT     H2 2359   3.580   1.018   0.885
  768WAT      O 2360   2.345   0.709   1.820
  768WAT     H1 2361   2.340   0.672   1.909
  768WAT     H2 2362   2.358   0.803   1.835
  769WAT      O 2363   2.715   0.864   1.381
  769WAT     H1 2364   2.691   0.891   1.292
  769WAT     H2 2365   2.809   0.881   1.386
  770WAT      O 2366   2.329   1.003   1.532
  770WAT     H1 2367   2.269   0.990   1.606
  770WAT     H2 2368   2.328   0.920   1.486
  771WAT      O 2369   3.609   1.131   1.189
  771WAT     H1 2370   3.563   1.206   1.151
  771WAT     H2 2371   3.546   1.059   1.183
  772WAT      O 2372   2.292   0.740   1.428
  772WAT     H1 2373   2.219   0.678   1.421
  772WAT     H2 2374   2.298   0.779   1.341
  773WAT      O 2375   2.652   0.961   1.106
  773WAT     H1 2376   2.704   0.900   1.054
  773WAT     H2 2377   2.717   1.012   1.155
  774WAT      O 2378   2.926   1.050   1.189
  774WAT     H1 2379   2.955   1.025   1.101
  774WAT     H2 2380   2.977   0.995   1.248
  775WAT      O 2381   2.120   1.072   0.749
  775WAT     H1 2382   2.103   1.008   0.818
  775WAT     H2 2383   2.033   1.092   0.713
  776WAT      O 2384   2.281   0.941   0.493
  776WAT     H1 2385   2.228   0.979   0.423
  776WAT     H2 2386   2.273   1.004   0.565
  777WAT      O 2387   2.933   1.143   1.925
  777WAT     H1 2388   3.025   1.119   1.930
  777WAT     H2 2389   2.931   1.225   1.877
  778WAT      O 2390   3.756   1.097   0.625
  778WAT     H1 2391   3.774   1.028   0.561
  778WAT     H2 2392   3.686   1.149   0.586
  779WAT      O 2393   2.541   1.136   0.381
  779WAT     H1 2394   2.614   1.107   0.326
  779WAT     H2 2395   2.566   1.112   0.469
  780WAT      O 2396   2.457   0.747   0.381
  780WAT     H1 2397   2.394   0.794   0.436
  780WAT     H2 2398   2.468   0.663   0.424
  781WAT      O 2399   3.590   1.065   1.908
  781WAT     H1 2400   3.669   1.016   1.887
  781WAT     H2 2401   3.619   1.133   1.969
  782WAT      O 2402   1.325   3.907   2.751
  782WAT     H1 2403   1.317   3.816   2.724
  782WAT     H2 2404   1.283   3.957   2.680
  783WAT      O 2405   0.380   3.612   2.405
  783WAT     H1 2406   0.292   3.647   2.395
  783WAT     H2 2407   0.409   3.592   2.316
  784WAT      O 2408   0.177   3.872   2.994
  784WAT     H1 2409   0.234   3.796   2.994
  784WAT     H2 2410   0.177   3.902   2.903
  785WAT      O 2411   0.301   3.413   3.172
  785WAT     H1 2412   0.283   3.324   3.200
  785WAT     H2 2413   0.261   3.468   3.240
  786WAT      O 2414   1.185   3.633   2.962
  786WAT     H1 2415   1.223   3.546   2.951
  786WAT     H2 2416   1.175   3.667   2.873
  787WAT      O 2417   0.598   3.471   2.509
  787WAT     H1 2418   0.609   3.561   2.539
  787WAT     H2 2419   0.507   3.466   2.479
  788WAT      O 2420   1.563   3.383   2.656
  788WAT     H1 2421   1.645   3.334   2.660
  788WAT     H2 2422   1.567   3.442   2.731
  789WAT      O 2423   0.363   3.663   3.033
  789WAT     H1 2424   0.431   3.689   3.095
  789WAT     H2 2425   0.331   3.579   3.066
  790WAT      O 2426   0.782   3.768   2.942
  790WAT     H1 2427   0.833   3.817   3.006
  790WAT     H2 2428   0.835   3.690   2.924
  791WAT      O 2429   1.992   3.585   3.312
  791WAT     H1 2430   1.922   3.623   3.260
  791WAT     H2 2431   2.019   3.654   3.372
  792WAT      O 2432   0.611   3.232   3.368
  792WAT     H1 2433   0.611   3.283   3.288
  792WAT     H2 2434   0.528   3.184   3.366
  793WAT      O 2435   1.587   3.577   2.933
  793WAT     H1 2436   1.516   3.606   2.991
  793WAT     H2 2437   1.623   3.658   2.897
  794WAT      O 2438   0.579   3.403   3.169
  794WAT     H1 2439   0.613   3.487   3.140
  794WAT     H2 2440   0.485   3.418   3.181
  795WAT      O 2441   1.894   3.522   2.972
  795WAT     H1 2442   1.799   3.525   2.985
  795WAT     H2 2443   1.926   3.603   3.010
  796WAT      O 2444   0.947   3.152   2.802
  796WAT     H1 2445   0.978   3.096   2.730
  796WAT     H2 2446   0.854   3.165   2.783
  797WAT      O 2447   1.186   3.958   2.475
  797WAT     H1 2448   1.093   3.951   2.498
  797WAT     H2 2449   1.201   4.052   2.464
  798WAT      O 2450   1.184   3.585   2.175
  798WAT     H1 2451   1.091   3.601   2.183
  798WAT     H2 2452   1.216   3.657   2.120
  799WAT      O 2453   1.533   3.732   3.267
  799WAT     H1 2454   1.492   3.815   3.293
  799WAT     H2 2455   1.460   3.674   3.248
  800WAT      O 2456   0.746   4.011   2.753
  800WAT     H1 2457   0.706   3.939   2.704
  800WAT     H2 2458   0.755   3.976   2.842
  801WAT      O 2459   0.618   3.688   3.131
  801WAT     H1 2460   0.673   3.699   3.054
  801WAT     H2 2461   0.669   3.725   3.203
  802WAT      O 2462   1.765   3.164   2.058
  802WAT     H1 2463   1.733   3.173   2.148
  802WAT     H2 2464   1.841   3.221   2.053
  803WAT      O 2465   0.416   3.900   2.503
  803WAT     H1 2466   0.404   3.973   2.442
  803WAT     H2 2467   0.385   3.823   2.456
  804WAT      O 2468   1.886   3.637   3.655
  804WAT     H1 2469   1.824   3.688   3.603
  804WAT     H2 2470   1.854   3.547   3.650
  805WAT      O 2471   0.663   3.234   2.842
  805WAT     H1 2472   0.619   3.313   2.808
  805WAT     H2 2473   0.719   3.267   2.912
  806WAT      O 2474   1.092   3.521   3.402
  806WAT     H1 2475   1.046   3.542   3.483
  806WAT     H2 2476   1.052   3.440   3.372
  807WAT      O 2477   1.592   3.643   3.515
  807WAT     H1 2478   1.507   3.613   3.547
  807WAT     H2 2479   1.576   3.668   3.424
  808WAT      O 2480   1.301   3.793   3.725
  808WAT     H1 2481   1.334   3.710   3.691
  808WAT     H2 2482   1.380   3.846   3.740
  809WAT      O 2483   0.975   3.197   2.330
  809WAT     H1 2484   0.912   3.196   2.402
  809WAT     H2 2485   0.966   3.110   2.290
  810WAT      O 2486   0.867   3.289   3.028
  810WAT     H1 2487   0.897   3.380   3.019
  810WAT     H2 2488   0.922   3.240   2.966
  811WAT      O 2489   0.642   3.747   2.614
  811WAT     H1 2490   0.620   3.725   2.705
  811WAT     H2 2491   0.564   3.790   2.580
  812WAT      O 2492   1.365   3.747   2.474
  812WAT     H1 2493   1.305   3.820   2.456
  812WAT     H2 2494   1.420   3.741   2.396
  813WAT      O 2495   0.886   3.837   3.681
  813WAT     H1 2496   0.877   3.743   3.666
  813WAT     H2 2497   0.970   3.859   3.642
  814WAT      O 2498   1.226   3.611   2.677
  814WAT     H1 2499   1.265   3.643   2.596
  814WAT     H2 2500   1.262   3.523   2.689
  815WAT      O 2501   0.399   3.478   3.496
  815WAT     H1 2502   0.360   3.563   3.517
  815WAT     H2 2503   0.330   3.414   3.515
  816WAT      O 2504   1.284   3.870   3.087
  816WAT     H1 2505   1.211   3.921   3.122
  816WAT     H2 2506   1.245   3.788   3.057
  817WAT      O 2507   0.928   3.538   2.927
  817WAT     H1 2508   0.928   3.494   2.842
  817WAT     H2 2509   1.018   3.570   2.938
  818WAT      O 2510   0.513   3.526   2.823
  818WAT     H1 2511   0.479   3.574   2.899
  818WAT     H2 2512   0.437   3.481   2.787
  819WAT      O 2513   0.934   3.638   2.226
  819WAT     H1 2514   0.946   3.634   2.321
  819WAT     H2 2515   0.896   3.724   2.211
  820WAT      O 2516   1.331   3.415   3.028
  820WAT     H1 2517   1.332   3.461   3.113
  820WAT     H2 2518   1.306   3.326   3.049
  821WAT      O 2519   0.836   3.869   2.166
  821WAT     H1 2520   0.779   3.824   2.104
  821WAT     H2 2521   0.906   3.905   2.113
  822WAT      O 2522   1.673   3.157   3.612
  822WAT     H1 2523   1.706   3.084   3.665
  822WAT     H2 2524   1.677   3.125   3.522
  823WAT      O 2525   0.958   3.944   3.102
  823WAT     H1 2526   0.995   3.896   3.177
  823WAT     H2 2527   0.939   4.031   3.136
  824WAT      O 2528   0.245   3.418   2.715
  824WAT     H1 2529   0.216   3.382   2.799
  824WAT     H2 2530   0.238   3.345   2.654
  825WAT      O 2531   0.737   3.848   3.334
  825WAT     H1 2532   0.707   3.936   3.356
  825WAT     H2 2533   0.833   3.854   3.337
  826WAT      O 2534   1.212   3.307   2.387
  826WAT     H1 2535   1.131   3.258   2.380
  826WAT     H2 2536   1.193   3.391   2.346
  827WAT      O 2537   1.483   3.745   2.217
  827WAT     H1 2538   1.572   3.776   2.199
  827WAT     H2 2539   1.481   3.657   2.178
  828WAT      O 2540   0.343   3.932   3.449
  828WAT     H1 2541   0.307   3.998   3.507
  828WAT     H2 2542   0.313   3.849   3.486
  829WAT      O 2543   0.663   3.978   3.737
  829WAT     H1 2544   0.633   3.992   3.647
  829WAT     H2 2545   0.740   3.922   3.728
  830WAT      O 2546   1.711   3.876   2.164
  830WAT     H1 2547   1.702   3.919   2.079
  830WAT     H2 2548   1.783   3.922   2.207
  831WAT      O 2549   0.194   3.932   2.111
  831WAT     H1 2550   0.281   3.960   2.139
  831WAT     H2 2551   0.145   4.013   2.099
  832WAT      O 2552   0.500   3.105   2.570
  832WAT     H1 2553   0.488   3.104   2.665
  832WAT     H2 2554   0.418   3.139   2.535
  833WAT      O 2555   1.350   3.530   3.291
  833WAT     H1 2556   1.387   3.448   3.324
  833WAT     H2 2557   1.264   3.536   3.333
  834WAT      O 2558   1.686   3.426   2.372
  834WAT     H1 2559   1.623   3.436   2.301
  834WAT     H2 2560   1.637   3.447   2.451
  835WAT      O 2561   0.883   3.653   2.514
  835WAT     H1 2562   0.812   3.700   2.558
  835WAT     H2 2563   0.912   3.588   2.577
  836WAT      O 2564   1.046   3.795   3.314
  836WAT     H1 2565   1.096   3.843   3.380
  836WAT     H2 2566   1.060   3.703   3.334
  837WAT      O 2567   1.286   3.326   2.658
  837WAT     H1 2568   1.274   3.328   2.563
  837WAT     H2 2569   1.381   3.331   2.670
  838WAT      O 2570   0.704   3.484   2.251
  838WAT     H1 2571   0.788   3.528   2.245
  838WAT     H2 2572   0.667   3.515   2.334
  839WAT      O 2573   1.766   3.417   3.398
  839WAT     H1 2574   1.716   3.491   3.432
  839WAT     H2 2575   1.848   3.456   3.366
  840WAT      O 2576   1.596   3.941   2.743
  840WAT     H1 2577   1.502   3.943   2.760
  840WAT     H2 2578   1.627   3.863   2.787
  841WAT      O 2579   0.463   3.853   2.167
  841WAT     H1 2580   0.471   3.758   2.178
  841WAT     H2 2581   0.552   3.886   2.178
  842WAT      O 2582   0.216   4.035   3.691
  842WAT     H1 2583   0.266   3.977   3.748
  842WAT     H2 2584   0.142   4.063   3.744
  843WAT      O 2585   0.613   3.707   3.577
  843WAT     H1 2586   0.560   3.658   3.514
  843WAT     H2 2587   0.680   3.750   3.523
  844WAT      O 2588   1.550   3.888   3.754
  844WAT     H1 2589   1.608   3.812   3.745
  844WAT     H2 2590   1.568   3.941   3.676
  845WAT      O 2591   0.662   3.404   3.585
  845WAT     H1 2592   0.652   3.342   3.512
  845WAT     H2 2593   0.604   3.476   3.562
  846WAT      O 2594   0.938   3.260   3.288
  846WAT     H1 2595   0.893   3.262   3.204
  846WAT     H2 2596   0.875   3.220   3.348
  847WAT      O 2597   1.212   3.922   3.489
  847WAT     H1 2598   1.224   3.863   3.563
  847WAT     H2 2599   1.298   3.926   3.447
  848WAT      O 2600   1.446   3.978   3.346
  848WAT     H1 2601   1.394   4.030   3.286
  848WAT     H2 2602   1.481   4.041   3.409
  849WAT      O 2603   0.686   3.717   1.991
  849WAT     H1 2604   0.666   3.630   2.027
  849WAT     H2 2605   0.669   3.708   1.897
  850WAT      O 2606   0.889   3.576   3.614
  850WAT     H1 2607   0.948   3.546   3.683
  850WAT     H2 2608   0.807   3.529   3.630
  851WAT      O 2609   1.371   3.538   3.638
  851WAT     H1 2610   1.302   3.472   3.631
  851WAT     H2 2611   1.443   3.493   3.682
  852WAT      O 2612   1.434   3.198   2.244
  852WAT     H1 2613   1.462   3.113   2.279
  852WAT     H2 2614   1.357   3.221   2.295
  853WAT      O 2615   0.566   3.427   1.989
  853WAT     H1 2616   0.596   3.427   1.899
  853WAT     H2 2617   0.640   3.392   2.039
  854WAT      O 2618   0.888   3.321   2.088
  854WAT     H1 2619   0.853   3.253   2.030
  854WAT     H2 2620   0.908   3.275   2.169
  855WAT      O 2621   0.222   3.974   2.728
  855WAT     H1 2622   0.156   3.947   2.663
  855WAT     H2 2623   0.306   3.963   2.683
  856WAT      O 2624   1.517   3.453   2.150
  856WAT     H1 2625   1.559   3.434   2.066
  856WAT     H2 2626   1.486   3.368   2.181
  857WAT      O 2627   1.867   3.944   2.520
  857WAT     H1 2628   1.829   3.868   2.476
  857WAT     H2 2629   1.794   3.983   2.568
  858WAT      O 2630   0.326   4.012   3.182
  858WAT     H1 2631   0.362   4.004   3.270
  858WAT     H2 2632   0.269   3.936   3.172
  859WAT      O 2633   1.806   3.859   3.483
  859WAT     H1 2634   1.783   3.836   3.393
  859WAT     H2 2635   1.832   3.951   3.478
  860WAT      O 2636   0.281   3.703   3.572
  860WAT     H1 2637   0.191   3.700   3.606
  860WAT     H2 2638   0.335   3.723   3.649
  861WAT      O 2639   1.650   3.382   3.761
  861WAT     H1 2640   1.737   3.383   3.799
  861WAT     H2 2641   1.651   3.308   3.700
  862WAT      O 2642   1.794   3.767   2.850
  862WAT     H1 2643   1.847   3.718   2.787
  862WAT     H2 2644   1.853   3.780   2.924
  863WAT      O 2645   1.812   3.775   3.202
  863WAT     H1 2646   1.717   3.772   3.213
  863WAT     H2 2647   1.830   3.866   3.178
  864WAT      O 2648   0.398   3.600   2.113
  864WAT     H1 2649   0.469   3.558   2.064
  864WAT     H2 2650   0.326   3.607   2.050
  865WAT      O 2651   0.362   3.206   2.017
  865WAT     H1 2652   0.435   3.260   2.049
  865WAT     H2 2653   0.390   3.178   1.929
  866WAT      O 2654   1.743   3.693   2.444
  866WAT     H1 2655   1.793   3.669   2.522
  866WAT     H2 2656   1.723   3.609   2.402
  867WAT      O 2657   0.331   3.131   3.007
  867WAT     H1 2658   0.396   3.076   2.963
  867WAT     H2 2659   0.373   3.156   3.089
  868WAT      O 2660   1.886   3.556   2.697
  868WAT     H1 2661   1.875   3.541   2.791
  868WAT     H2 2662   1.962   3.504   2.673
  869WAT      O 2663   1.721   3.150   3.343
  869WAT     H1 2664   1.785   3.212   3.379
  869WAT     H2 2665   1.736   3.154   3.248
  870WAT      O 2666   1.975   3.339   2.021
  870WAT     H1 2667   2.068   3.326   2.000
  870WAT     H2 2668   1.973   3.347   2.116
  871WAT      O 2669   1.982   3.417   2.284
  871WAT     H1 2670   1.903   3.410   2.337
  871WAT     H2 2671   2.003   3.510   2.282
  872WAT      O 2672   0.307   3.146   3.281
  872WAT     H1 2673   0.272   3.192   3.358
  872WAT     H2 2674   0.273   3.057   3.290
  873WAT      O 2675   1.058   3.266   3.634
  873WAT     H1 2676   1.052   3.325   3.709
  873WAT     H2 2677   1.152   3.255   3.619
  874WAT      O 2678   1.322   3.231   3.598
  874WAT     H1 2679   1.383   3.263   3.531
  874WAT     H2 2680   1.376   3.183   3.659
  875WAT      O 2681   0.374   3.099   3.609
  875WAT     H1 2682   0.429   3.081   3.533
  875WAT     H2 2683   0.380   3.020   3.662
  876WAT      O 2684   1.396   3.088   3.230
  876WAT     H1 2685   1.308   3.121   3.210
  876WAT     H2 2686   1.385   3.040   3.313
  877WAT      O 2687   1.486   3.308   3.369
  877WAT     H1 2688   1.454   3.227   3.331
  877WAT     H2 2689   1.581   3.304   3.356
  878WAT      O 2690   1.170   3.179   3.124
  878WAT     H1 2691   1.092   3.227   3.152
  878WAT     H2 2692   1.141   3.089   3.113
  879WAT      O 2693   1.626   3.249   2.929
  879WAT     H1 2694   1.670   3.244   2.844
  879WAT     H2 2695   1.599   3.341   2.936
  880WAT      O 2696   1.812   3.213   2.730
  880WAT     H1 2697   1.806   3.118   2.715
  880WAT     H2 2698   1.890   3.223   2.784
  881WAT      O 2699   0.305   3.210   2.376
  881WAT     H1 2700   0.381   3.221   2.319
  881WAT     H2 2701   0.259   3.293   2.372
  882WAT      O 2702   0.959   3.421   2.675
  882WAT     H1 2703   0.878   3.384   2.641
  882WAT     H2 2704   1.009   3.346   2.705
  883WAT      O 2705   1.409   3.088   2.799
  883WAT     H1 2706   1.470   3.145   2.847
  883WAT     H2 2707   1.335   3.144   2.777
  884WAT      O 2708   1.724   3.128   2.327
  884WAT     H1 2709   1.743   3.218   2.353
  884WAT     H2 2710   1.645   3.105   2.376
  885WAT      O 2711   0.542   3.262   2.230
  885WAT     H1 2712   0.595   3.184   2.217
  885WAT     H2 2713   0.605   3.330   2.254
  886WAT      O 2714   0.761   3.236   2.536
  886WAT     H1 2715   0.698   3.166   2.552
  886WAT     H2 2716   0.708   3.312   2.514
  887WAT      O 2717   0.774   3.164   3.779
  887WAT     H1 2718   0.746   3.214   3.703
  887WAT     H2 2719   0.812   3.084   3.743
  888WAT      O 2720   1.325   3.907   0.873
  888WAT     H1 2721   1.317   3.816   0.846
  888WAT     H2 2722   1.283   3.957   0.803
  889WAT      O 2723   0.380   3.612   0.528
  889WAT     H1 2724   0.292   3.647   0.517
  889WAT     H2 2725   0.409   3.592   0.438
  890WAT      O 2726   0.177   3.872   1.116
  890WAT     H1 2727   0.234   3.796   1.116
  890WAT     H2 2728   0.177   3.902   1.025
  891WAT      O 2729   0.301   3.413   1.295
  891WAT     H1 2730   0.283   3.324   1.323
  891WAT     H2 2731   0.261   3.468   1.362
  892WAT      O 2732   1.185   3.633   1.085
  892WAT     H1 2733   1.223   3.546   1.074
  892WAT     H2 2734   1.175   3.667   0.996
  893WAT      O 2735   0.598   3.471   0.631
  893WAT     H1 2736   0.609   3.561   0.662
  893WAT     H2 2737   0.507   3.466   0.602
  894WAT      O 2738   1.563   3.383   0.778
  894WAT     H1 2739   1.645   3.334   0.782
  894WAT     H2 2740   1.567   3.442   0.853
  895WAT      O 2741   0.363   3.663   1.156
  895WAT     H1 2742   0.431   3.689   1.217
  895WAT     H2 2743   0.331   3.579   1.189
  896WAT      O 2744   0.782   3.768   1.064
  896WAT     H1 2745   0.833   3.817   1.128
  896WAT     H2 2746   0.835   3.690   1.047
  897WAT      O 2747   1.992   3.585   1.435
  897WAT     H1 2748   1.922   3.623   1.383
  897WAT     H2 2749   2.019   3.654   1.495
  898WAT      O 2750   0.611   3.232   1.491
  898WAT     H1 2751   0.611   3.283   1.410
  898WAT     H2 2752   0.528   3.184   1.489
  899WAT      O 2753   1.587   3.577   1.055
  899WAT     H1 2754   1.516   3.606   1.113
  899WAT     H2 2755   1.623   3.658   1.019
  900WAT      O 2756   0.579   3.403   1.292
  900WAT     H1 2757   0.613   3.487   1.262
  900WAT     H2 2758   0.485   3.418   1.303
  901WAT      O 2759   1.894   3.522   1.095
  901WAT     H1 2760   1.799   3.525   1.108
  901WAT     H2 2761   1.926   3.603   1.133
  902WAT      O 2762   0.947   3.152   0.924
  902WAT     H1 2763   0.978   3.096   0.852
  902WAT     H2 2764   0.854   3.165   0.906
  903WAT      O 2765   1.186   3.958   0.598
  903WAT     H1 2766   1.093   3.951   0.621
  903WAT     H2 2767   1.201   4.052   0.586
  904WAT      O 2768   1.184   3.585   0.297
  904WAT     H1 2769   1.091   3.601   0.306
  904WAT     H2 2770   1.216   3.657   0.243
  905WAT      O 2771   1.533   3.732   1.390
  905WAT     H1 2772   1.492   3.815   1.415
  905WAT     H2 2773   1.460   3.674   1.370
  906WAT      O 2774   0.746   4.011   0.876
  906WAT     H1 2775   0.706   3.939   0.826
  906WAT     H2 2776   0.755   3.976   0.965
  907WAT      O 2777   0.618   3.688   1.254
  907WAT     H1 2778   0.673   3.699   1.176
  907WAT     H2 2779   0.669   3.725   1.325
  908WAT      O 2780   1.765   3.164   0.180
  908WAT     H1 2781   1.733   3.173   0.270
  908WAT     H2 2782   1.841   3.221   0.175
  909WAT      O 2783   0.416   3.900   0.626
  909WAT     H1 2784   0.404   3.973   0.565
  909WAT     H2 2785   0.385   3.823   0.578
  910WAT      O 2786   1.886   3.637   1.778
  910WAT     H1 2787   1.824   3.688   1.725
  910WAT     H2 2788   1.854   3.547   1.772
  911WAT      O 2789   0.663   3.234   0.964
  911WAT     H1 2790   0.619   3.313   0.931
  911WAT     H2 2791   0.719   3.267   1.035
  912WAT      O 2792   1.092   3.521   1.525
  912WAT     H1 2793   1.046   3.542   1.606
  912WAT     H2 2794   1.052   3.440   1.494
  913WAT      O 2795   1.592   3.643   1.638
  913WAT     H1 2796   1.507   3.613   1.670
  913WAT     H2 2797   1.576   3.668   1.546
  914WAT      O 2798   1.301   3.793   1.848
  914WAT     H1 2799   1.334   3.710   1.814
  914WAT     H2 2800   1.380   3.846   1.862
  915WAT      O 2801   0.975   3.197   0.452
  915WAT     H1 2802   0.912   3.196   0.525
  915WAT     H2 2803   0.966   3.110   0.413
  916WAT      O 2804   0.867   3.289   1.150
  916WAT     H1 2805   0.897   3.380   1.142
  916WAT     H2 2806   0.922   3.240   1.089
  917WAT      O 2807   0.642   3.747   0.737
  917WAT     H1 2808   0.620   3.725   0.827
  917WAT     H2 2809   0.564   3.790   0.702
  918WAT      O 2810   1.365   3.747   0.597
  918WAT     H1 2811   1.305   3.820   0.579
  918WAT     H2 2812   1.420   3.741   0.519
  919WAT      O 2813   0.886   3.837   1.804
  919WAT     H1 2814   0.877   3.743   1.789
  919WAT     H2 2815   0.970   3.859   1.764
  920WAT      O 2816   1.226   3.611   0.800
  920WAT     H1 2817   1.265   3.643   0.719
  920WAT     H2 2818   1.262   3.523   0.811
  921WAT      O 2819   0.399   3.478   1.619
  921WAT     H1 2820   0.360   3.563   1.640
  921WAT     H2 2821   0.330   3.414   1.638
  922WAT      O 2822   1.057   3.486   1.926
  922WAT     H1 2823   0.988   3.467   1.989
  922WAT     H2 2824   1.131   3.514   1.979
  923WAT      O 2825   1.284   3.870   1.209
  923WAT     H1 2826   1.211   3.921   1.244
  923WAT     H2 2827   1.245   3.788   1.179
  924WAT      O 2828   0.928   3.538   1.050
  924WAT     H1 2829   0.928   3.494   0.965
  924WAT     H2 2830   1.018   3.570   1.061
  925WAT      O 2831   0.513   3.526   0.946
  925WAT     H1 2832   0.479   3.574   1.022
  925WAT     H2 2833   0.437   3.481   0.910
  926WAT      O 2834   0.934   3.638   0.349
  926WAT     H1 2835   0.946   3.634   0.444
  926WAT     H2 2836   0.896   3.724   0.334
  927WAT      O 2837   1.331   3.415   1.151
  927WAT     H1 2838   1.332   3.461   1.235
  927WAT     H2 2839   1.306   3.326   1.172
  928WAT      O 2840   0.836   3.869   0.289
  928WAT     H1 2841   0.779   3.824   0.226
  928WAT     H2 2842   0.906   3.905   0.236
  929WAT      O 2843   1.673   3.157   1.735
  929WAT     H1 2844   1.706   3.084   1.787
  929WAT     H2 2845   1.677   3.125   1.644
  930WAT      O 2846   0.958   3.944   1.225
  930WAT     H1 2847   0.995   3.896   1.299
  930WAT     H2 2848   0.939   4.031   1.259
  931WAT      O 2849   0.245   3.418   0.838
  931WAT     H1 2850   0.216   3.382   0.921
  931WAT     H2 2851   0.238   3.345   0.776
  932WAT      O 2852   0.737   3.848   1.456
  932WAT     H1 2853   0.707   3.936   1.479
  932WAT     H2 2854   0.833   3.854   1.460
  933WAT      O 2855   1.212   3.307   0.510
  933WAT     H1 2856   1.131   3.258   0.502
  933WAT     H2 2857   1.193   3.391   0.468
  934WAT      O 2858   1.483   3.745   0.339
  934WAT     H1 2859   1.572   3.776   0.322
  934WAT     H2 2860   1.481   3.657   0.300
  935WAT      O 2861   0.343   3.932   1.571
  935WAT     H1 2862   0.307   3.998   1.630
  935WAT     H2 2863   0.313   3.849   1.608
  936WAT      O 2864   0.663   3.978   1.860
  936WAT     H1 2865   0.633   3.992   1.770
  936WAT     H2 2866   0.740   3.922   1.850
  937WAT      O 2867   1.711   3.876   0.286
  937WAT     H1 2868   1.702   3.919   0.201
  937WAT     H2 2869   1.783   3.922   0.329
  938WAT      O 2870   0.194   3.932   0.234
  938WAT     H1 2871   0.281   3.960   0.262
  938WAT     H2 2872   0.145   4.013   0.222
  939WAT      O 2873   0.500   3.105   0.693
  939WAT     H1 2874   0.488   3.104   0.788
  939WAT     H2 2875   0.418   3.139   0.658
  940WAT      O 2876   1.350   3.530   1.414
  940WAT     H1 2877   1.387   3.448   1.447
  940WAT     H2 2878   1.264   3.536   1.455
  941WAT      O 2879   1.686   3.426   0.495
  941WAT     H1 2880   1.623   3.436   0.423
  941WAT     H2 2881   1.637   3.447   0.574
  942WAT      O 2882   0.883   3.653   0.636
  942WAT     H1 2883   0.812   3.700   0.681
  942WAT     H2 2884   0.912   3.588   0.700
  943WAT      O 2885   1.046   3.795   1.436
  943WAT     H1 2886   1.096   3.843   1.503
  943WAT     H2 2887   1.060   3.703   1.457
  944WAT      O 2888   1.286   3.326   0.780
  944WAT     H1 2889   1.274   3.328   0.685
  944WAT     H2 2890   1.381   3.331   0.792
  945WAT      O 2891   0.704   3.484   0.374
  945WAT     H1 2892   0.788   3.528   0.367
  945WAT     H2 2893   0.667   3.515   0.457
  946WAT      O 2894   1.766   3.417   1.521
  946WAT     H1 2895   1.716   3.491   1.555
  946WAT     H2 2896   1.848   3.456   1.489
  947WAT      O 2897   1.596   3.941   0.865
  947WAT     H1 2898   1.502   3.943   0.883
  947WAT     H2 2899   1.627   3.863   0.910
  948WAT      O 2900   0.463   3.853   0.290
  948WAT     H1 2901   0.471   3.758   0.301
  948WAT     H2 2902   0.552   3.886   0.300
  949WAT      O 2903   0.216   4.035   1.813
  949WAT     H1 2904   0.266   3.977   1.870
  949WAT     H2 2905   0.142   4.063   1.867
  950WAT      O 2906   0.419   3.849   1.903
  950WAT     H1 2907   0.423   3.819   1.993
  950WAT     H2 2908   0.504   3.889   1.887
  951WAT      O 2909   0.613   3.707   1.699
  951WAT     H1 2910   0.560   3.658   1.637
  951WAT     H2 2911   0.680   3.750   1.646
  952WAT      O 2912   1.550   3.888   1.876
  952WAT     H1 2913   1.608   3.812   1.867
  952WAT     H2 2914   1.568   3.941   1.799
  953WAT      O 2915   0.662   3.404   1.707
  953WAT     H1 2916   0.652   3.342   1.635
  953WAT     H2 2917   0.604   3.476   1.685
  954WAT      O 2918   0.938   3.260   1.411
  954WAT     H1 2919   0.893   3.262   1.326
  954WAT     H2 2920   0.875   3.220   1.470
  955WAT      O 2921   1.212   3.922   1.611
  955WAT     H1 2922   1.224   3.863   1.685
  955WAT     H2 2923   1.298   3.926   1.569
  956WAT      O 2924   1.446   3.978   1.469
  956WAT     H1 2925   1.394   4.030   1.408
  956WAT     H2 2926   1.481   4.041   1.532
  957WAT      O 2927   0.889   3.576   1.737
  957WAT     H1 2928   0.948   3.546   1.806
  957WAT     H2 2929   0.807   3.529   1.752
  958WAT      O 2930   1.371   3.538   1.760
  958WAT     H1 2931   1.302   3.472   1.754
  958WAT     H2 2932   1.443   3.493   1.805
  959WAT      O 2933   1.434   3.198   0.366
  959WAT     H1 2934   1.462   3.113   0.402
  959WAT     H2 2935   1.357   3.221   0.418
  960WAT      O 2936   0.888   3.321   0.211
  960WAT     H1 2937   0.853   3.253   0.153
  960WAT     H2 2938   0.908   3.275   0.292
  961WAT      O 2939   0.222   3.974   0.850
  961WAT     H1 2940   0.156   3.947   0.786
  961WAT     H2 2941   0.306   3.963   0.805
  962WAT      O 2942   1.517   3.453   0.272
  962WAT     H1 2943   1.559   3.434   0.188
  962WAT     H2 2944   1.486   3.368   0.303
  963WAT      O 2945   1.867   3.944   0.642
  963WAT     H1 2946   1.829   3.868   0.599
  963WAT     H2 2947   1.794   3.983   0.691
  964WAT      O 2948   0.326   4.012   1.304
  964WAT     H1 2949   0.362   4.004   1.392
  964WAT     H2 2950   0.269   3.936   1.294
  965WAT      O 2951   1.806   3.859   1.606
  965WAT     H1 2952   1.783   3.836   1.516
  965WAT     H2 2953   1.832   3.951   1.601
  966WAT      O 2954   0.281   3.703   1.695
  966WAT     H1 2955   0.191   3.700   1.729
  966WAT     H2 2956   0.335   3.723   1.771
  967WAT      O 2957   1.650   3.382   1.883
  967WAT     H1 2958   1.737   3.383   1.922
  967WAT     H2 2959   1.651   3.308   1.822
  968WAT      O 2960   1.794   3.767   0.972
  968WAT     H1 2961   1.847   3.718   0.909
  968WAT     H2 2962   1.853   3.780   1.047
  969WAT      O 2963   1.812   3.775   1.324
  969WAT     H1 2964   1.717   3.772   1.336
  969WAT     H2 2965   1.830   3.866   1.301
  970WAT      O 2966   0.398   3.600   0.235
  970WAT     H1 2967   0.469   3.558   0.187
  970WAT     H2 2968   0.326   3.607   0.172
  971WAT      O 2969   1.743   3.693   0.566
  971WAT     H1 2970   1.793   3.669   0.645
  971WAT     H2 2971   1.723   3.609   0.525
  972WAT      O 2972   0.331   3.131   1.130
  972WAT     H1 2973   0.396   3.076   1.086
  972WAT     H2 2974   0.373   3.156   1.212
  973WAT      O 2975   1.886   3.556   0.820
  973WAT     H1 2976   1.875   3.541   0.913
  973WAT     H2 2977   1.962   3.504   0.795
  974WAT      O 2978   1.721   3.150   1.465
  974WAT     H1 2979   1.785   3.212   1.502
  974WAT     H2 2980   1.736   3.154   1.371
  975WAT      O 2981   1.982   3.417   0.406
  975WAT     H1 2982   1.903   3.410   0.459
  975WAT     H2 2983   2.003   3.510   0.405
  976WAT      O 2984   0.307   3.146   1.404
  976WAT     H1 2985   0.272   3.192   1.481
  976WAT     H2 2986   0.273   3.057   1.412
  977WAT      O 2987   1.058   3.266   1.756
  977WAT     H1 2988   1.052   3.325   1.831
  977WAT     H2 2989   1.152   3.255   1.742
  978WAT      O 2990   1.322   3.231   1.720
  978WAT     H1 2991   1.383   3.263   1.654
  978WAT     H2 2992   1.376   3.183   1.782
  979WAT      O 2993   0.374   3.099   1.731
  979WAT     H1 2994   0.429   3.081   1.655
  979WAT     H2 2995   0.380   3.020   1.785
  980WAT      O 2996   1.396   3.088   1.353
  980WAT     H1 2997   1.308   3.121   1.332
  980WAT     H2 2998   1.385   3.040   1.435
  981WAT      O 2999   1.486   3.308   1.491
  981WAT     H1 3000   1.454   3.227   1.453
  981WAT     H2 3001   1.581   3.304   1.479
  982WAT      O 3002   1.170   3.179   1.247
  982WAT     H1 3003   1.092   3.227   1.275
  982WAT     H2 3004   1.141   3.089   1.236
  983WAT      O 3005   1.626   3.249   1.051
  983WAT     H1 3006   1.670   3.244   0.966
  983WAT     H2 3007   1.599   3.341   1.058
  984WAT      O 3008   1.812   3.213   0.852
  984WAT     H1 3009   1.806   3.118   0.838
  984WAT     H2 3010   1.890   3.223   0.907
  985WAT      O 3011   0.305   3.210   0.499
  985WAT     H1 3012   0.381   3.221   0.441
  985WAT     H2 3013   0.259   3.293   0.494
  986WAT      O 3014   0.959   3.421   0.798
  986WAT     H1 3015   0.878   3.384   0.764
  986WAT     H2 3016   1.009   3.346   0.828
  987WAT      O 3017   1.409   3.088   0.922
  987WAT     H1 3018   1.470   3.145   0.969
  987WAT     H2 3019   1.335   3.144   0.899
  988WAT      O 3020   1.724   3.128   0.449
  988WAT     H1 3021   1.743   3.218   0.476
  988WAT     H2 3022   1.645   3.105   0.498
  989WAT      O 3023   0.542   3.262   0.353
  989WAT     H1 3024   0.595   3.184   0.340
  989WAT     H2 3025   0.605   3.330   0.376
  990WAT      O 3026   0.761   3.236   0.658
  990WAT     H1 3027   0.698   3.166   0.675
  990WAT     H2 3028   0.708   3.312   0.637
  991WAT      O 3029   0.774   3.164   1.902
  991WAT     H1 3030   0.746   3.214   1.825
  991WAT     H2 3031   0.812   3.084   1.865
  992WAT      O 3032   1.434   3.105   1.960
  992WAT     H1 3033   1.423   3.137   2.049
  992WAT     H2 3034   1.516   3.146   1.930
  993WAT      O 3035   1.325   2.030   2.751
  993WAT     H1 3036   1.317   1.939   2.724
  993WAT     H2 3037   1.283   2.080   2.680
  994WAT      O 3038   1.138   2.208   2.939
  994WAT     H1 3039   1.060   2.160   2.968
  994WAT     H2 3040   1.203   2.140   2.922
  995WAT      O 3041   0.540   2.239   3.027
  995WAT     H1 3042   0.456   2.213   3.067
  995WAT     H2 3043   0.600   2.246   3.100
  996WAT      O 3044   1.540   2.648   2.817
  996WAT     H1 3045   1.494   2.571   2.850
  996WAT     H2 3046   1.621   2.651   2.867
  997WAT      O 3047   0.538   2.642   3.046
  997WAT     H1 3048   0.568   2.553   3.028
  997WAT     H2 3049   0.612   2.698   3.024
  998WAT      O 3050   0.380   1.735   2.405
  998WAT     H1 3051   0.292   1.769   2.395
  998WAT     H2 3052   0.409   1.715   2.316
  999WAT      O 3053   0.177   1.995   2.994
  999WAT     H1 3054   0.234   1.918   2.994
  999WAT     H2 3055   0.177   2.025   2.903
 1000WAT      O 3056   1.163   2.877   2.779
 1000WAT     H1 3057   1.101   2.923   2.722
 1000WAT     H2 3058   1.248   2.892   2.739
 1001WAT      O 3059   1.082   2.475   2.940
 1001WAT     H1 3060   1.075   2.381   2.924
 1001WAT     H2 3061   1.158   2.484   2.997
 1002WAT      O 3062   0.301   1.536   3.172
 1002WAT     H1 3063   0.283   1.446   3.200
 1002WAT     H2 3064   0.261   1.591   3.240
 1003WAT      O 3065   1.185   1.756   2.962
 1003WAT     H1 3066   1.223   1.669   2.951
 1003WAT     H2 3067   1.175   1.790   2.873
 1004WAT      O 3068   0.598   1.593   2.509
 1004WAT     H1 3069   0.609   1.683   2.539
 1004WAT     H2 3070   0.507   1.588   2.479
 1005WAT      O 3071   1.563   1.506   2.656
 1005WAT     H1 3072   1.645   1.457   2.660
 1005WAT     H2 3073   1.567   1.565   2.731
 1006WAT      O 3074   0.363   1.785   3.033
 1006WAT     H1 3075   0.431   1.812   3.095
 1006WAT     H2 3076   0.331   1.702   3.066
 1007WAT      O 3077   0.782   1.890   2.942
 1007WAT     H1 3078   0.833   1.940   3.006
 1007WAT     H2 3079   0.835   1.813   2.924
 1008WAT      O 3080   1.992   1.707   3.312
 1008WAT     H1 3081   1.922   1.746   3.260
 1008WAT     H2 3082   2.019   1.777   3.372
 1009WAT      O 3083   0.611   1.354   3.368
 1009WAT     H1 3084   0.611   1.406   3.288
 1009WAT     H2 3085   0.528   1.306   3.366
 1010WAT      O 3086   1.249   2.365   2.518
 1010WAT     H1 3087   1.187   2.412   2.462
 1010WAT     H2 3088   1.300   2.435   2.560
 1011WAT      O 3089   0.736   2.318   3.186
 1011WAT     H1 3090   0.702   2.381   3.250
 1011WAT     H2 3091   0.753   2.371   3.108
 1012WAT      O 3092   1.587   1.700   2.933
 1012WAT     H1 3093   1.516   1.728   2.991
 1012WAT     H2 3094   1.623   1.781   2.897
 1013WAT      O 3095   0.579   1.525   3.169
 1013WAT     H1 3096   0.613   1.610   3.140
 1013WAT     H2 3097   0.485   1.540   3.181
 1014WAT      O 3098   0.657   2.515   3.368
 1014WAT     H1 3099   0.719   2.582   3.339
 1014WAT     H2 3100   0.571   2.556   3.358
 1015WAT      O 3101   0.186   2.434   2.256
 1015WAT     H1 3102   0.148   2.483   2.183
 1015WAT     H2 3103   0.212   2.501   2.319
 1016WAT      O 3104   1.749   2.661   3.159
 1016WAT     H1 3105   1.680   2.728   3.158
 1016WAT     H2 3106   1.802   2.681   3.083
 1017WAT      O 3107   1.894   1.644   2.972
 1017WAT     H1 3108   1.799   1.647   2.985
 1017WAT     H2 3109   1.926   1.725   3.010
 1018WAT      O 3110   0.947   1.274   2.802
 1018WAT     H1 3111   0.978   1.219   2.730
 1018WAT     H2 3112   0.854   1.288   2.783
 1019WAT      O 3113   1.502   2.846   3.031
 1019WAT     H1 3114   1.503   2.805   2.944
 1019WAT     H2 3115   1.447   2.923   3.020
 1020WAT      O 3116   1.632   2.518   2.540
 1020WAT     H1 3117   1.621   2.424   2.552
 1020WAT     H2 3118   1.631   2.554   2.628
 1021WAT      O 3119   1.442   2.336   3.163
 1021WAT     H1 3120   1.484   2.315   3.080
 1021WAT     H2 3121   1.514   2.362   3.221
 1022WAT      O 3122   1.186   2.081   2.475
 1022WAT     H1 3123   1.093   2.074   2.498
 1022WAT     H2 3124   1.201   2.174   2.464
 1023WAT      O 3125   1.184   1.708   2.175
 1023WAT     H1 3126   1.091   1.724   2.183
 1023WAT     H2 3127   1.216   1.780   2.120
 1024WAT      O 3128   1.837   2.176   3.173
 1024WAT     H1 3129   1.754   2.183   3.125
 1024WAT     H2 3130   1.896   2.234   3.126
 1025WAT      O 3131   1.589   2.237   2.525
 1025WAT     H1 3132   1.527   2.203   2.461
 1025WAT     H2 3133   1.587   2.172   2.596
 1026WAT      O 3134   1.533   1.855   3.267
 1026WAT     H1 3135   1.492   1.937   3.293
 1026WAT     H2 3136   1.460   1.796   3.248
 1027WAT      O 3137   0.746   2.133   2.753
 1027WAT     H1 3138   0.706   2.062   2.704
 1027WAT     H2 3139   0.755   2.099   2.842
 1028WAT      O 3140   0.793   2.502   2.970
 1028WAT     H1 3141   0.763   2.441   2.902
 1028WAT     H2 3142   0.888   2.506   2.959
 1029WAT      O 3143   0.618   1.811   3.131
 1029WAT     H1 3144   0.673   1.822   3.054
 1029WAT     H2 3145   0.669   1.848   3.203
 1030WAT      O 3146   1.602   2.859   3.336
 1030WAT     H1 3147   1.554   2.940   3.317
 1030WAT     H2 3148   1.534   2.794   3.351
 1031WAT      O 3149   0.702   2.476   3.635
 1031WAT     H1 3150   0.613   2.498   3.660
 1031WAT     H2 3151   0.705   2.488   3.540
 1032WAT      O 3152   1.406   2.161   2.226
 1032WAT     H1 3153   1.450   2.077   2.212
 1032WAT     H2 3154   1.478   2.224   2.235
 1033WAT      O 3155   0.585   2.163   3.492
 1033WAT     H1 3156   0.571   2.250   3.529
 1033WAT     H2 3157   0.497   2.129   3.478
 1034WAT      O 3158   1.217   2.655   2.623
 1034WAT     H1 3159   1.261   2.729   2.582
 1034WAT     H2 3160   1.211   2.679   2.715
 1035WAT      O 3161   0.765   2.757   3.713
 1035WAT     H1 3162   0.762   2.797   3.627
 1035WAT     H2 3163   0.749   2.664   3.697
 1036WAT      O 3164   1.765   1.286   2.058
 1036WAT     H1 3165   1.733   1.295   2.148
 1036WAT     H2 3166   1.841   1.344   2.053
 1037WAT      O 3167   0.416   2.023   2.503
 1037WAT     H1 3168   0.404   2.095   2.442
 1037WAT     H2 3169   0.385   1.946   2.456
 1038WAT      O 3170   0.180   2.340   3.084
 1038WAT     H1 3171   0.188   2.353   2.990
 1038WAT     H2 3172   0.242   2.269   3.103
 1039WAT      O 3173   0.305   2.510   2.725
 1039WAT     H1 3174   0.264   2.524   2.640
 1039WAT     H2 3175   0.394   2.481   2.705
 1040WAT      O 3176   1.900   2.554   3.559
 1040WAT     H1 3177   1.913   2.531   3.467
 1040WAT     H2 3178   1.905   2.471   3.606
 1041WAT      O 3179   1.287   2.925   3.416
 1041WAT     H1 3180   1.338   2.916   3.496
 1041WAT     H2 3181   1.202   2.959   3.445
 1042WAT      O 3182   1.484   2.953   2.359
 1042WAT     H1 3183   1.468   2.924   2.448
 1042WAT     H2 3184   1.468   2.876   2.305
 1043WAT      O 3185   0.732   2.931   2.536
 1043WAT     H1 3186   0.714   2.840   2.515
 1043WAT     H2 3187   0.647   2.967   2.560
 1044WAT      O 3188   1.454   2.704   2.215
 1044WAT     H1 3189   1.385   2.704   2.149
 1044WAT     H2 3190   1.529   2.662   2.172
 1045WAT      O 3191   1.411   2.867   2.622
 1045WAT     H1 3192   1.456   2.789   2.654
 1045WAT     H2 3193   1.445   2.938   2.677
 1046WAT      O 3194   1.886   1.760   3.655
 1046WAT     H1 3195   1.824   1.811   3.603
 1046WAT     H2 3196   1.854   1.670   3.650
 1047WAT      O 3197   0.186   2.444   3.338
 1047WAT     H1 3198   0.202   2.397   3.256
 1047WAT     H2 3199   0.232   2.393   3.405
 1048WAT      O 3200   0.663   1.357   2.842
 1048WAT     H1 3201   0.619   1.435   2.808
 1048WAT     H2 3202   0.719   1.389   2.912
 1049WAT      O 3203   1.092   1.644   3.402
 1049WAT     H1 3204   1.046   1.665   3.483
 1049WAT     H2 3205   1.052   1.562   3.372
 1050WAT      O 3206   1.592   1.766   3.515
 1050WAT     H1 3207   1.507   1.736   3.547
 1050WAT     H2 3208   1.576   1.790   3.424
 1051WAT      O 3209   1.301   1.916   3.725
 1051WAT     H1 3210   1.334   1.832   3.691
 1051WAT     H2 3211   1.380   1.968   3.740
 1052WAT      O 3212   0.975   1.319   2.330
 1052WAT     H1 3213   0.912   1.319   2.402
 1052WAT     H2 3214   0.966   1.232   2.290
 1053WAT      O 3215   0.867   1.411   3.028
 1053WAT     H1 3216   0.897   1.502   3.019
 1053WAT     H2 3217   0.922   1.363   2.966
 1054WAT      O 3218   0.642   1.869   2.614
 1054WAT     H1 3219   0.620   1.848   2.705
 1054WAT     H2 3220   0.564   1.913   2.580
 1055WAT      O 3221   1.365   1.870   2.474
 1055WAT     H1 3222   1.305   1.942   2.456
 1055WAT     H2 3223   1.420   1.864   2.396
 1056WAT      O 3224   0.886   1.959   3.681
 1056WAT     H1 3225   0.877   1.865   3.666
 1056WAT     H2 3226   0.970   1.981   3.642
 1057WAT      O 3227   1.226   1.734   2.677
 1057WAT     H1 3228   1.265   1.765   2.596
 1057WAT     H2 3229   1.262   1.646   2.689
 1058WAT      O 3230   0.399   1.600   3.496
 1058WAT     H1 3231   0.360   1.685   3.517
 1058WAT     H2 3232   0.330   1.537   3.515
 1059WAT      O 3233   1.284   1.993   3.087
 1059WAT     H1 3234   1.211   2.044   3.122
 1059WAT     H2 3235   1.245   1.911   3.057
 1060WAT      O 3236   0.928   1.660   2.927
 1060WAT     H1 3237   0.928   1.616   2.842
 1060WAT     H2 3238   1.018   1.692   2.938
 1061WAT      O 3239   0.513   1.648   2.823
 1061WAT     H1 3240   0.479   1.696   2.899
 1061WAT     H2 3241   0.437   1.603   2.787
 1062WAT      O 3242   0.934   1.760   2.226
 1062WAT     H1 3243   0.946   1.756   2.321
 1062WAT     H2 3244   0.896   1.847   2.211
 1063WAT      O 3245   1.331   1.538   3.028
 1063WAT     H1 3246   1.332   1.583   3.113
 1063WAT     H2 3247   1.306   1.448   3.049
 1064WAT      O 3248   0.836   1.991   2.166
 1064WAT     H1 3249   0.779   1.947   2.104
 1064WAT     H2 3250   0.906   2.027   2.113
 1065WAT      O 3251   1.673   1.279   3.612
 1065WAT     H1 3252   1.706   1.206   3.665
 1065WAT     H2 3253   1.677   1.247   3.522
 1066WAT      O 3254   0.343   2.381   3.554
 1066WAT     H1 3255   0.305   2.317   3.614
 1066WAT     H2 3256   0.374   2.452   3.611
 1067WAT      O 3257   0.958   2.066   3.102
 1067WAT     H1 3258   0.995   2.019   3.177
 1067WAT     H2 3259   0.939   2.154   3.136
 1068WAT      O 3260   0.245   1.541   2.715
 1068WAT     H1 3261   0.216   1.504   2.799
 1068WAT     H2 3262   0.238   1.467   2.654
 1069WAT      O 3263   0.737   1.970   3.334
 1069WAT     H1 3264   0.707   2.058   3.356
 1069WAT     H2 3265   0.833   1.976   3.337
 1070WAT      O 3266   0.590   2.391   2.394
 1070WAT     H1 3267   0.513   2.337   2.378
 1070WAT     H2 3268   0.663   2.339   2.360
 1071WAT      O 3269   1.666   2.291   2.973
 1071WAT     H1 3270   1.738   2.340   2.934
 1071WAT     H2 3271   1.646   2.223   2.908
 1072WAT      O 3272   1.212   1.430   2.387
 1072WAT     H1 3273   1.131   1.380   2.380
 1072WAT     H2 3274   1.193   1.514   2.346
 1073WAT      O 3275   1.204   2.298   3.562
 1073WAT     H1 3276   1.197   2.206   3.536
 1073WAT     H2 3277   1.141   2.307   3.633
 1074WAT      O 3278   0.594   2.358   2.757
 1074WAT     H1 3279   0.646   2.277   2.752
 1074WAT     H2 3280   0.549   2.352   2.842
 1075WAT      O 3281   1.083   2.484   2.285
 1075WAT     H1 3282   1.117   2.559   2.235
 1075WAT     H2 3283   1.000   2.516   2.321
 1076WAT      O 3284   0.343   2.054   3.449
 1076WAT     H1 3285   0.307   2.121   3.507
 1076WAT     H2 3286   0.313   1.971   3.486
 1077WAT      O 3287   0.663   2.100   3.737
 1077WAT     H1 3288   0.633   2.115   3.647
 1077WAT     H2 3289   0.740   2.044   3.728
 1078WAT      O 3290   1.197   2.580   3.537
 1078WAT     H1 3291   1.199   2.487   3.515
 1078WAT     H2 3292   1.127   2.588   3.600
 1079WAT      O 3293   1.818   2.244   3.471
 1079WAT     H1 3294   1.746   2.303   3.452
 1079WAT     H2 3295   1.871   2.243   3.391
 1080WAT      O 3296   1.814   2.684   2.436
 1080WAT     H1 3297   1.749   2.618   2.464
 1080WAT     H2 3298   1.775   2.724   2.359
 1081WAT      O 3299   1.371   2.417   2.821
 1081WAT     H1 3300   1.407   2.357   2.755
 1081WAT     H2 3301   1.283   2.384   2.838
 1082WAT      O 3302   0.980   2.493   2.562
 1082WAT     H1 3303   1.049   2.547   2.600
 1082WAT     H2 3304   0.901   2.547   2.565
 1083WAT      O 3305   0.194   2.054   2.111
 1083WAT     H1 3306   0.281   2.083   2.139
 1083WAT     H2 3307   0.145   2.136   2.099
 1084WAT      O 3308   0.910   2.193   2.523
 1084WAT     H1 3309   0.956   2.274   2.546
 1084WAT     H2 3310   0.875   2.161   2.606
 1085WAT      O 3311   1.141   2.744   3.246
 1085WAT     H1 3312   1.205   2.765   3.314
 1085WAT     H2 3313   1.177   2.668   3.201
 1086WAT      O 3314   0.500   1.227   2.570
 1086WAT     H1 3315   0.488   1.227   2.665
 1086WAT     H2 3316   0.418   1.261   2.535
 1087WAT      O 3317   1.268   2.544   3.118
 1087WAT     H1 3318   1.332   2.474   3.129
 1087WAT     H2 3319   1.320   2.622   3.100
 1088WAT      O 3320   1.652   2.573   2.090
 1088WAT     H1 3321   1.630   2.501   2.149
 1088WAT     H2 3322   1.613   2.548   2.006
 1089WAT      O 3323   1.445   2.624   3.438
 1089WAT     H1 3324   1.479   2.683   3.506
 1089WAT     H2 3325   1.353   2.611   3.461
 1090WAT      O 3326   0.231   2.976   2.168
 1090WAT     H1 3327   0.267   3.035   2.102
 1090WAT     H2 3328   0.217   3.030   2.245
 1091WAT      O 3329   1.611   2.365   2.256
 1091WAT     H1 3330   1.582   2.411   2.335
 1091WAT     H2 3331   1.690   2.319   2.283
 1092WAT      O 3332   0.229   2.802   3.615
 1092WAT     H1 3333   0.240   2.708   3.601
 1092WAT     H2 3334   0.164   2.829   3.550
 1093WAT      O 3335   0.832   2.714   2.249
 1093WAT     H1 3336   0.831   2.787   2.188
 1093WAT     H2 3337   0.740   2.689   2.259
 1094WAT      O 3338   0.392   2.236   2.324
 1094WAT     H1 3339   0.332   2.310   2.325
 1094WAT     H2 3340   0.440   2.245   2.241
 1095WAT      O 3341   1.350   1.653   3.291
 1095WAT     H1 3342   1.387   1.570   3.324
 1095WAT     H2 3343   1.264   1.659   3.333
 1096WAT      O 3344   1.131   2.720   2.116
 1096WAT     H1 3345   1.141   2.700   2.023
 1096WAT     H2 3346   1.041   2.695   2.136
 1097WAT      O 3347   0.883   1.776   2.514
 1097WAT     H1 3348   0.812   1.823   2.558
 1097WAT     H2 3349   0.912   1.710   2.577
 1098WAT      O 3350   1.046   1.918   3.314
 1098WAT     H1 3351   1.096   1.965   3.380
 1098WAT     H2 3352   1.060   1.826   3.334
 1099WAT      O 3353   1.286   1.448   2.658
 1099WAT     H1 3354   1.274   1.450   2.563
 1099WAT     H2 3355   1.381   1.453   2.670
 1100WAT      O 3356   0.995   2.972   2.585
 1100WAT     H1 3357   1.021   2.968   2.493
 1100WAT     H2 3358   0.900   2.959   2.584
 1101WAT      O 3359   0.704   1.607   2.251
 1101WAT     H1 3360   0.788   1.650   2.245
 1101WAT     H2 3361   0.667   1.638   2.334
 1102WAT      O 3362   1.766   1.540   3.398
 1102WAT     H1 3363   1.716   1.614   3.432
 1102WAT     H2 3364   1.848   1.578   3.366
 1103WAT      O 3365   1.596   2.064   2.743
 1103WAT     H1 3366   1.502   2.065   2.760
 1103WAT     H2 3367   1.627   1.985   2.787
 1104WAT      O 3368   0.593   2.232   2.099
 1104WAT     H1 3369   0.670   2.221   2.155
 1104WAT     H2 3370   0.601   2.162   2.033
 1105WAT      O 3371   0.463   1.975   2.167
 1105WAT     H1 3372   0.471   1.881   2.178
 1105WAT     H2 3373   0.552   2.008   2.178
 1106WAT      O 3374   1.796   2.781   2.910
 1106WAT     H1 3375   1.808   2.863   2.957
 1106WAT     H2 3376   1.883   2.760   2.875
 1107WAT      O 3377   0.543   2.990   2.877
 1107WAT     H1 3378   0.617   2.935   2.904
 1107WAT     H2 3379   0.581   3.077   2.863
 1108WAT      O 3380   0.854   2.908   2.060
 1108WAT     H1 3381   0.933   2.937   2.014
 1108WAT     H2 3382   0.802   2.865   1.992
 1109WAT      O 3383   1.470   2.892   3.652
 1109WAT     H1 3384   1.566   2.884   3.647
 1109WAT     H2 3385   1.456   2.959   3.719
 1110WAT      O 3386   1.759   2.830   2.202
 1110WAT     H1 3387   1.731   2.789   2.121
 1110WAT     H2 3388   1.740   2.923   2.190
 1111WAT      O 3389   0.216   2.158   3.691
 1111WAT     H1 3390   0.266   2.100   3.748
 1111WAT     H2 3391   0.142   2.186   3.744
 1112WAT      O 3392   0.906   2.430   2.046
 1112WAT     H1 3393   0.895   2.368   2.119
 1112WAT     H2 3394   0.889   2.377   1.968
 1113WAT      O 3395   0.921   2.298   3.644
 1113WAT     H1 3396   0.844   2.355   3.635
 1113WAT     H2 3397   0.939   2.269   3.555
 1114WAT      O 3398   1.230   2.336   2.106
 1114WAT     H1 3399   1.175   2.381   2.171
 1114WAT     H2 3400   1.292   2.285   2.159
 1115WAT      O 3401   1.635   2.471   3.700
 1115WAT     H1 3402   1.709   2.505   3.649
 1115WAT     H2 3403   1.559   2.488   3.644
 1116WAT      O 3404   0.797   2.232   2.296
 1116WAT     H1 3405   0.839   2.215   2.380
 1116WAT     H2 3406   0.809   2.151   2.247
 1117WAT      O 3407   0.613   1.830   3.577
 1117WAT     H1 3408   0.560   1.781   3.514
 1117WAT     H2 3409   0.680   1.873   3.523
 1118WAT      O 3410   1.048   2.134   2.021
 1118WAT     H1 3411   1.100   2.063   1.984
 1118WAT     H2 3412   1.113   2.198   2.051
 1119WAT      O 3413   1.503   2.276   3.553
 1119WAT     H1 3414   1.544   2.292   3.638
 1119WAT     H2 3415   1.409   2.289   3.569
 1120WAT      O 3416   1.550   2.010   3.754
 1120WAT     H1 3417   1.608   1.935   3.745
 1120WAT     H2 3418   1.568   2.063   3.676
 1121WAT      O 3419   0.662   1.526   3.585
 1121WAT     H1 3420   0.652   1.465   3.512
 1121WAT     H2 3421   0.604   1.599   3.562
 1122WAT      O 3422   0.938   1.382   3.288
 1122WAT     H1 3423   0.893   1.384   3.204
 1122WAT     H2 3424   0.875   1.342   3.348
 1123WAT      O 3425   0.979   2.272   3.350
 1123WAT     H1 3426   1.021   2.356   3.333
 1123WAT     H2 3427   0.887   2.285   3.327
 1124WAT      O 3428   1.212   2.045   3.489
 1124WAT     H1 3429   1.224   1.985   3.563
 1124WAT     H2 3430   1.298   2.048   3.447
 1125WAT      O 3431   1.446   2.100   3.346
 1125WAT     H1 3432   1.394   2.153   3.286
 1125WAT     H2 3433   1.481   2.163   3.409
 1126WAT      O 3434   0.686   1.839   1.991
 1126WAT     H1 3435   0.666   1.753   2.027
 1126WAT     H2 3436   0.669   1.830   1.897
 1127WAT      O 3437   0.764   2.902   3.462
 1127WAT     H1 3438   0.710   2.975   3.430
 1127WAT     H2 3439   0.789   2.854   3.383
 1128WAT      O 3440   0.889   1.699   3.614
 1128WAT     H1 3441   0.948   1.668   3.683
 1128WAT     H2 3442   0.807   1.652   3.630
 1129WAT      O 3443   1.371   1.661   3.638
 1129WAT     H1 3444   1.302   1.594   3.631
 1129WAT     H2 3445   1.443   1.616   3.682
 1130WAT      O 3446   1.434   1.320   2.244
 1130WAT     H1 3447   1.462   1.236   2.279
 1130WAT     H2 3448   1.357   1.343   2.295
 1131WAT      O 3449   0.566   1.549   1.989
 1131WAT     H1 3450   0.596   1.550   1.899
 1131WAT     H2 3451   0.640   1.514   2.039
 1132WAT      O 3452   1.050   3.026   3.488
 1132WAT     H1 3453   1.042   3.116   3.518
 1132WAT     H2 3454   0.959   2.994   3.485
 1133WAT      O 3455   0.888   1.443   2.088
 1133WAT     H1 3456   0.853   1.376   2.030
 1133WAT     H2 3457   0.908   1.397   2.169
 1134WAT      O 3458   1.104   2.942   2.250
 1134WAT     H1 3459   1.194   2.976   2.252
 1134WAT     H2 3460   1.108   2.870   2.187
 1135WAT      O 3461   0.468   2.480   2.073
 1135WAT     H1 3462   0.512   2.534   2.138
 1135WAT     H2 3463   0.517   2.397   2.074
 1136WAT      O 3464   0.190   2.758   2.818
 1136WAT     H1 3465   0.223   2.672   2.795
 1136WAT     H2 3466   0.233   2.779   2.901
 1137WAT      O 3467   0.649   2.592   2.584
 1137WAT     H1 3468   0.619   2.579   2.674
 1137WAT     H2 3469   0.639   2.506   2.543
 1138WAT      O 3470   0.239   2.845   3.092
 1138WAT     H1 3471   0.195   2.863   3.175
 1138WAT     H2 3472   0.295   2.921   3.078
 1139WAT      O 3473   1.802   2.795   3.521
 1139WAT     H1 3474   1.742   2.801   3.446
 1139WAT     H2 3475   1.815   2.701   3.534
 1140WAT      O 3476   1.926   2.569   2.054
 1140WAT     H1 3477   1.843   2.576   2.101
 1140WAT     H2 3478   1.944   2.659   2.024
 1141WAT      O 3479   1.872   2.244   2.305
 1141WAT     H1 3480   1.948   2.301   2.315
 1141WAT     H2 3481   1.873   2.187   2.382
 1142WAT      O 3482   0.222   2.096   2.728
 1142WAT     H1 3483   0.156   2.069   2.663
 1142WAT     H2 3484   0.306   2.085   2.683
 1143WAT      O 3485   1.973   2.329   2.789
 1143WAT     H1 3486   2.010   2.251   2.748
 1143WAT     H2 3487   2.037   2.398   2.771
 1144WAT      O 3488   1.671   2.468   3.330
 1144WAT     H1 3489   1.589   2.511   3.357
 1144WAT     H2 3490   1.712   2.529   3.269
 1145WAT      O 3491   1.877   2.273   2.020
 1145WAT     H1 3492   1.905   2.364   2.008
 1145WAT     H2 3493   1.858   2.267   2.114
 1146WAT      O 3494   1.867   2.067   2.520
 1146WAT     H1 3495   1.829   1.990   2.476
 1146WAT     H2 3496   1.794   2.105   2.568
 1147WAT      O 3497   0.326   2.135   3.182
 1147WAT     H1 3498   0.362   2.126   3.270
 1147WAT     H2 3499   0.269   2.059   3.172
 1148WAT      O 3500   1.806   1.982   3.483
 1148WAT     H1 3501   1.783   1.959   3.393
 1148WAT     H2 3502   1.832   2.074   3.478
 1149WAT      O 3503   0.281   1.826   3.572
 1149WAT     H1 3504   0.191   1.823   3.606
 1149WAT     H2 3505   0.335   1.846   3.649
 1150WAT      O 3506   1.650   1.504   3.761
 1150WAT     H1 3507   1.737   1.505   3.799
 1150WAT     H2 3508   1.651   1.431   3.700
 1151WAT      O 3509   1.794   1.890   2.850
 1151WAT     H1 3510   1.847   1.840   2.787
 1151WAT     H2 3511   1.853   1.903   2.924
 1152WAT      O 3512   1.812   1.898   3.202
 1152WAT     H1 3513   1.717   1.895   3.213
 1152WAT     H2 3514   1.830   1.989   3.178
 1153WAT      O 3515   0.398   1.723   2.113
 1153WAT     H1 3516   0.469   1.681   2.064
 1153WAT     H2 3517   0.326   1.730   2.050
 1154WAT      O 3518   0.362   1.328   2.017
 1154WAT     H1 3519   0.435   1.382   2.049
 1154WAT     H2 3520   0.390   1.301   1.929
 1155WAT      O 3521   0.331   1.253   3.007
 1155WAT     H1 3522   0.396   1.198   2.963
 1155WAT     H2 3523   0.373   1.279   3.089
 1156WAT      O 3524   1.721   1.273   3.343
 1156WAT     H1 3525   1.785   1.334   3.379
 1156WAT     H2 3526   1.736   1.276   3.248
 1157WAT      O 3527   1.677   2.943   2.683
 1157WAT     H1 3528   1.736   2.911   2.615
 1157WAT     H2 3529   1.702   2.896   2.762
 1158WAT      O 3530   0.307   1.269   3.281
 1158WAT     H1 3531   0.272   1.315   3.358
 1158WAT     H2 3532   0.273   1.180   3.290
 1159WAT      O 3533   0.467   2.586   3.698
 1159WAT     H1 3534   0.463   2.549   3.786
 1159WAT     H2 3535   0.480   2.680   3.712
 1160WAT      O 3536   0.837   2.742   3.258
 1160WAT     H1 3537   0.813   2.769   3.169
 1160WAT     H2 3538   0.931   2.759   3.264
 1161WAT      O 3539   1.058   1.388   3.634
 1161WAT     H1 3540   1.052   1.447   3.709
 1161WAT     H2 3541   1.152   1.377   3.619
 1162WAT      O 3542   1.322   1.354   3.598
 1162WAT     H1 3543   1.383   1.386   3.531
 1162WAT     H2 3544   1.376   1.305   3.659
 1163WAT      O 3545   1.963   2.944   3.338
 1163WAT     H1 3546   1.914   2.983   3.266
 1163WAT     H2 3547   1.902   2.881   3.377
 1164WAT      O 3548   0.374   1.222   3.609
 1164WAT     H1 3549   0.429   1.204   3.533
 1164WAT     H2 3550   0.380   1.143   3.662
 1165WAT      O 3551   0.451   2.881   3.410
 1165WAT     H1 3552   0.392   2.868   3.484
 1165WAT     H2 3553   0.450   2.797   3.363
 1166WAT      O 3554   1.396   1.210   3.230
 1166WAT     H1 3555   1.308   1.243   3.210
 1166WAT     H2 3556   1.385   1.163   3.313
 1167WAT      O 3557   1.486   1.431   3.369
 1167WAT     H1 3558   1.454   1.349   3.331
 1167WAT     H2 3559   1.581   1.427   3.356
 1168WAT      O 3560   1.732   3.008   3.066
 1168WAT     H1 3561   1.686   3.083   3.029
 1168WAT     H2 3562   1.669   2.936   3.060
 1169WAT      O 3563   0.414   2.617   3.305
 1169WAT     H1 3564   0.342   2.555   3.298
 1169WAT     H2 3565   0.420   2.657   3.218
 1170WAT      O 3566   0.775   2.839   2.983
 1170WAT     H1 3567   0.826   2.778   2.931
 1170WAT     H2 3568   0.840   2.889   3.033
 1171WAT      O 3569   1.049   2.928   3.066
 1171WAT     H1 3570   1.077   2.902   2.978
 1171WAT     H2 3571   1.100   2.873   3.125
 1172WAT      O 3572   1.170   1.302   3.124
 1172WAT     H1 3573   1.092   1.349   3.152
 1172WAT     H2 3574   1.141   1.211   3.113
 1173WAT      O 3575   1.626   1.372   2.929
 1173WAT     H1 3576   1.670   1.367   2.844
 1173WAT     H2 3577   1.599   1.464   2.936
 1174WAT      O 3578   1.812   1.335   2.730
 1174WAT     H1 3579   1.806   1.241   2.715
 1174WAT     H2 3580   1.890   1.346   2.784
 1175WAT      O 3581   0.243   2.949   2.626
 1175WAT     H1 3582   0.226   2.886   2.696
 1175WAT     H2 3583   0.156   2.970   2.591
 1176WAT      O 3584   0.305   1.332   2.376
 1176WAT     H1 3585   0.381   1.344   2.319
 1176WAT     H2 3586   0.259   1.416   2.372
 1177WAT      O 3587   0.959   1.544   2.675
 1177WAT     H1 3588   0.878   1.506   2.641
 1177WAT     H2 3589   1.009   1.468   2.705
 1178WAT      O 3590   1.409   1.210   2.799
 1178WAT     H1 3591   1.470   1.267   2.847
 1178WAT     H2 3592   1.335   1.267   2.777
 1179WAT      O 3593   1.724   1.250   2.327
 1179WAT     H1 3594   1.743   1.340   2.353
 1179WAT     H2 3595   1.645   1.227   2.376
 1180WAT      O 3596   0.403   2.818   2.370
 1180WAT     H1 3597   0.351   2.857   2.300
 1180WAT     H2 3598   0.396   2.881   2.443
 1181WAT      O 3599   0.542   1.385   2.230
 1181WAT     H1 3600   0.595   1.306   2.217
 1181WAT     H2 3601   0.605   1.453   2.254
 1182WAT      O 3602   0.761   1.359   2.536
 1182WAT     H1 3603   0.698   1.289   2.552
 1182WAT     H2 3604   0.708   1.435   2.514
 1183WAT      O 3605   1.879   2.974   2.503
 1183WAT     H1 3606   1.896   2.906   2.438
 1183WAT     H2 3607   1.809   3.027   2.463
 1184WAT      O 3608   0.774   1.287   3.779
 1184WAT     H1 3609   0.746   1.337   3.703
 1184WAT     H2 3610   0.812   1.207   3.743
 1185WAT      O 3611   0.663   3.013   2.258
 1185WAT     H1 3612   0.736   2.985   2.203
 1185WAT     H2 3613   0.689   2.989   2.347
 1186WAT      O 3614   0.579   2.625   2.258
 1186WAT     H1 3615   0.516   2.672   2.313
 1186WAT     H2 3616   0.591   2.540   2.302
 1187WAT      O 3617   1.325   2.030   0.873
 1187WAT     H1 3618   1.317   1.939   0.846
 1187WAT     H2 3619   1.283   2.080   0.803
 1188WAT      O 3620   1.138   2.208   1.062
 1188WAT     H1 3621   1.060   2.160   1.090
 1188WAT     H2 3622   1.203   2.140   1.044
 1189WAT      O 3623   0.540   2.239   1.149
 1189WAT     H1 3624   0.456   2.213   1.189
 1189WAT     H2 3625   0.600   2.246   1.223
 1190WAT      O 3626   1.540   2.648   0.939
 1190WAT     H1 3627   1.494   2.571   0.972
 1190WAT     H2 3628   1.621   2.651   0.990
 1191WAT      O 3629   0.538   2.642   1.169
 1191WAT     H1 3630   0.568   2.553   1.151
 1191WAT     H2 3631   0.612   2.698   1.146
 1192WAT      O 3632   0.380   1.735   0.528
 1192WAT     H1 3633   0.292   1.769   0.517
 1192WAT     H2 3634   0.409   1.715   0.438
 1193WAT      O 3635   0.177   1.995   1.116
 1193WAT     H1 3636   0.234   1.918   1.116
 1193WAT     H2 3637   0.177   2.025   1.025
 1194WAT      O 3638   1.163   2.877   0.902
 1194WAT     H1 3639   1.101   2.923   0.844
 1194WAT     H2 3640   1.248   2.892   0.861
 1195WAT      O 3641   1.082   2.475   1.062
 1195WAT     H1 3642   1.075   2.381   1.046
 1195WAT     H2 3643   1.158   2.484   1.119
 1196WAT      O 3644   0.301   1.536   1.295
 1196WAT     H1 3645   0.283   1.446   1.323
 1196WAT     H2 3646   0.261   1.591   1.362
 1197WAT      O 3647   1.185   1.756   1.085
 1197WAT     H1 3648   1.223   1.669   1.074
 1197WAT     H2 3649   1.175   1.790   0.996
 1198WAT      O 3650   0.598   1.593   0.631
 1198WAT     H1 3651   0.609   1.683   0.662
 1198WAT     H2 3652   0.507   1.588   0.602
 1199WAT      O 3653   1.563   1.506   0.778
 1199WAT     H1 3654   1.645   1.457   0.782
 1199WAT     H2 3655   1.567   1.565   0.853
 1200WAT      O 3656   0.363   1.785   1.156
 1200WAT     H1 3657   0.431   1.812   1.217
 1200WAT     H2 3658   0.331   1.702   1.189
 1201WAT      O 3659   0.782   1.890   1.064
 1201WAT     H1 3660   0.833   1.940   1.128
 1201WAT     H2 3661   0.835   1.813   1.047
 1202WAT      O 3662   0.611   1.354   1.491
 1202WAT     H1 3663   0.611   1.406   1.410
 1202WAT     H2 3664   0.528   1.306   1.489
 1203WAT      O 3665   1.249   2.365   0.641
 1203WAT     H1 3666   1.187   2.412   0.584
 1203WAT     H2 3667   1.300   2.435   0.683
 1204WAT      O 3668   0.736   2.318   1.309
 1204WAT     H1 3669   0.702   2.381   1.373
 1204WAT     H2 3670   0.753   2.371   1.231
 1205WAT      O 3671   1.587   1.700   1.055
 1205WAT     H1 3672   1.516   1.728   1.113
 1205WAT     H2 3673   1.623   1.781   1.019
 1206WAT      O 3674   0.579   1.525   1.292
 1206WAT     H1 3675   0.613   1.610   1.262
 1206WAT     H2 3676   0.485   1.540   1.303
 1207WAT      O 3677   0.657   2.515   1.490
 1207WAT     H1 3678   0.719   2.582   1.462
 1207WAT     H2 3679   0.571   2.556   1.481
 1208WAT      O 3680   0.186   2.434   0.378
 1208WAT     H1 3681   0.148   2.483   0.305
 1208WAT     H2 3682   0.212   2.501   0.441
 1209WAT      O 3683   1.749   2.661   1.282
 1209WAT     H1 3684   1.680   2.728   1.281
 1209WAT     H2 3685   1.802   2.681   1.205
 1210WAT      O 3686   1.894   1.644   1.095
 1210WAT     H1 3687   1.799   1.647   1.108
 1210WAT     H2 3688   1.926   1.725   1.133
 1211WAT      O 3689   0.947   1.274   0.924
 1211WAT     H1 3690   0.978   1.219   0.852
 1211WAT     H2 3691   0.854   1.288   0.906
 1212WAT      O 3692   1.502   2.846   1.153
 1212WAT     H1 3693   1.503   2.805   1.066
 1212WAT     H2 3694   1.447   2.923   1.143
 1213WAT      O 3695   1.632   2.518   0.662
 1213WAT     H1 3696   1.621   2.424   0.675
 1213WAT     H2 3697   1.631   2.554   0.751
 1214WAT      O 3698   1.442   2.336   1.286
 1214WAT     H1 3699   1.484   2.315   1.203
 1214WAT     H2 3700   1.514   2.362   1.343
 1215WAT      O 3701   1.186   2.081   0.598
 1215WAT     H1 3702   1.093   2.074   0.621
 1215WAT     H2 3703   1.201   2.174   0.586
 1216WAT      O 3704   1.184   1.708   0.297
 1216WAT     H1 3705   1.091   1.724   0.306
 1216WAT     H2 3706   1.216   1.780   0.243
 1217WAT      O 3707   1.837   2.176   1.295
 1217WAT     H1 3708   1.754   2.183   1.248
 1217WAT     H2 3709   1.896   2.234   1.248
 1218WAT      O 3710   1.589   2.237   0.648
 1218WAT     H1 3711   1.527   2.203   0.583
 1218WAT     H2 3712   1.587   2.172   0.719
 1219WAT      O 3713   1.533   1.855   1.390
 1219WAT     H1 3714   1.492   1.937   1.415
 1219WAT     H2 3715   1.460   1.796   1.370
 1220WAT      O 3716   0.746   2.133   0.876
 1220WAT     H1 3717   0.706   2.062   0.826
 1220WAT     H2 3718   0.755   2.099   0.965
 1221WAT      O 3719   0.793   2.502   1.092
 1221WAT     H1 3720   0.763   2.441   1.024
 1221WAT     H2 3721   0.888   2.506   1.081
 1222WAT      O 3722   0.618   1.811   1.254
 1222WAT     H1 3723   0.673   1.822   1.176
 1222WAT     H2 3724   0.669   1.848   1.325
 1223WAT      O 3725   1.602   2.859   1.459
 1223WAT     H1 3726   1.554   2.940   1.439
 1223WAT     H2 3727   1.534   2.794   1.474
 1224WAT      O 3728   0.702   2.476   1.757
 1224WAT     H1 3729   0.613   2.498   1.782
 1224WAT     H2 3730   0.705   2.488   1.662
 1225WAT      O 3731   1.406   2.161   0.349
 1225WAT     H1 3732   1.450   2.077   0.334
 1225WAT     H2 3733   1.478   2.224   0.357
 1226WAT      O 3734   0.585   2.163   1.615
 1226WAT     H1 3735   0.571   2.250   1.652
 1226WAT     H2 3736   0.497   2.129   1.600
 1227WAT      O 3737   1.217   2.655   0.746
 1227WAT     H1 3738   1.261   2.729   0.704
 1227WAT     H2 3739   1.211   2.679   0.838
 1228WAT      O 3740   0.765   2.757   1.836
 1228WAT     H1 3741   0.762   2.797   1.749
 1228WAT     H2 3742   0.749   2.664   1.820
 1229WAT      O 3743   1.765   1.286   0.180
 1229WAT     H1 3744   1.733   1.295   0.270
 1229WAT     H2 3745   1.841   1.344   0.175
 1230WAT      O 3746   0.416   2.023   0.626
 1230WAT     H1 3747   0.404   2.095   0.565
 1230WAT     H2 3748   0.385   1.946   0.578
 1231WAT      O 3749   1.960   2.835   1.965
 1231WAT     H1 3750   2.008   2.883   2.033
 1231WAT     H2 3751   2.022   2.829   1.893
 1232WAT      O 3752   0.180   2.340   1.207
 1232WAT     H1 3753   0.188   2.353   1.112
 1232WAT     H2 3754   0.242   2.269   1.226
 1233WAT      O 3755   0.305   2.510   0.848
 1233WAT     H1 3756   0.264   2.524   0.762
 1233WAT     H2 3757   0.394   2.481   0.827
 1234WAT      O 3758   1.900   2.554   1.681
 1234WAT     H1 3759   1.913   2.531   1.590
 1234WAT     H2 3760   1.905   2.471   1.729
 1235WAT      O 3761   1.287   2.925   1.538
 1235WAT     H1 3762   1.338   2.916   1.619
 1235WAT     H2 3763   1.202   2.959   1.568
 1236WAT      O 3764   1.484   2.953   0.481
 1236WAT     H1 3765   1.468   2.924   0.571
 1236WAT     H2 3766   1.468   2.876   0.428
 1237WAT      O 3767   0.732   2.931   0.659
 1237WAT     H1 3768   0.714   2.840   0.638
 1237WAT     H2 3769   0.647   2.967   0.683
 1238WAT      O 3770   1.454   2.704   0.337
 1238WAT     H1 3771   1.385   2.704   0.271
 1238WAT     H2 3772   1.529   2.662   0.294
 1239WAT      O 3773   1.411   2.867   0.745
 1239WAT     H1 3774   1.456   2.789   0.776
 1239WAT     H2 3775   1.445   2.938   0.799
 1240WAT      O 3776   0.186   2.444   1.461
 1240WAT     H1 3777   0.202   2.397   1.379
 1240WAT     H2 3778   0.232   2.393   1.527
 1241WAT      O 3779   0.663   1.357   0.964
 1241WAT     H1 3780   0.619   1.435   0.931
 1241WAT     H2 3781   0.719   1.389   1.035
 1242WAT      O 3782   1.092   1.644   1.525
 1242WAT     H1 3783   1.046   1.665   1.606
 1242WAT     H2 3784   1.052   1.562   1.494
 1243WAT      O 3785   0.975   1.319   0.452
 1243WAT     H1 3786   0.912   1.319   0.525
 1243WAT     H2 3787   0.966   1.232   0.413
 1244WAT      O 3788   0.867   1.411   1.150
 1244WAT     H1 3789   0.897   1.502   1.142
 1244WAT     H2 3790   0.922   1.363   1.089
 1245WAT      O 3791   0.642   1.869   0.737
 1245WAT     H1 3792   0.620   1.848   0.827
 1245WAT     H2 3793   0.564   1.913   0.702
 1246WAT      O 3794   1.365   1.870   0.597
 1246WAT     H1 3795   1.305   1.942   0.579
 1246WAT     H2 3796   1.420   1.864   0.519
 1247WAT      O 3797   0.886   1.959   1.804
 1247WAT     H1 3798   0.877   1.865   1.789
 1247WAT     H2 3799   0.970   1.981   1.764
 1248WAT      O 3800   1.226   1.734   0.800
 1248WAT     H1 3801   1.265   1.765   0.719
 1248WAT     H2 3802   1.262   1.646   0.811
 1249WAT      O 3803   0.399   1.600   1.619
 1249WAT     H1 3804   0.360   1.685   1.640
 1249WAT     H2 3805   0.330   1.537   1.638
 1250WAT      O 3806   1.057   1.609   1.926
 1250WAT     H1 3807   0.988   1.589   1.989
 1250WAT     H2 3808   1.131   1.637   1.979
 1251WAT      O 3809   1.284   1.993   1.209
 1251WAT     H1 3810   1.211   2.044   1.244
 1251WAT     H2 3811   1.245   1.911   1.179
 1252WAT      O 3812   0.928   1.660   1.050
 1252WAT     H1 3813   0.928   1.616   0.965
 1252WAT     H2 3814   1.018   1.692   1.061
 1253WAT      O 3815   0.513   1.648   0.946
 1253WAT     H1 3816   0.479   1.696   1.022
 1253WAT     H2 3817   0.437   1.603   0.910
 1254WAT      O 3818   0.934   1.760   0.349
 1254WAT     H1 3819   0.946   1.756   0.444
 1254WAT     H2 3820   0.896   1.847   0.334
 1255WAT      O 3821   1.331   1.538   1.151
 1255WAT     H1 3822   1.332   1.583   1.235
 1255WAT     H2 3823   1.306   1.448   1.172
 1256WAT      O 3824   0.836   1.991   0.289
 1256WAT     H1 3825   0.779   1.947   0.226
 1256WAT     H2 3826   0.906   2.027   0.236
 1257WAT      O 3827   0.343   2.381   1.677
 1257WAT     H1 3828   0.305   2.317   1.736
 1257WAT     H2 3829   0.374   2.452   1.734
 1258WAT      O 3830   0.958   2.066   1.225
 1258WAT     H1 3831   0.995   2.019   1.299
 1258WAT     H2 3832   0.939   2.154   1.259
 1259WAT      O 3833   0.245   1.541   0.838
 1259WAT     H1 3834   0.216   1.504   0.921
 1259WAT     H2 3835   0.238   1.467   0.776
 1260WAT      O 3836   0.737   1.970   1.456
 1260WAT     H1 3837   0.707   2.058   1.479
 1260WAT     H2 3838   0.833   1.976   1.460
 1261WAT      O 3839   0.590   2.391   0.516
 1261WAT     H1 3840   0.513   2.337   0.500
 1261WAT     H2 3841   0.663   2.339   0.482
 1262WAT      O 3842   1.666   2.291   1.095
 1262WAT     H1 3843   1.738   2.340   1.056
 1262WAT     H2 3844   1.646   2.223   1.031
 1263WAT      O 3845   1.212   1.430   0.510
 1263WAT     H1 3846   1.131   1.380   0.502
 1263WAT     H2 3847   1.193   1.514   0.468
 1264WAT      O 3848   1.204   2.298   1.684
 1264WAT     H1 3849   1.197   2.206   1.659
 1264WAT     H2 3850   1.141   2.307   1.756
 1265WAT      O 3851   1.483   1.867   0.339
 1265WAT     H1 3852   1.572   1.898   0.322
 1265WAT     H2 3853   1.481   1.780   0.300
 1266WAT      O 3854   0.594   2.358   0.880
 1266WAT     H1 3855   0.646   2.277   0.875
 1266WAT     H2 3856   0.549   2.352   0.964
 1267WAT      O 3857   1.083   2.484   0.407
 1267WAT     H1 3858   1.117   2.559   0.358
 1267WAT     H2 3859   1.000   2.516   0.443
 1268WAT      O 3860   0.343   2.054   1.571
 1268WAT     H1 3861   0.307   2.121   1.630
 1268WAT     H2 3862   0.313   1.971   1.608
 1269WAT      O 3863   0.663   2.100   1.860
 1269WAT     H1 3864   0.633   2.115   1.770
 1269WAT     H2 3865   0.740   2.044   1.850
 1270WAT      O 3866   1.197   2.580   1.659
 1270WAT     H1 3867   1.199   2.487   1.637
 1270WAT     H2 3868   1.127   2.588   1.723
 1271WAT      O 3869   1.711   1.998   0.286
 1271WAT     H1 3870   1.702   2.041   0.201
 1271WAT     H2 3871   1.783   2.044   0.329
 1272WAT      O 3872   1.818   2.244   1.594
 1272WAT     H1 3873   1.746   2.303   1.574
 1272WAT     H2 3874   1.871   2.243   1.514
 1273WAT      O 3875   1.814   2.684   0.559
 1273WAT     H1 3876   1.749   2.618   0.586
 1273WAT     H2 3877   1.775   2.724   0.481
 1274WAT      O 3878   1.371   2.417   0.944
 1274WAT     H1 3879   1.407   2.357   0.878
 1274WAT     H2 3880   1.283   2.384   0.961
 1275WAT      O 3881   0.980   2.493   0.684
 1275WAT     H1 3882   1.049   2.547   0.722
 1275WAT     H2 3883   0.901   2.547   0.688
 1276WAT      O 3884   0.194   2.054   0.234
 1276WAT     H1 3885   0.281   2.083   0.262
 1276WAT     H2 3886   0.145   2.136   0.222
 1277WAT      O 3887   0.910   2.193   0.646
 1277WAT     H1 3888   0.956   2.274   0.668
 1277WAT     H2 3889   0.875   2.161   0.729
 1278WAT      O 3890   1.141   2.744   1.369
 1278WAT     H1 3891   1.205   2.765   1.436
 1278WAT     H2 3892   1.177   2.668   1.323
 1279WAT      O 3893   0.500   1.227   0.693
 1279WAT     H1 3894   0.488   1.227   0.788
 1279WAT     H2 3895   0.418   1.261   0.658
 1280WAT      O 3896   1.268   2.544   1.240
 1280WAT     H1 3897   1.332   2.474   1.252
 1280WAT     H2 3898   1.320   2.622   1.222
 1281WAT      O 3899   1.445   2.624   1.561
 1281WAT     H1 3900   1.479   2.683   1.628
 1281WAT     H2 3901   1.353   2.611   1.584
 1282WAT      O 3902   0.231   2.976   0.290
 1282WAT     H1 3903   0.267   3.035   0.225
 1282WAT     H2 3904   0.217   3.030   0.368
 1283WAT      O 3905   1.611   2.365   0.379
 1283WAT     H1 3906   1.582   2.411   0.458
 1283WAT     H2 3907   1.690   2.319   0.406
 1284WAT      O 3908   0.229   2.802   1.738
 1284WAT     H1 3909   0.240   2.708   1.724
 1284WAT     H2 3910   0.164   2.829   1.673
 1285WAT      O 3911   1.028   2.629   1.878
 1285WAT     H1 3912   0.996   2.557   1.932
 1285WAT     H2 3913   0.961   2.697   1.885
 1286WAT      O 3914   0.832   2.714   0.372
 1286WAT     H1 3915   0.831   2.787   0.310
 1286WAT     H2 3916   0.740   2.689   0.381
 1287WAT      O 3917   0.392   2.236   0.446
 1287WAT     H1 3918   0.332   2.310   0.447
 1287WAT     H2 3919   0.440   2.245   0.364
 1288WAT      O 3920   1.350   1.653   1.414
 1288WAT     H1 3921   1.387   1.570   1.447
 1288WAT     H2 3922   1.264   1.659   1.455
 1289WAT      O 3923   1.686   1.548   0.495
 1289WAT     H1 3924   1.623   1.559   0.423
 1289WAT     H2 3925   1.637   1.570   0.574
 1290WAT      O 3926   1.131   2.720   0.238
 1290WAT     H1 3927   1.141   2.700   0.145
 1290WAT     H2 3928   1.041   2.695   0.259
 1291WAT      O 3929   0.883   1.776   0.636
 1291WAT     H1 3930   0.812   1.823   0.681
 1291WAT     H2 3931   0.912   1.710   0.700
 1292WAT      O 3932   1.046   1.918   1.436
 1292WAT     H1 3933   1.096   1.965   1.503
 1292WAT     H2 3934   1.060   1.826   1.457
 1293WAT      O 3935   1.286   1.448   0.780
 1293WAT     H1 3936   1.274   1.450   0.685
 1293WAT     H2 3937   1.381   1.453   0.792
 1294WAT      O 3938   0.995   2.972   0.708
 1294WAT     H1 3939   1.021   2.968   0.615
 1294WAT     H2 3940   0.900   2.959   0.707
 1295WAT      O 3941   0.704   1.607   0.374
 1295WAT     H1 3942   0.788   1.650   0.367
 1295WAT     H2 3943   0.667   1.638   0.457
 1296WAT      O 3944   1.596   2.064   0.865
 1296WAT     H1 3945   1.502   2.065   0.883
 1296WAT     H2 3946   1.627   1.985   0.910
 1297WAT      O 3947   0.593   2.232   0.221
 1297WAT     H1 3948   0.670   2.221   0.278
 1297WAT     H2 3949   0.601   2.162   0.156
 1298WAT      O 3950   0.463   1.975   0.290
 1298WAT     H1 3951   0.471   1.881   0.301
 1298WAT     H2 3952   0.552   2.008   0.300
 1299WAT      O 3953   1.796   2.781   1.033
 1299WAT     H1 3954   1.808   2.863   1.080
 1299WAT     H2 3955   1.883   2.760   0.998
 1300WAT      O 3956   0.543   2.990   1.000
 1300WAT     H1 3957   0.617   2.935   1.027
 1300WAT     H2 3958   0.581   3.077   0.986
 1301WAT      O 3959   0.444   2.909   1.919
 1301WAT     H1 3960   0.524   2.941   1.960
 1301WAT     H2 3961   0.392   2.873   1.991
 1302WAT      O 3962   1.327   2.520   1.914
 1302WAT     H1 3963   1.267   2.522   1.839
 1302WAT     H2 3964   1.297   2.446   1.967
 1303WAT      O 3965   1.470   2.892   1.775
 1303WAT     H1 3966   1.566   2.884   1.770
 1303WAT     H2 3967   1.456   2.959   1.842
 1304WAT      O 3968   1.759   2.830   0.325
 1304WAT     H1 3969   1.731   2.789   0.243
 1304WAT     H2 3970   1.740   2.923   0.313
 1305WAT      O 3971   0.216   2.158   1.813
 1305WAT     H1 3972   0.266   2.100   1.870
 1305WAT     H2 3973   0.142   2.186   1.867
 1306WAT      O 3974   0.921   2.298   1.767
 1306WAT     H1 3975   0.844   2.355   1.758
 1306WAT     H2 3976   0.939   2.269   1.677
 1307WAT      O 3977   1.230   2.336   0.229
 1307WAT     H1 3978   1.175   2.381   0.293
 1307WAT     H2 3979   1.292   2.285   0.281
 1308WAT      O 3980   1.635   2.471   1.822
 1308WAT     H1 3981   1.709   2.505   1.772
 1308WAT     H2 3982   1.559   2.488   1.767
 1309WAT      O 3983   0.419   1.972   1.903
 1309WAT     H1 3984   0.423   1.942   1.993
 1309WAT     H2 3985   0.504   2.012   1.887
 1310WAT      O 3986   0.797   2.232   0.419
 1310WAT     H1 3987   0.839   2.215   0.503
 1310WAT     H2 3988   0.809   2.151   0.369
 1311WAT      O 3989   0.613   1.830   1.699
 1311WAT     H1 3990   0.560   1.781   1.637
 1311WAT     H2 3991   0.680   1.873   1.646
 1312WAT      O 3992   1.503   2.276   1.676
 1312WAT     H1 3993   1.544   2.292   1.761
 1312WAT     H2 3994   1.409   2.289   1.692
 1313WAT      O 3995   0.662   1.526   1.707
 1313WAT     H1 3996   0.652   1.465   1.635
 1313WAT     H2 3997   0.604   1.599   1.685
 1314WAT      O 3998   0.938   1.382   1.411
 1314WAT     H1 3999   0.893   1.384   1.326
 1314WAT     H2 4000   0.875   1.342   1.470
 1315WAT      O 4001   0.979   2.272   1.473
 1315WAT     H1 4002   1.021   2.356   1.456
 1315WAT     H2 4003   0.887   2.285   1.450
 1316WAT      O 4004   1.212   2.045   1.611
 1316WAT     H1 4005   1.224   1.985   1.685
 1316WAT     H2 4006   1.298   2.048   1.569
 1317WAT      O 4007   1.446   2.100   1.469
 1317WAT     H1 4008   1.394   2.153   1.408
 1317WAT     H2 4009   1.481   2.163   1.532
 1318WAT      O 4010   0.764   2.902   1.584
 1318WAT     H1 4011   0.710   2.975   1.552
 1318WAT     H2 4012   0.789   2.854   1.505
 1319WAT      O 4013   0.889   1.699   1.737
 1319WAT     H1 4014   0.948   1.668   1.806
 1319WAT     H2 4015   0.807   1.652   1.752
 1320WAT      O 4016   1.434   1.320   0.366
 1320WAT     H1 4017   1.462   1.236   0.402
 1320WAT     H2 4018   1.357   1.343   0.418
 1321WAT      O 4019   1.050   3.026   1.610
 1321WAT     H1 4020   1.042   3.116   1.641
 1321WAT     H2 4021   0.959   2.994   1.607
 1322WAT      O 4022   0.888   1.443   0.211
 1322WAT     H1 4023   0.853   1.376   0.153
 1322WAT     H2 4024   0.908   1.397   0.292
 1323WAT      O 4025   1.104   2.942   0.372
 1323WAT     H1 4026   1.194   2.976   0.375
 1323WAT     H2 4027   1.108   2.870   0.310
 1324WAT      O 4028   0.468   2.480   0.195
 1324WAT     H1 4029   0.512   2.534   0.261
 1324WAT     H2 4030   0.517   2.397   0.196
 1325WAT      O 4031   0.190   2.758   0.941
 1325WAT     H1 4032   0.223   2.672   0.917
 1325WAT     H2 4033   0.233   2.779   1.024
 1326WAT      O 4034   0.649   2.592   0.707
 1326WAT     H1 4035   0.619   2.579   0.797
 1326WAT     H2 4036   0.639   2.506   0.666
 1327WAT      O 4037   0.239   2.845   1.214
 1327WAT     H1 4038   0.195   2.863   1.298
 1327WAT     H2 4039   0.295   2.921   1.200
 1328WAT      O 4040   1.802   2.795   1.643
 1328WAT     H1 4041   1.742   2.801   1.569
 1328WAT     H2 4042   1.815   2.701   1.656
 1329WAT      O 4043   1.926   2.569   0.177
 1329WAT     H1 4044   1.843   2.576   0.224
 1329WAT     H2 4045   1.944   2.659   0.146
 1330WAT      O 4046   1.872   2.244   0.427
 1330WAT     H1 4047   1.948   2.301   0.438
 1330WAT     H2 4048   1.873   2.187   0.504
 1331WAT      O 4049   0.222   2.096   0.850
 1331WAT     H1 4050   0.156   2.069   0.786
 1331WAT     H2 4051   0.306   2.085   0.805
 1332WAT      O 4052   1.973   2.329   0.912
 1332WAT     H1 4053   2.010   2.251   0.871
 1332WAT     H2 4054   2.037   2.398   0.894
 1333WAT      O 4055   1.671   2.468   1.453
 1333WAT     H1 4056   1.589   2.511   1.479
 1333WAT     H2 4057   1.712   2.529   1.392
 1334WAT      O 4058   1.517   1.576   0.272
 1334WAT     H1 4059   1.559   1.557   0.188
 1334WAT     H2 4060   1.486   1.491   0.303
 1335WAT      O 4061   1.867   2.067   0.642
 1335WAT     H1 4062   1.829   1.990   0.599
 1335WAT     H2 4063   1.794   2.105   0.691
 1336WAT      O 4064   0.326   2.135   1.304
 1336WAT     H1 4065   0.362   2.126   1.392
 1336WAT     H2 4066   0.269   2.059   1.294
 1337WAT      O 4067   0.281   1.826   1.695
 1337WAT     H1 4068   0.191   1.823   1.729
 1337WAT     H2 4069   0.335   1.846   1.771
 1338WAT      O 4070   1.794   1.890   0.972
 1338WAT     H1 4071   1.847   1.840   0.909
 1338WAT     H2 4072   1.853   1.903   1.047
 1339WAT      O 4073   1.812   1.898   1.324
 1339WAT     H1 4074   1.717   1.895   1.336
 1339WAT     H2 4075   1.830   1.989   1.301
 1340WAT      O 4076   0.398   1.723   0.235
 1340WAT     H1 4077   0.469   1.681   0.187
 1340WAT     H2 4078   0.326   1.730   0.172
 1341WAT      O 4079   1.743   1.815   0.566
 1341WAT     H1 4080   1.793   1.792   0.645
 1341WAT     H2 4081   1.723   1.731   0.525
 1342WAT      O 4082   0.331   1.253   1.130
 1342WAT     H1 4083   0.396   1.198   1.086
 1342WAT     H2 4084   0.373   1.279   1.212
 1343WAT      O 4085   1.886   1.679   0.820
 1343WAT     H1 4086   1.875   1.663   0.913
 1343WAT     H2 4087   1.962   1.626   0.795
 1344WAT      O 4088   1.721   1.273   1.465
 1344WAT     H1 4089   1.785   1.334   1.502
 1344WAT     H2 4090   1.736   1.276   1.371
 1345WAT      O 4091   1.982   1.539   0.406
 1345WAT     H1 4092   1.903   1.533   0.459
 1345WAT     H2 4093   2.003   1.633   0.405
 1346WAT      O 4094   1.677   2.943   0.806
 1346WAT     H1 4095   1.736   2.911   0.738
 1346WAT     H2 4096   1.702   2.896   0.885
 1347WAT      O 4097   0.307   1.269   1.404
 1347WAT     H1 4098   0.272   1.315   1.481
 1347WAT     H2 4099   0.273   1.180   1.412
 1348WAT      O 4100   0.467   2.586   1.820
 1348WAT     H1 4101   0.463   2.549   1.909
 1348WAT     H2 4102   0.480   2.680   1.835
 1349WAT      O 4103   0.837   2.742   1.381
 1349WAT     H1 4104   0.813   2.769   1.292
 1349WAT     H2 4105   0.931   2.759   1.386
 1350WAT      O 4106   1.058   1.388   1.756
 1350WAT     H1 4107   1.052   1.447   1.831
 1350WAT     H2 4108   1.152   1.377   1.742
 1351WAT      O 4109   1.322   1.354   1.720
 1351WAT     H1 4110   1.383   1.386   1.654
 1351WAT     H2 4111   1.376   1.305   1.782
 1352WAT      O 4112   1.963   2.944   1.461
 1352WAT     H1 4113   1.914   2.983   1.389
 1352WAT     H2 4114   1.902   2.881   1.500
 1353WAT      O 4115   0.374   1.222   1.731
 1353WAT     H1 4116   0.429   1.204   1.655
 1353WAT     H2 4117   0.380   1.143   1.785
 1354WAT      O 4118   0.451   2.881   1.532
 1354WAT     H1 4119   0.392   2.868   1.606
 1354WAT     H2 4120   0.450   2.797   1.486
 1355WAT      O 4121   1.396   1.210   1.353
 1355WAT     H1 4122   1.308   1.243   1.332
 1355WAT     H2 4123   1.385   1.163   1.435
 1356WAT      O 4124   1.732   3.008   1.189
 1356WAT     H1 4125   1.686   3.083   1.151
 1356WAT     H2 4126   1.669   2.936   1.183
 1357WAT      O 4127   0.414   2.617   1.428
 1357WAT     H1 4128   0.342   2.555   1.421
 1357WAT     H2 4129   0.420   2.657   1.341
 1358WAT      O 4130   0.775   2.839   1.106
 1358WAT     H1 4131   0.826   2.778   1.054
 1358WAT     H2 4132   0.840   2.889   1.155
 1359WAT      O 4133   1.049   2.928   1.189
 1359WAT     H1 4134   1.077   2.902   1.101
 1359WAT     H2 4135   1.100   2.873   1.248
 1360WAT      O 4136   1.170   1.302   1.247
 1360WAT     H1 4137   1.092   1.349   1.275
 1360WAT     H2 4138   1.141   1.211   1.236
 1361WAT      O 4139   1.626   1.372   1.051
 1361WAT     H1 4140   1.670   1.367   0.966
 1361WAT     H2 4141   1.599   1.464   1.058
 1362WAT      O 4142   1.812   1.335   0.852
 1362WAT     H1 4143   1.806   1.241   0.838
 1362WAT     H2 4144   1.890   1.346   0.907
 1363WAT      O 4145   0.243   2.949   0.749
 1363WAT     H1 4146   0.226   2.886   0.818
 1363WAT     H2 4147   0.156   2.970   0.713
 1364WAT      O 4148   0.305   1.332   0.499
 1364WAT     H1 4149   0.381   1.344   0.441
 1364WAT     H2 4150   0.259   1.416   0.494
 1365WAT      O 4151   0.959   1.544   0.798
 1365WAT     H1 4152   0.878   1.506   0.764
 1365WAT     H2 4153   1.009   1.468   0.828
 1366WAT      O 4154   1.409   1.210   0.922
 1366WAT     H1 4155   1.470   1.267   0.969
 1366WAT     H2 4156   1.335   1.267   0.899
 1367WAT      O 4157   1.724   1.250   0.449
 1367WAT     H1 4158   1.743   1.340   0.476
 1367WAT     H2 4159   1.645   1.227   0.498
 1368WAT      O 4160   0.403   2.818   0.493
 1368WAT     H1 4161   0.351   2.857   0.423
 1368WAT     H2 4162   0.396   2.881   0.565
 1369WAT      O 4163   0.542   1.385   0.353
 1369WAT     H1 4164   0.595   1.306   0.340
 1369WAT     H2 4165   0.605   1.453   0.376
 1370WAT      O 4166   0.761   1.359   0.658
 1370WAT     H1 4167   0.698   1.289   0.675
 1370WAT     H2 4168   0.708   1.435   0.637
 1371WAT      O 4169   1.055   3.020   1.925
 1371WAT     H1 4170   1.148   2.997   1.930
 1371WAT     H2 4171   1.054   3.103   1.877
 1372WAT      O 4172   1.879   2.974   0.625
 1372WAT     H1 4173   1.896   2.906   0.561
 1372WAT     H2 4174   1.809   3.027   0.586
 1373WAT      O 4175   0.774   1.287   1.902
 1373WAT     H1 4176   0.746   1.337   1.825
 1373WAT     H2 4177   0.812   1.207   1.865
 1374WAT      O 4178   0.663   3.013   0.381
 1374WAT     H1 4179   0.736   2.985   0.326
 1374WAT     H2 4180   0.689   2.989   0.469
 1375WAT      O 4181   0.579   2.625   0.381
 1375WAT     H1 4182   0.516   2.672   0.436
 1375WAT     H2 4183   0.591   2.540   0.424
 1376WAT      O 4184   1.434   1.228   1.960
 1376WAT     H1 4185   1.423   1.260   2.049
 1376WAT     H2 4186   1.516   1.268   1.930
 1377WAT      O 4187   1.712   2.943   1.908
 1377WAT     H1 4188   1.791   2.893   1.887
 1377WAT     H2 4189   1.741   3.011   1.969
 1378WAT      O 4190   1.138   0.330   2.939
 1378WAT     H1 4191   1.060   0.282   2.968
 1378WAT     H2 4192   1.203   0.262   2.922
 1379WAT      O 4193   0.540   0.362   3.027
 1379WAT     H1 4194   0.456   0.336   3.067
 1379WAT     H2 4195   0.600   0.369   3.100
 1380WAT      O 4196   1.540   0.771   2.817
 1380WAT     H1 4197   1.494   0.694   2.850
 1380WAT     H2 4198   1.621   0.774   2.867
 1381WAT      O 4199   0.538   0.765   3.046
 1381WAT     H1 4200   0.568   0.676   3.028
 1381WAT     H2 4201   0.612   0.821   3.024
 1382WAT      O 4202   1.163   1.000   2.779
 1382WAT     H1 4203   1.101   1.045   2.722
 1382WAT     H2 4204   1.248   1.015   2.739
 1383WAT      O 4205   1.082   0.598   2.940
 1383WAT     H1 4206   1.075   0.504   2.924
 1383WAT     H2 4207   1.158   0.607   2.997
 1384WAT      O 4208   1.249   0.488   2.518
 1384WAT     H1 4209   1.187   0.534   2.462
 1384WAT     H2 4210   1.300   0.557   2.560
 1385WAT      O 4211   0.736   0.441   3.186
 1385WAT     H1 4212   0.702   0.503   3.250
 1385WAT     H2 4213   0.753   0.493   3.108
 1386WAT      O 4214   0.657   0.637   3.368
 1386WAT     H1 4215   0.719   0.705   3.339
 1386WAT     H2 4216   0.571   0.678   3.358
 1387WAT      O 4217   0.186   0.556   2.256
 1387WAT     H1 4218   0.148   0.605   2.183
 1387WAT     H2 4219   0.212   0.624   2.319
 1388WAT      O 4220   1.749   0.784   3.159
 1388WAT     H1 4221   1.680   0.851   3.158
 1388WAT     H2 4222   1.802   0.804   3.083
 1389WAT      O 4223   1.502   0.968   3.031
 1389WAT     H1 4224   1.503   0.928   2.944
 1389WAT     H2 4225   1.447   1.046   3.020
 1390WAT      O 4226   1.632   0.640   2.540
 1390WAT     H1 4227   1.621   0.546   2.552
 1390WAT     H2 4228   1.631   0.677   2.628
 1391WAT      O 4229   1.442   0.459   3.163
 1391WAT     H1 4230   1.484   0.437   3.080
 1391WAT     H2 4231   1.514   0.484   3.221
 1392WAT      O 4232   1.186   0.203   2.475
 1392WAT     H1 4233   1.093   0.197   2.498
 1392WAT     H2 4234   1.201   0.297   2.464
 1393WAT      O 4235   1.837   0.298   3.173
 1393WAT     H1 4236   1.754   0.305   3.125
 1393WAT     H2 4237   1.896   0.357   3.126
 1394WAT      O 4238   1.589   0.359   2.525
 1394WAT     H1 4239   1.527   0.326   2.461
 1394WAT     H2 4240   1.587   0.295   2.596
 1395WAT      O 4241   0.746   0.256   2.753
 1395WAT     H1 4242   0.706   0.185   2.704
 1395WAT     H2 4243   0.755   0.221   2.842
 1396WAT      O 4244   0.793   0.624   2.970
 1396WAT     H1 4245   0.763   0.564   2.902
 1396WAT     H2 4246   0.888   0.628   2.959
 1397WAT      O 4247   1.602   0.982   3.336
 1397WAT     H1 4248   1.554   1.062   3.317
 1397WAT     H2 4249   1.534   0.917   3.351
 1398WAT      O 4250   0.702   0.598   3.635
 1398WAT     H1 4251   0.613   0.621   3.660
 1398WAT     H2 4252   0.705   0.611   3.540
 1399WAT      O 4253   1.406   0.283   2.226
 1399WAT     H1 4254   1.450   0.199   2.212
 1399WAT     H2 4255   1.478   0.346   2.235
 1400WAT      O 4256   0.585   0.285   3.492
 1400WAT     H1 4257   0.571   0.373   3.529
 1400WAT     H2 4258   0.497   0.251   3.478
 1401WAT      O 4259   1.217   0.777   2.623
 1401WAT     H1 4260   1.261   0.851   2.582
 1401WAT     H2 4261   1.211   0.801   2.715
 1402WAT      O 4262   0.765   0.880   3.713
 1402WAT     H1 4263   0.762   0.920   3.627
 1402WAT     H2 4264   0.749   0.787   3.697
 1403WAT      O 4265   0.180   0.462   3.084
 1403WAT     H1 4266   0.188   0.476   2.990
 1403WAT     H2 4267   0.242   0.392   3.103
 1404WAT      O 4268   0.305   0.632   2.725
 1404WAT     H1 4269   0.264   0.647   2.640
 1404WAT     H2 4270   0.394   0.604   2.705
 1405WAT      O 4271   1.900   0.677   3.559
 1405WAT     H1 4272   1.913   0.653   3.467
 1405WAT     H2 4273   1.905   0.594   3.606
 1406WAT      O 4274   1.287   1.047   3.416
 1406WAT     H1 4275   1.338   1.038   3.496
 1406WAT     H2 4276   1.202   1.082   3.445
 1407WAT      O 4277   1.484   1.076   2.359
 1407WAT     H1 4278   1.468   1.047   2.448
 1407WAT     H2 4279   1.468   0.998   2.305
 1408WAT      O 4280   0.732   1.054   2.536
 1408WAT     H1 4281   0.714   0.962   2.515
 1408WAT     H2 4282   0.647   1.090   2.560
 1409WAT      O 4283   1.454   0.827   2.215
 1409WAT     H1 4284   1.385   0.827   2.149
 1409WAT     H2 4285   1.529   0.784   2.172
 1410WAT      O 4286   1.411   0.989   2.622
 1410WAT     H1 4287   1.456   0.911   2.654
 1410WAT     H2 4288   1.445   1.060   2.677
 1411WAT      O 4289   0.186   0.567   3.338
 1411WAT     H1 4290   0.202   0.520   3.256
 1411WAT     H2 4291   0.232   0.516   3.405
 1412WAT      O 4292   0.343   0.504   3.554
 1412WAT     H1 4293   0.305   0.440   3.614
 1412WAT     H2 4294   0.374   0.574   3.611
 1413WAT      O 4295   0.590   0.513   2.394
 1413WAT     H1 4296   0.513   0.459   2.378
 1413WAT     H2 4297   0.663   0.462   2.360
 1414WAT      O 4298   1.666   0.413   2.973
 1414WAT     H1 4299   1.738   0.463   2.934
 1414WAT     H2 4300   1.646   0.345   2.908
 1415WAT      O 4301   1.204   0.420   3.562
 1415WAT     H1 4302   1.197   0.328   3.536
 1415WAT     H2 4303   1.141   0.430   3.633
 1416WAT      O 4304   0.594   0.480   2.757
 1416WAT     H1 4305   0.646   0.400   2.752
 1416WAT     H2 4306   0.549   0.474   2.842
 1417WAT      O 4307   1.083   0.607   2.285
 1417WAT     H1 4308   1.117   0.681   2.235
 1417WAT     H2 4309   1.000   0.638   2.321
 1418WAT      O 4310   0.663   0.223   3.737
 1418WAT     H1 4311   0.633   0.237   3.647
 1418WAT     H2 4312   0.740   0.167   3.728
 1419WAT      O 4313   1.197   0.702   3.537
 1419WAT     H1 4314   1.199   0.609   3.515
 1419WAT     H2 4315   1.127   0.711   3.600
 1420WAT      O 4316   1.818   0.367   3.471
 1420WAT     H1 4317   1.746   0.426   3.452
 1420WAT     H2 4318   1.871   0.366   3.391
 1421WAT      O 4319   1.814   0.806   2.436
 1421WAT     H1 4320   1.749   0.741   2.464
 1421WAT     H2 4321   1.775   0.847   2.359
 1422WAT      O 4322   1.371   0.539   2.821
 1422WAT     H1 4323   1.407   0.479   2.755
 1422WAT     H2 4324   1.283   0.507   2.838
 1423WAT      O 4325   0.980   0.615   2.562
 1423WAT     H1 4326   1.049   0.670   2.600
 1423WAT     H2 4327   0.901   0.670   2.565
 1424WAT      O 4328   0.194   0.177   2.111
 1424WAT     H1 4329   0.281   0.205   2.139
 1424WAT     H2 4330   0.145   0.258   2.099
 1425WAT      O 4331   0.910   0.316   2.523
 1425WAT     H1 4332   0.956   0.397   2.546
 1425WAT     H2 4333   0.875   0.284   2.606
 1426WAT      O 4334   1.141   0.867   3.246
 1426WAT     H1 4335   1.205   0.887   3.314
 1426WAT     H2 4336   1.177   0.791   3.201
 1427WAT      O 4337   1.268   0.667   3.118
 1427WAT     H1 4338   1.332   0.597   3.129
 1427WAT     H2 4339   1.320   0.745   3.100
 1428WAT      O 4340   1.652   0.695   2.090
 1428WAT     H1 4341   1.630   0.624   2.149
 1428WAT     H2 4342   1.613   0.671   2.006
 1429WAT      O 4343   1.445   0.747   3.438
 1429WAT     H1 4344   1.479   0.806   3.506
 1429WAT     H2 4345   1.353   0.734   3.461
 1430WAT      O 4346   0.231   1.098   2.168
 1430WAT     H1 4347   0.267   1.158   2.102
 1430WAT     H2 4348   0.217   1.153   2.245
 1431WAT      O 4349   1.611   0.487   2.256
 1431WAT     H1 4350   1.582   0.533   2.335
 1431WAT     H2 4351   1.690   0.441   2.283
 1432WAT      O 4352   0.229   0.925   3.615
 1432WAT     H1 4353   0.240   0.831   3.601
 1432WAT     H2 4354   0.164   0.951   3.550
 1433WAT      O 4355   0.832   0.836   2.249
 1433WAT     H1 4356   0.831   0.910   2.188
 1433WAT     H2 4357   0.740   0.812   2.259
 1434WAT      O 4358   0.392   0.359   2.324
 1434WAT     H1 4359   0.332   0.433   2.325
 1434WAT     H2 4360   0.440   0.368   2.241
 1435WAT      O 4361   1.131   0.843   2.116
 1435WAT     H1 4362   1.141   0.822   2.023
 1435WAT     H2 4363   1.041   0.817   2.136
 1436WAT      O 4364   0.995   1.095   2.585
 1436WAT     H1 4365   1.021   1.091   2.493
 1436WAT     H2 4366   0.900   1.082   2.584
 1437WAT      O 4367   0.593   0.355   2.099
 1437WAT     H1 4368   0.670   0.343   2.155
 1437WAT     H2 4369   0.601   0.285   2.033
 1438WAT      O 4370   1.796   0.904   2.910
 1438WAT     H1 4371   1.808   0.986   2.957
 1438WAT     H2 4372   1.883   0.882   2.875
 1439WAT      O 4373   0.543   1.113   2.877
 1439WAT     H1 4374   0.617   1.058   2.904
 1439WAT     H2 4375   0.581   1.199   2.863
 1440WAT      O 4376   0.854   1.030   2.060
 1440WAT     H1 4377   0.933   1.059   2.014
 1440WAT     H2 4378   0.802   0.987   1.992
 1441WAT      O 4379   1.470   1.015   3.652
 1441WAT     H1 4380   1.566   1.007   3.647
 1441WAT     H2 4381   1.456   1.081   3.719
 1442WAT      O 4382   1.759   0.953   2.202
 1442WAT     H1 4383   1.731   0.912   2.121
 1442WAT     H2 4384   1.740   1.046   2.190
 1443WAT      O 4385   0.216   0.280   3.691
 1443WAT     H1 4386   0.266   0.222   3.748
 1443WAT     H2 4387   0.142   0.308   3.744
 1444WAT      O 4388   0.906   0.552   2.046
 1444WAT     H1 4389   0.895   0.491   2.119
 1444WAT     H2 4390   0.889   0.500   1.968
 1445WAT      O 4391   0.921   0.421   3.644
 1445WAT     H1 4392   0.844   0.478   3.635
 1445WAT     H2 4393   0.939   0.392   3.555
 1446WAT      O 4394   1.230   0.458   2.106
 1446WAT     H1 4395   1.175   0.503   2.171
 1446WAT     H2 4396   1.292   0.408   2.159
 1447WAT      O 4397   1.635   0.594   3.700
 1447WAT     H1 4398   1.709   0.628   3.649
 1447WAT     H2 4399   1.559   0.611   3.644
 1448WAT      O 4400   0.797   0.354   2.296
 1448WAT     H1 4401   0.839   0.338   2.380
 1448WAT     H2 4402   0.809   0.273   2.247
 1449WAT      O 4403   1.048   0.257   2.021
 1449WAT     H1 4404   1.100   0.185   1.984
 1449WAT     H2 4405   1.113   0.321   2.051
 1450WAT      O 4406   1.503   0.399   3.553
 1450WAT     H1 4407   1.544   0.414   3.638
 1450WAT     H2 4408   1.409   0.412   3.569
 1451WAT      O 4409   0.979   0.394   3.350
 1451WAT     H1 4410   1.021   0.479   3.333
 1451WAT     H2 4411   0.887   0.408   3.327
 1452WAT      O 4412   1.446   0.223   3.346
 1452WAT     H1 4413   1.394   0.275   3.286
 1452WAT     H2 4414   1.481   0.286   3.409
 1453WAT      O 4415   0.764   1.025   3.462
 1453WAT     H1 4416   0.710   1.097   3.430
 1453WAT     H2 4417   0.789   0.977   3.383
 1454WAT      O 4418   1.050   1.148   3.488
 1454WAT     H1 4419   1.042   1.239   3.518
 1454WAT     H2 4420   0.959   1.116   3.485
 1455WAT      O 4421   1.104   1.065   2.250
 1455WAT     H1 4422   1.194   1.099   2.252
 1455WAT     H2 4423   1.108   0.993   2.187
 1456WAT      O 4424   0.468   0.602   2.073
 1456WAT     H1 4425   0.512   0.656   2.138
 1456WAT     H2 4426   0.517   0.520   2.074
 1457WAT      O 4427   0.190   0.881   2.818
 1457WAT     H1 4428   0.223   0.794   2.795
 1457WAT     H2 4429   0.233   0.902   2.901
 1458WAT      O 4430   0.649   0.714   2.584
 1458WAT     H1 4431   0.619   0.702   2.674
 1458WAT     H2 4432   0.639   0.628   2.543
 1459WAT      O 4433   0.239   0.968   3.092
 1459WAT     H1 4434   0.195   0.986   3.175
 1459WAT     H2 4435   0.295   1.043   3.078
 1460WAT      O 4436   1.802   0.918   3.521
 1460WAT     H1 4437   1.742   0.924   3.446
 1460WAT     H2 4438   1.815   0.824   3.534
 1461WAT      O 4439   1.926   0.692   2.054
 1461WAT     H1 4440   1.843   0.699   2.101
 1461WAT     H2 4441   1.944   0.781   2.024
 1462WAT      O 4442   1.872   0.367   2.305
 1462WAT     H1 4443   1.948   0.423   2.315
 1462WAT     H2 4444   1.873   0.310   2.382
 1463WAT      O 4445   0.222   0.219   2.728
 1463WAT     H1 4446   0.156   0.192   2.663
 1463WAT     H2 4447   0.306   0.208   2.683
 1464WAT      O 4448   1.973   0.452   2.789
 1464WAT     H1 4449   2.010   0.374   2.748
 1464WAT     H2 4450   2.037   0.521   2.771
 1465WAT      O 4451   1.671   0.590   3.330
 1465WAT     H1 4452   1.589   0.633   3.357
 1465WAT     H2 4453   1.712   0.652   3.269
 1466WAT      O 4454   1.877   0.396   2.020
 1466WAT     H1 4455   1.905   0.487   2.008
 1466WAT     H2 4456   1.858   0.389   2.114
 1467WAT      O 4457   0.326   0.257   3.182
 1467WAT     H1 4458   0.362   0.249   3.270
 1467WAT     H2 4459   0.269   0.181   3.172
 1468WAT      O 4460   1.677   1.066   2.683
 1468WAT     H1 4461   1.736   1.033   2.615
 1468WAT     H2 4462   1.702   1.018   2.762
 1469WAT      O 4463   0.467   0.709   3.698
 1469WAT     H1 4464   0.463   0.672   3.786
 1469WAT     H2 4465   0.480   0.803   3.712
 1470WAT      O 4466   0.837   0.864   3.258
 1470WAT     H1 4467   0.813   0.891   3.169
 1470WAT     H2 4468   0.931   0.881   3.264
 1471WAT      O 4469   1.963   1.066   3.338
 1471WAT     H1 4470   1.914   1.106   3.266
 1471WAT     H2 4471   1.902   1.004   3.377
 1472WAT      O 4472   0.451   1.003   3.410
 1472WAT     H1 4473   0.392   0.990   3.484
 1472WAT     H2 4474   0.450   0.920   3.363
 1473WAT      O 4475   1.732   1.131   3.066
 1473WAT     H1 4476   1.686   1.206   3.029
 1473WAT     H2 4477   1.669   1.059   3.060
 1474WAT      O 4478   0.414   0.740   3.305
 1474WAT     H1 4479   0.342   0.678   3.298
 1474WAT     H2 4480   0.420   0.779   3.218
 1475WAT      O 4481   0.775   0.961   2.983
 1475WAT     H1 4482   0.826   0.900   2.931
 1475WAT     H2 4483   0.840   1.012   3.033
 1476WAT      O 4484   1.049   1.050   3.066
 1476WAT     H1 4485   1.077   1.025   2.978
 1476WAT     H2 4486   1.100   0.995   3.125
 1477WAT      O 4487   0.243   1.072   2.626
 1477WAT     H1 4488   0.226   1.008   2.696
 1477WAT     H2 4489   0.156   1.092   2.591
 1478WAT      O 4490   0.403   0.941   2.370
 1478WAT     H1 4491   0.351   0.979   2.300
 1478WAT     H2 4492   0.396   1.004   2.443
 1479WAT      O 4493   1.879   1.097   2.503
 1479WAT     H1 4494   1.896   1.028   2.438
 1479WAT     H2 4495   1.809   1.149   2.463
 1480WAT      O 4496   0.663   1.136   2.258
 1480WAT     H1 4497   0.736   1.107   2.203
 1480WAT     H2 4498   0.689   1.112   2.347
 1481WAT      O 4499   0.579   0.747   2.258
 1481WAT     H1 4500   0.516   0.794   2.313
 1481WAT     H2 4501   0.591   0.663   2.302
 1482WAT      O 4502   1.138   0.330   1.062
 1482WAT     H1 4503   1.060   0.282   1.090
 1482WAT     H2 4504   1.203   0.262   1.044
 1483WAT      O 4505   0.540   0.362   1.149
 1483WAT     H1 4506   0.456   0.336   1.189
 1483WAT     H2 4507   0.600   0.369   1.223
 1484WAT      O 4508   1.540   0.771   0.939
 1484WAT     H1 4509   1.494   0.694   0.972
 1484WAT     H2 4510   1.621   0.774   0.990
 1485WAT      O 4511   0.538   0.765   1.169
 1485WAT     H1 4512   0.568   0.676   1.151
 1485WAT     H2 4513   0.612   0.821   1.146
 1486WAT      O 4514   1.163   1.000   0.902
 1486WAT     H1 4515   1.101   1.045   0.844
 1486WAT     H2 4516   1.248   1.015   0.861
 1487WAT      O 4517   1.082   0.598   1.062
 1487WAT     H1 4518   1.075   0.504   1.046
 1487WAT     H2 4519   1.158   0.607   1.119
 1488WAT      O 4520   1.249   0.488   0.641
 1488WAT     H1 4521   1.187   0.534   0.584
 1488WAT     H2 4522   1.300   0.557   0.683
 1489WAT      O 4523   0.736   0.441   1.309
 1489WAT     H1 4524   0.702   0.503   1.373
 1489WAT     H2 4525   0.753   0.493   1.231
 1490WAT      O 4526   0.657   0.637   1.490
 1490WAT     H1 4527   0.719   0.705   1.462
 1490WAT     H2 4528   0.571   0.678   1.481
 1491WAT      O 4529   0.186   0.556   0.378
 1491WAT     H1 4530   0.148   0.605   0.305
 1491WAT     H2 4531   0.212   0.624   0.441
 1492WAT      O 4532   1.749   0.784   1.282
 1492WAT     H1 4533   1.680   0.851   1.281
 1492WAT     H2 4534   1.802   0.804   1.205
 1493WAT      O 4535   1.502   0.968   1.153
 1493WAT     H1 4536   1.503   0.928   1.066
 1493WAT     H2 4537   1.447   1.046   1.143
 1494WAT      O 4538   1.632   0.640   0.662
 1494WAT     H1 4539   1.621   0.546   0.675
 1494WAT     H2 4540   1.631   0.677   0.751
 1495WAT      O 4541   1.442   0.459   1.286
 1495WAT     H1 4542   1.484   0.437   1.203
 1495WAT     H2 4543   1.514   0.484   1.343
 1496WAT      O 4544   1.186   0.203   0.598
 1496WAT     H1 4545   1.093   0.197   0.621
 1496WAT     H2 4546   1.201   0.297   0.586
 1497WAT      O 4547   1.837   0.298   1.295
 1497WAT     H1 4548   1.754   0.305   1.248
 1497WAT     H2 4549   1.896   0.357   1.248
 1498WAT      O 4550   1.589   0.359   0.648
 1498WAT     H1 4551   1.527   0.326   0.583
 1498WAT     H2 4552   1.587   0.295   0.719
 1499WAT      O 4553   0.746   0.256   0.876
 1499WAT     H1 4554   0.706   0.185   0.826
 1499WAT     H2 4555   0.755   0.221   0.965
 1500WAT      O 4556   0.793   0.624   1.092
 1500WAT     H1 4557   0.763   0.564   1.024
 1500WAT     H2 4558   0.888   0.628   1.081
 1501WAT      O 4559   1.602   0.982   1.459
 1501WAT     H1 4560   1.554   1.062   1.439
 1501WAT     H2 4561   1.534   0.917   1.474
 1502WAT      O 4562   0.702   0.598   1.757
 1502WAT     H1 4563   0.613   0.621   1.782
 1502WAT     H2 4564   0.705   0.611   1.662
 1503WAT      O 4565   1.406   0.283   0.349
 1503WAT     H1 4566   1.450   0.199   0.334
 1503WAT     H2 4567   1.478   0.346   0.357
 1504WAT      O 4568   0.585   0.285   1.615
 1504WAT     H1 4569   0.571   0.373   1.652
 1504WAT     H2 4570   0.497   0.251   1.600
 1505WAT      O 4571   1.217   0.777   0.746
 1505WAT     H1 4572   1.261   0.851   0.704
 1505WAT     H2 4573   1.211   0.801   0.838
 1506WAT      O 4574   0.765   0.880   1.836
 1506WAT     H1 4575   0.762   0.920   1.749
 1506WAT     H2 4576   0.749   0.787   1.820
 1507WAT      O 4577   1.960   0.958   1.965
 1507WAT     H1 4578   2.008   1.006   2.033
 1507WAT     H2 4579   2.022   0.951   1.893
 1508WAT      O 4580   0.180   0.462   1.207
 1508WAT     H1 4581   0.188   0.476   1.112
 1508WAT     H2 4582   0.242   0.392   1.226
 1509WAT      O 4583   0.305   0.632   0.848
 1509WAT     H1 4584   0.264   0.647   0.762
 1509WAT     H2 4585   0.394   0.604   0.827
 1510WAT      O 4586   1.900   0.677   1.681
 1510WAT     H1 4587   1.913   0.653   1.590
 1510WAT     H2 4588   1.905   0.594   1.729
 1511WAT      O 4589   1.287   1.047   1.538
 1511WAT     H1 4590   1.338   1.038   1.619
 1511WAT     H2 4591   1.202   1.082   1.568
 1512WAT      O 4592   1.484   1.076   0.481
 1512WAT     H1 4593   1.468   1.047   0.571
 1512WAT     H2 4594   1.468   0.998   0.428
 1513WAT      O 4595   0.732   1.054   0.659
 1513WAT     H1 4596   0.714   0.962   0.638
 1513WAT     H2 4597   0.647   1.090   0.683
 1514WAT      O 4598   1.454   0.827   0.337
 1514WAT     H1 4599   1.385   0.827   0.271
 1514WAT     H2 4600   1.529   0.784   0.294
 1515WAT      O 4601   1.411   0.989   0.745
 1515WAT     H1 4602   1.456   0.911   0.776
 1515WAT     H2 4603   1.445   1.060   0.799
 1516WAT      O 4604   0.186   0.567   1.461
 1516WAT     H1 4605   0.202   0.520   1.379
 1516WAT     H2 4606   0.232   0.516   1.527
 1517WAT      O 4607   0.343   0.504   1.677
 1517WAT     H1 4608   0.305   0.440   1.736
 1517WAT     H2 4609   0.374   0.574   1.734
 1518WAT      O 4610   0.590   0.513   0.516
 1518WAT     H1 4611   0.513   0.459   0.500
 1518WAT     H2 4612   0.663   0.462   0.482
 1519WAT      O 4613   1.666   0.413   1.095
 1519WAT     H1 4614   1.738   0.463   1.056
 1519WAT     H2 4615   1.646   0.345   1.031
 1520WAT      O 4616   1.204   0.420   1.684
 1520WAT     H1 4617   1.197   0.328   1.659
 1520WAT     H2 4618   1.141   0.430   1.756
 1521WAT      O 4619   0.594   0.480   0.880
 1521WAT     H1 4620   0.646   0.400   0.875
 1521WAT     H2 4621   0.549   0.474   0.964
 1522WAT      O 4622   1.083   0.607   0.407
 1522WAT     H1 4623   1.117   0.681   0.358
 1522WAT     H2 4624   1.000   0.638   0.443
 1523WAT      O 4625   0.663   0.223   1.860
 1523WAT     H1 4626   0.633   0.237   1.770
 1523WAT     H2 4627   0.740   0.167   1.850
 1524WAT      O 4628   1.197   0.702   1.659
 1524WAT     H1 4629   1.199   0.609   1.637
 1524WAT     H2 4630   1.127   0.711   1.723
 1525WAT      O 4631   1.818   0.367   1.594
 1525WAT     H1 4632   1.746   0.426   1.574
 1525WAT     H2 4633   1.871   0.366   1.514
 1526WAT      O 4634   1.814   0.806   0.559
 1526WAT     H1 4635   1.749   0.741   0.586
 1526WAT     H2 4636   1.775   0.847   0.481
 1527WAT      O 4637   1.371   0.539   0.944
 1527WAT     H1 4638   1.407   0.479   0.878
 1527WAT     H2 4639   1.283   0.507   0.961
 1528WAT      O 4640   0.980   0.615   0.684
 1528WAT     H1 4641   1.049   0.670   0.722
 1528WAT     H2 4642   0.901   0.670   0.688
 1529WAT      O 4643   0.194   0.177   0.234
 1529WAT     H1 4644   0.281   0.205   0.262
 1529WAT     H2 4645   0.145   0.258   0.222
 1530WAT      O 4646   0.910   0.316   0.646
 1530WAT     H1 4647   0.956   0.397   0.668
 1530WAT     H2 4648   0.875   0.284   0.729
 1531WAT      O 4649   1.141   0.867   1.369
 1531WAT     H1 4650   1.205   0.887   1.436
 1531WAT     H2 4651   1.177   0.791   1.323
 1532WAT      O 4652   1.268   0.667   1.240
 1532WAT     H1 4653   1.332   0.597   1.252
 1532WAT     H2 4654   1.320   0.745   1.222
 1533WAT      O 4655   1.445   0.747   1.561
 1533WAT     H1 4656   1.479   0.806   1.628
 1533WAT     H2 4657   1.353   0.734   1.584
 1534WAT      O 4658   0.231   1.098   0.290
 1534WAT     H1 4659   0.267   1.158   0.225
 1534WAT     H2 4660   0.217   1.153   0.368
 1535WAT      O 4661   1.611   0.487   0.379
 1535WAT     H1 4662   1.582   0.533   0.458
 1535WAT     H2 4663   1.690   0.441   0.406
 1536WAT      O 4664   0.229   0.925   1.738
 1536WAT     H1 4665   0.240   0.831   1.724
 1536WAT     H2 4666   0.164   0.951   1.673
 1537WAT      O 4667   1.028   0.752   1.878
 1537WAT     H1 4668   0.996   0.680   1.932
 1537WAT     H2 4669   0.961   0.819   1.885
 1538WAT      O 4670   0.832   0.836   0.372
 1538WAT     H1 4671   0.831   0.910   0.310
 1538WAT     H2 4672   0.740   0.812   0.381
 1539WAT      O 4673   0.392   0.359   0.446
 1539WAT     H1 4674   0.332   0.433   0.447
 1539WAT     H2 4675   0.440   0.368   0.364
 1540WAT      O 4676   1.131   0.843   0.238
 1540WAT     H1 4677   1.141   0.822   0.145
 1540WAT     H2 4678   1.041   0.817   0.259
 1541WAT      O 4679   0.995   1.095   0.708
 1541WAT     H1 4680   1.021   1.091   0.615
 1541WAT     H2 4681   0.900   1.082   0.707
 1542WAT      O 4682   0.593   0.355   0.221
 1542WAT     H1 4683   0.670   0.343   0.278
 1542WAT     H2 4684   0.601   0.285   0.156
 1543WAT      O 4685   1.796   0.904   1.033
 1543WAT     H1 4686   1.808   0.986   1.080
 1543WAT     H2 4687   1.883   0.882   0.998
 1544WAT      O 4688   0.543   1.113   1.000
 1544WAT     H1 4689   0.617   1.058   1.027
 1544WAT     H2 4690   0.581   1.199   0.986
 1545WAT      O 4691   0.444   1.031   1.919
 1545WAT     H1 4692   0.524   1.063   1.960
 1545WAT     H2 4693   0.392   0.995   1.991
 1546WAT      O 4694   1.327   0.642   1.914
 1546WAT     H1 4695   1.267   0.644   1.839
 1546WAT     H2 4696   1.297   0.569   1.967
 1547WAT      O 4697   1.470   1.015   1.775
 1547WAT     H1 4698   1.566   1.007   1.770
 1547WAT     H2 4699   1.456   1.081   1.842
 1548WAT      O 4700   1.759   0.953   0.325
 1548WAT     H1 4701   1.731   0.912   0.243
 1548WAT     H2 4702   1.740   1.046   0.313
 1549WAT      O 4703   0.216   0.280   1.813
 1549WAT     H1 4704   0.266   0.222   1.870
 1549WAT     H2 4705   0.142   0.308   1.867
 1550WAT      O 4706   0.921   0.421   1.767
 1550WAT     H1 4707   0.844   0.478   1.758
 1550WAT     H2 4708   0.939   0.392   1.677
 1551WAT      O 4709   1.230   0.458   0.229
 1551WAT     H1 4710   1.175   0.503   0.293
 1551WAT     H2 4711   1.292   0.408   0.281
 1552WAT      O 4712   1.635   0.594   1.822
 1552WAT     H1 4713   1.709   0.628   1.772
 1552WAT     H2 4714   1.559   0.611   1.767
 1553WAT      O 4715   0.797   0.354   0.419
 1553WAT     H1 4716   0.839   0.338   0.503
 1553WAT     H2 4717   0.809   0.273   0.369
 1554WAT      O 4718   1.503   0.399   1.676
 1554WAT     H1 4719   1.544   0.414   1.761
 1554WAT     H2 4720   1.409   0.412   1.692
 1555WAT      O 4721   0.979   0.394   1.473
 1555WAT     H1 4722   1.021   0.479   1.456
 1555WAT     H2 4723   0.887   0.408   1.450
 1556WAT      O 4724   1.446   0.223   1.469
 1556WAT     H1 4725   1.394   0.275   1.408
 1556WAT     H2 4726   1.481   0.286   1.532
 1557WAT      O 4727   0.764   1.025   1.584
 1557WAT     H1 4728   0.710   1.097   1.552
 1557WAT     H2 4729   0.789   0.977   1.505
 1558WAT      O 4730   1.050   1.148   1.610
 1558WAT     H1 4731   1.042   1.239   1.641
 1558WAT     H2 4732   0.959   1.116   1.607
 1559WAT      O 4733   1.104   1.065   0.372
 1559WAT     H1 4734   1.194   1.099   0.375
 1559WAT     H2 4735   1.108   0.993   0.310
 1560WAT      O 4736   0.468   0.602   0.195
 1560WAT     H1 4737   0.512   0.656   0.261
 1560WAT     H2 4738   0.517   0.520   0.196
 1561WAT      O 4739   0.190   0.881   0.941
 1561WAT     H1 4740   0.223   0.794   0.917
 1561WAT     H2 4741   0.233   0.902   1.024
 1562WAT      O 4742   0.649   0.714   0.707
 1562WAT     H1 4743   0.619   0.702   0.797
 1562WAT     H2 4744   0.639   0.628   0.666
 1563WAT      O 4745   0.239   0.968   1.214
 1563WAT     H1 4746   0.195   0.986   1.298
 1563WAT     H2 4747   0.295   1.043   1.200
 1564WAT      O 4748   1.802   0.918   1.643
 1564WAT     H1 4749   1.742   0.924   1.569
 1564WAT     H2 4750   1.815   0.824   1.656
 1565WAT      O 4751   1.926   0.692   0.177
 1565WAT     H1 4752   1.843   0.699   0.224
 1565WAT     H2 4753   1.944   0.781   0.146
 1566WAT      O 4754   1.872   0.367   0.427
 1566WAT     H1 4755   1.948   0.423   0.438
 1566WAT     H2 4756   1.873   0.310   0.504
 1567WAT      O 4757   0.222   0.219   0.850
 1567WAT     H1 4758   0.156   0.192   0.786
 1567WAT     H2 4759   0.306   0.208   0.805
 1568WAT      O 4760   1.973   0.452   0.912
 1568WAT     H1 4761   2.010   0.374   0.871
 1568WAT     H2 4762   2.037   0.521   0.894
 1569WAT      O 4763   1.671   0.590   1.453
 1569WAT     H1 4764   1.589   0.633   1.479
 1569WAT     H2 4765   1.712   0.652   1.392
 1570WAT      O 4766   0.326   0.257   1.304
 1570WAT     H1 4767   0.362   0.249   1.392
 1570WAT     H2 4768   0.269   0.181   1.294
 1571WAT      O 4769   1.677   1.066   0.806
 1571WAT     H1 4770   1.736   1.033   0.738
 1571WAT     H2 4771   1.702   1.018   0.885
 1572WAT      O 4772   0.467   0.709   1.820
 1572WAT     H1 4773   0.463   0.672   1.909
 1572WAT     H2 4774   0.480   0.803   1.835
 1573WAT      O 4775   0.837   0.864   1.381
 1573WAT     H1 4776   0.813   0.891   1.292
 1573WAT     H2 4777   0.931   0.881   1.386
 1574WAT      O 4778   1.963   1.066   1.461
 1574WAT     H1 4779   1.914   1.106   1.389
 1574WAT     H2 4780   1.902   1.004   1.500
 1575WAT      O 4781   0.451   1.003   1.532
 1575WAT     H1 4782   0.392   0.990   1.606
 1575WAT     H2 4783   0.450   0.920   1.486
 1576WAT      O 4784   1.732   1.131   1.189
 1576WAT     H1 4785   1.686   1.206   1.151
 1576WAT     H2 4786   1.669   1.059   1.183
 1577WAT      O 4787   0.414   0.740   1.428
 1577WAT     H1 4788   0.342   0.678   1.421
 1577WAT     H2 4789   0.420   0.779   1.341
 1578WAT      O 4790   0.775   0.961   1.106
 1578WAT     H1 4791   0.826   0.900   1.054
 1578WAT     H2 4792   0.840   1.012   1.155
 1579WAT      O 4793   1.049   1.050   1.189
 1579WAT     H1 4794   1.077   1.025   1.101
 1579WAT     H2 4795   1.100   0.995   1.248
 1580WAT      O 4796   0.243   1.072   0.749
 1580WAT     H1 4797   0.226   1.008   0.818
 1580WAT     H2 4798   0.156   1.092   0.713
 1581WAT      O 4799   0.403   0.941   0.493
 1581WAT     H1 4800   0.351   0.979   0.423
 1581WAT     H2 4801   0.396   1.004   0.565
 1582WAT      O 4802   1.055   1.143   1.925
 1582WAT     H1 4803   1.148   1.119   1.930
 1582WAT     H2 4804   1.054   1.225   1.877
 1583WAT      O 4805   1.879   1.097   0.625
 1583WAT     H1 4806   1.896   1.028   0.561
 1583WAT     H2 4807   1.809   1.149   0.586
 1584WAT      O 4808   0.663   1.136   0.381
 1584WAT     H1 4809   0.736   1.107   0.326
 1584WAT     H2 4810   0.689   1.112   0.469
 1585WAT      O 4811   0.579   0.747   0.381
 1585WAT     H1 4812   0.516   0.794   0.436
 1585WAT     H2 4813   0.591   0.663   0.424
 1586WAT      O 4814   1.712   1.065   1.908
 1586WAT     H1 4815   1.791   1.016   1.887
 1586WAT     H2 4816   1.741   1.133   1.969
   3.98061   4.21178   3.95609
