GROningen MAchine for Chemical Simulation
 4846
    1LIG     N1    1   2.015   2.163   1.839
    1LIG     C1    2   2.014   2.023   1.784
    1LIG     C2    3   1.893   2.240   1.805
    1LIG     C3    4   1.883   1.950   1.825
    1LIG     C4    5   1.764   2.162   1.839
    1LIG     N2    6   1.766   2.028   1.779
    1LIG     C5    7   1.878   1.936   1.976
    1LIG     C6    8   1.740   2.148   1.991
    1LIG     C7    9   1.648   1.973   1.732
    1LIG     C8   10   1.946   1.836   2.044
    1LIG     C9   11   1.817   2.033   2.054
    1LIG     O1   12   1.545   2.039   1.723
    1LIG    C10   13   1.651   1.829   1.688
    1LIG     N3   14   1.949   1.832   2.178
    1LIG     N4   15   1.819   2.030   2.188
    1LIG    C11   16   1.887   1.930   2.247
    1LIG     S1   17   2.163   2.245   1.835
    1LIG     O2   18   2.257   2.166   1.758
    1LIG     O3   19   2.194   2.288   1.970
    1LIG    C12   20   2.127   2.390   1.741
    1LIG    C13   21   2.093   2.379   1.608
    1LIG    C14   22   2.139   2.517   1.798
    1LIG     N5   23   2.064   2.485   1.529
    1LIG    C15   24   2.111   2.628   1.718
    1LIG    C16   25   2.074   2.607   1.586
    1LIG    C17   26   1.893   1.925   2.398
    1LIG    C18   27   1.817   1.819   2.474
    1LIG    C19   28   1.967   1.813   2.467
    1LIG     N6   29   2.010   1.735   1.969
    1LIG     H1   30   1.989   1.646   2.014
    1LIG    C20   31   2.155   1.750   1.954
    1LIG    C21   32   2.223   1.724   2.086
    1LIG    C22   33   2.373   1.706   2.093
    1LIG    C23   34   2.281   1.589   2.118
    1LIG     H2   35   2.020   2.027   1.674
    1LIG     H3   36   2.100   1.968   1.825
    1LIG     H4   37   1.893   2.334   1.862
    1LIG     H5   38   1.893   2.259   1.696
    1LIG     H6   39   1.881   1.850   1.779
    1LIG     H7   40   1.681   2.221   1.798
    1LIG     H8   41   1.771   2.241   2.040
    1LIG     H9   42   1.633   2.126   2.005
    1LIG    H10   43   1.653   1.764   1.777
    1LIG    H11   44   1.562   1.807   1.628
    1LIG    H12   45   1.742   1.811   1.628
    1LIG    H13   46   2.090   2.278   1.563
    1LIG    H14   47   2.169   2.530   1.903
    1LIG    H15   48   2.118   2.730   1.759
    1LIG    H16   49   2.051   2.695   1.524
    1LIG    H17   50   1.897   2.035   2.400
    1LIG    H18   51   1.767   1.844   2.568
    1LIG    H19   52   1.736   1.749   2.449
    1LIG    H20   53   2.016   1.735   2.408
    1LIG    H21   54   2.047   1.808   2.542
    1LIG    H22   55   2.192   1.678   1.880
    1LIG    H23   56   2.178   1.852   1.921
    1LIG    H24   57   2.150   1.791   2.134
    1LIG    H25   58   2.433   1.710   2.001
    1LIG    H26   59   2.455   1.754   2.148
    1LIG    H27   60   2.272   1.548   2.219
    1LIG    H28   61   2.271   1.488   2.076
    2WAT      O   62   3.199   3.907   3.744
    2WAT     H1   63   3.191   3.816   3.717
    2WAT     H2   64   3.157   3.957   3.673
    3WAT      O   65   2.255   3.612   3.398
    3WAT     H1   66   2.166   3.647   3.388
    3WAT     H2   67   2.283   3.592   3.309
    4WAT      O   68   2.472   3.471   3.501
    4WAT     H1   69   2.483   3.561   3.532
    4WAT     H2   70   2.381   3.466   3.472
    5WAT      O   71   3.437   3.383   3.648
    5WAT     H1   72   3.519   3.334   3.653
    5WAT     H2   73   3.441   3.442   3.724
    6WAT      O   74   2.821   3.152   3.794
    6WAT     H1   75   2.852   3.096   3.723
    6WAT     H2   76   2.728   3.165   3.776
    7WAT      O   77   3.060   3.958   3.468
    7WAT     H1   78   2.967   3.951   3.491
    7WAT     H2   79   3.075   4.052   3.456
    8WAT      O   80   3.058   3.585   3.168
    8WAT     H1   81   2.965   3.601   3.176
    8WAT     H2   82   3.090   3.657   3.113
    9WAT      O   83   2.620   4.011   3.746
    9WAT     H1   84   2.580   3.939   3.697
    9WAT     H2   85   2.629   3.976   3.835
   10WAT      O   86   3.639   3.164   3.050
   10WAT     H1   87   3.607   3.173   3.140
   10WAT     H2   88   3.715   3.221   3.045
   11WAT      O   89   2.290   3.900   3.496
   11WAT     H1   90   2.278   3.973   3.435
   11WAT     H2   91   2.259   3.823   3.448
   12WAT      O   92   2.537   3.234   3.834
   12WAT     H1   93   2.493   3.313   3.801
   12WAT     H2   94   2.593   3.267   3.905
   13WAT      O   95   2.849   3.197   3.322
   13WAT     H1   96   2.786   3.196   3.395
   13WAT     H2   97   2.840   3.110   3.283
   14WAT      O   98   2.516   3.747   3.607
   14WAT     H1   99   2.494   3.725   3.698
   14WAT     H2  100   2.438   3.790   3.573
   15WAT      O  101   3.239   3.747   3.467
   15WAT     H1  102   3.179   3.820   3.449
   15WAT     H2  103   3.294   3.741   3.389
   16WAT      O  104   3.100   3.611   3.670
   16WAT     H1  105   3.139   3.643   3.589
   16WAT     H2  106   3.136   3.523   3.682
   17WAT      O  107   2.022   3.664   3.013
   17WAT     H1  108   2.014   3.759   3.028
   17WAT     H2  109   1.987   3.650   2.926
   18WAT      O  110   2.387   3.526   3.816
   18WAT     H1  111   2.353   3.574   3.892
   18WAT     H2  112   2.311   3.481   3.780
   19WAT      O  113   2.808   3.638   3.219
   19WAT     H1  114   2.820   3.634   3.314
   19WAT     H2  115   2.770   3.724   3.204
   20WAT      O  116   2.710   3.869   3.159
   20WAT     H1  117   2.653   3.824   3.096
   20WAT     H2  118   2.780   3.905   3.106
   21WAT      O  119   2.119   3.418   3.708
   21WAT     H1  120   2.090   3.382   3.792
   21WAT     H2  121   2.112   3.345   3.646
   22WAT      O  122   3.086   3.307   3.380
   22WAT     H1  123   3.005   3.258   3.372
   22WAT     H2  124   3.067   3.391   3.338
   23WAT      O  125   3.357   3.745   3.210
   23WAT     H1  126   3.446   3.776   3.192
   23WAT     H2  127   3.355   3.657   3.170
   24WAT      O  128   3.585   3.876   3.156
   24WAT     H1  129   3.576   3.919   3.071
   24WAT     H2  130   3.657   3.922   3.200
   25WAT      O  131   2.068   3.932   3.104
   25WAT     H1  132   2.155   3.960   3.132
   25WAT     H2  133   2.019   4.013   3.092
   26WAT      O  134   2.374   3.105   3.563
   26WAT     H1  135   2.362   3.104   3.658
   26WAT     H2  136   2.292   3.139   3.528
   27WAT      O  137   3.560   3.426   3.365
   27WAT     H1  138   3.497   3.436   3.294
   27WAT     H2  139   3.511   3.447   3.444
   28WAT      O  140   2.757   3.653   3.507
   28WAT     H1  141   2.686   3.700   3.551
   28WAT     H2  142   2.786   3.588   3.570
   29WAT      O  143   3.160   3.326   3.651
   29WAT     H1  144   3.148   3.328   3.556
   29WAT     H2  145   3.255   3.331   3.663
   30WAT      O  146   2.578   3.484   3.244
   30WAT     H1  147   2.662   3.528   3.237
   30WAT     H2  148   2.541   3.515   3.327
   31WAT      O  149   3.470   3.941   3.735
   31WAT     H1  150   3.376   3.943   3.753
   31WAT     H2  151   3.501   3.863   3.780
   32WAT      O  152   2.337   3.853   3.160
   32WAT     H1  153   2.345   3.758   3.171
   32WAT     H2  154   2.426   3.886   3.170
   33WAT      O  155   2.922   4.012   3.014
   33WAT     H1  156   2.974   3.940   2.977
   33WAT     H2  157   2.987   4.075   3.044
   34WAT      O  158   2.560   3.717   2.983
   34WAT     H1  159   2.540   3.630   3.020
   34WAT     H2  160   2.543   3.708   2.890
   35WAT      O  161   3.308   3.198   3.236
   35WAT     H1  162   3.336   3.113   3.272
   35WAT     H2  163   3.231   3.221   3.288
   36WAT      O  164   2.440   3.427   2.982
   36WAT     H1  165   2.470   3.427   2.891
   36WAT     H2  166   2.514   3.392   3.032
   37WAT      O  167   2.762   3.321   3.081
   37WAT     H1  168   2.727   3.253   3.023
   37WAT     H2  169   2.782   3.275   3.162
   38WAT      O  170   2.096   3.974   3.720
   38WAT     H1  171   2.030   3.947   3.656
   38WAT     H2  172   2.180   3.963   3.675
   39WAT      O  173   3.391   3.453   3.143
   39WAT     H1  174   3.433   3.434   3.059
   39WAT     H2  175   3.360   3.368   3.174
   40WAT      O  176   3.741   3.944   3.512
   40WAT     H1  177   3.703   3.868   3.469
   40WAT     H2  178   3.668   3.983   3.561
   41WAT      O  179   2.017   3.695   3.315
   41WAT     H1  180   1.927   3.721   3.297
   41WAT     H2  181   2.066   3.722   3.237
   42WAT      O  182   2.272   3.600   3.106
   42WAT     H1  183   2.343   3.558   3.057
   42WAT     H2  184   2.200   3.607   3.042
   43WAT      O  185   2.236   3.206   3.010
   43WAT     H1  186   2.309   3.260   3.041
   43WAT     H2  187   2.264   3.178   2.922
   44WAT      O  188   3.617   3.693   3.436
   44WAT     H1  189   3.667   3.669   3.515
   44WAT     H2  190   3.597   3.609   3.395
   45WAT      O  191   3.686   3.213   3.722
   45WAT     H1  192   3.680   3.118   3.708
   45WAT     H2  193   3.764   3.223   3.777
   46WAT      O  194   2.179   3.210   3.369
   46WAT     H1  195   2.255   3.221   3.312
   46WAT     H2  196   2.133   3.293   3.364
   47WAT      O  197   2.833   3.421   3.668
   47WAT     H1  198   2.752   3.384   3.634
   47WAT     H2  199   2.883   3.346   3.698
   48WAT      O  200   3.283   3.088   3.792
   48WAT     H1  201   3.344   3.145   3.839
   48WAT     H2  202   3.209   3.144   3.770
   49WAT      O  203   3.598   3.128   3.319
   49WAT     H1  204   3.617   3.218   3.346
   49WAT     H2  205   3.519   3.105   3.369
   50WAT      O  206   2.416   3.262   3.223
   50WAT     H1  207   2.469   3.184   3.210
   50WAT     H2  208   2.479   3.330   3.246
   51WAT      O  209   2.635   3.236   3.528
   51WAT     H1  210   2.572   3.166   3.545
   51WAT     H2  211   2.582   3.312   3.507
   52WAT      O  212   3.199   3.907   1.866
   52WAT     H1  213   3.191   3.816   1.839
   52WAT     H2  214   3.157   3.957   1.796
   53WAT      O  215   2.255   3.612   1.520
   53WAT     H1  216   2.166   3.647   1.510
   53WAT     H2  217   2.283   3.592   1.431
   54WAT      O  218   2.051   3.872   2.109
   54WAT     H1  219   2.108   3.796   2.109
   54WAT     H2  220   2.051   3.902   2.018
   55WAT      O  221   2.175   3.413   2.288
   55WAT     H1  222   2.157   3.324   2.316
   55WAT     H2  223   2.135   3.468   2.355
   56WAT      O  224   3.059   3.633   2.078
   56WAT     H1  225   3.097   3.546   2.066
   56WAT     H2  226   3.049   3.667   1.989
   57WAT      O  227   2.472   3.471   1.624
   57WAT     H1  228   2.483   3.561   1.655
   57WAT     H2  229   2.381   3.466   1.595
   58WAT      O  230   3.437   3.383   1.771
   58WAT     H1  231   3.519   3.334   1.775
   58WAT     H2  232   3.441   3.442   1.846
   59WAT      O  233   2.237   3.663   2.148
   59WAT     H1  234   2.305   3.689   2.210
   59WAT     H2  235   2.205   3.579   2.182
   60WAT      O  236   2.656   3.768   2.057
   60WAT     H1  237   2.707   3.817   2.121
   60WAT     H2  238   2.709   3.690   2.039
   61WAT      O  239   2.485   3.232   2.484
   61WAT     H1  240   2.485   3.283   2.403
   61WAT     H2  241   2.402   3.184   2.481
   62WAT      O  242   3.461   3.577   2.048
   62WAT     H1  243   3.390   3.606   2.106
   62WAT     H2  244   3.497   3.658   2.012
   63WAT      O  245   2.453   3.403   2.284
   63WAT     H1  246   2.487   3.487   2.255
   63WAT     H2  247   2.359   3.418   2.296
   64WAT      O  248   3.768   3.522   2.087
   64WAT     H1  249   3.673   3.525   2.100
   64WAT     H2  250   3.800   3.603   2.126
   65WAT      O  251   2.821   3.152   1.917
   65WAT     H1  252   2.852   3.096   1.845
   65WAT     H2  253   2.728   3.165   1.899
   66WAT      O  254   3.060   3.958   1.590
   66WAT     H1  255   2.967   3.951   1.613
   66WAT     H2  256   3.075   4.052   1.579
   67WAT      O  257   3.058   3.585   1.290
   67WAT     H1  258   2.965   3.601   1.299
   67WAT     H2  259   3.090   3.657   1.235
   68WAT      O  260   3.407   3.732   2.382
   68WAT     H1  261   3.366   3.815   2.408
   68WAT     H2  262   3.334   3.674   2.363
   69WAT      O  263   2.620   4.011   1.869
   69WAT     H1  264   2.580   3.939   1.819
   69WAT     H2  265   2.629   3.976   1.958
   70WAT      O  266   2.492   3.688   2.247
   70WAT     H1  267   2.547   3.699   2.169
   70WAT     H2  268   2.543   3.725   2.318
   71WAT      O  269   3.639   3.164   1.173
   71WAT     H1  270   3.607   3.173   1.263
   71WAT     H2  271   3.715   3.221   1.168
   72WAT      O  272   2.290   3.900   1.619
   72WAT     H1  273   2.278   3.973   1.558
   72WAT     H2  274   2.259   3.823   1.571
   73WAT      O  275   3.760   3.637   2.771
   73WAT     H1  276   3.698   3.688   2.718
   73WAT     H2  277   3.728   3.547   2.765
   74WAT      O  278   2.537   3.234   1.957
   74WAT     H1  279   2.493   3.313   1.924
   74WAT     H2  280   2.593   3.267   2.028
   75WAT      O  281   2.966   3.521   2.517
   75WAT     H1  282   2.920   3.542   2.599
   75WAT     H2  283   2.926   3.440   2.487
   76WAT      O  284   3.466   3.643   2.630
   76WAT     H1  285   3.381   3.613   2.662
   76WAT     H2  286   3.450   3.668   2.539
   77WAT      O  287   3.175   3.793   2.840
   77WAT     H1  288   3.208   3.710   2.806
   77WAT     H2  289   3.254   3.846   2.855
   78WAT      O  290   2.849   3.197   1.445
   78WAT     H1  291   2.786   3.196   1.518
   78WAT     H2  292   2.840   3.110   1.405
   79WAT      O  293   2.741   3.289   2.143
   79WAT     H1  294   2.771   3.380   2.135
   79WAT     H2  295   2.796   3.240   2.081
   80WAT      O  296   2.516   3.747   1.730
   80WAT     H1  297   2.494   3.725   1.820
   80WAT     H2  298   2.438   3.790   1.695
   81WAT      O  299   3.239   3.747   1.590
   81WAT     H1  300   3.179   3.820   1.571
   81WAT     H2  301   3.294   3.741   1.511
   82WAT      O  302   2.760   3.837   2.796
   82WAT     H1  303   2.751   3.743   2.781
   82WAT     H2  304   2.845   3.859   2.757
   83WAT      O  305   3.100   3.611   1.793
   83WAT     H1  306   3.139   3.643   1.711
   83WAT     H2  307   3.136   3.523   1.804
   84WAT      O  308   2.273   3.478   2.612
   84WAT     H1  309   2.234   3.563   2.632
   84WAT     H2  310   2.204   3.414   2.631
   85WAT      O  311   2.931   3.486   2.919
   85WAT     H1  312   2.862   3.467   2.982
   85WAT     H2  313   3.005   3.514   2.972
   86WAT      O  314   2.003   3.270   2.015
   86WAT     H1  315   1.975   3.327   2.086
   86WAT     H2  316   2.078   3.222   2.051
   87WAT      O  317   2.022   3.664   1.136
   87WAT     H1  318   2.014   3.759   1.150
   87WAT     H2  319   1.987   3.650   1.048
   88WAT      O  320   3.158   3.870   2.202
   88WAT     H1  321   3.085   3.921   2.237
   88WAT     H2  322   3.119   3.788   2.172
   89WAT      O  323   2.802   3.538   2.043
   89WAT     H1  324   2.803   3.494   1.958
   89WAT     H2  325   2.892   3.570   2.053
   90WAT      O  326   2.387   3.526   1.939
   90WAT     H1  327   2.353   3.574   2.014
   90WAT     H2  328   2.311   3.481   1.903
   91WAT      O  329   2.808   3.638   1.342
   91WAT     H1  330   2.820   3.634   1.437
   91WAT     H2  331   2.770   3.724   1.326
   92WAT      O  332   3.205   3.415   2.143
   92WAT     H1  333   3.206   3.461   2.228
   92WAT     H2  334   3.180   3.326   2.165
   93WAT      O  335   2.710   3.869   1.282
   93WAT     H1  336   2.653   3.824   1.219
   93WAT     H2  337   2.780   3.905   1.228
   94WAT      O  338   3.547   3.157   2.727
   94WAT     H1  339   3.580   3.084   2.780
   94WAT     H2  340   3.551   3.125   2.637
   95WAT      O  341   2.832   3.944   2.217
   95WAT     H1  342   2.869   3.896   2.292
   95WAT     H2  343   2.813   4.031   2.251
   96WAT      O  344   2.119   3.418   1.830
   96WAT     H1  345   2.090   3.382   1.914
   96WAT     H2  346   2.112   3.345   1.769
   97WAT      O  347   2.611   3.848   2.449
   97WAT     H1  348   2.581   3.936   2.472
   97WAT     H2  349   2.707   3.854   2.453
   98WAT      O  350   3.086   3.307   1.502
   98WAT     H1  351   3.005   3.258   1.495
   98WAT     H2  352   3.067   3.391   1.461
   99WAT      O  353   3.357   3.745   1.332
   99WAT     H1  354   3.446   3.776   1.315
   99WAT     H2  355   3.355   3.657   1.293
  100WAT      O  356   2.217   3.932   2.564
  100WAT     H1  357   2.181   3.998   2.623
  100WAT     H2  358   2.187   3.849   2.601
  101WAT      O  359   2.537   3.978   2.852
  101WAT     H1  360   2.507   3.992   2.763
  101WAT     H2  361   2.614   3.922   2.843
  102WAT      O  362   3.585   3.876   1.279
  102WAT     H1  363   3.576   3.919   1.194
  102WAT     H2  364   3.657   3.922   1.322
  103WAT      O  365   2.068   3.932   1.226
  103WAT     H1  366   2.155   3.960   1.255
  103WAT     H2  367   2.019   4.013   1.215
  104WAT      O  368   2.374   3.105   1.686
  104WAT     H1  369   2.362   3.104   1.780
  104WAT     H2  370   2.292   3.139   1.651
  105WAT      O  371   2.074   3.281   2.632
  105WAT     H1  372   2.003   3.301   2.692
  105WAT     H2  373   2.116   3.203   2.669
  106WAT      O  374   3.224   3.530   2.407
  106WAT     H1  375   3.261   3.448   2.439
  106WAT     H2  376   3.138   3.536   2.448
  107WAT      O  377   3.560   3.426   1.488
  107WAT     H1  378   3.497   3.436   1.416
  107WAT     H2  379   3.511   3.447   1.567
  108WAT      O  380   2.757   3.653   1.629
  108WAT     H1  381   2.686   3.700   1.673
  108WAT     H2  382   2.786   3.588   1.693
  109WAT      O  383   2.920   3.795   2.429
  109WAT     H1  384   2.970   3.843   2.496
  109WAT     H2  385   2.934   3.703   2.450
  110WAT      O  386   3.160   3.326   1.773
  110WAT     H1  387   3.148   3.328   1.678
  110WAT     H2  388   3.255   3.331   1.785
  111WAT      O  389   2.578   3.484   1.367
  111WAT     H1  390   2.662   3.528   1.360
  111WAT     H2  391   2.541   3.515   1.449
  112WAT      O  392   3.640   3.417   2.513
  112WAT     H1  393   3.590   3.491   2.547
  112WAT     H2  394   3.722   3.456   2.482
  113WAT      O  395   3.470   3.941   1.858
  113WAT     H1  396   3.376   3.943   1.875
  113WAT     H2  397   3.501   3.863   1.903
  114WAT      O  398   2.337   3.853   1.282
  114WAT     H1  399   2.345   3.758   1.294
  114WAT     H2  400   2.426   3.886   1.293
  115WAT      O  401   2.090   4.035   2.806
  115WAT     H1  402   2.140   3.977   2.863
  115WAT     H2  403   2.016   4.063   2.860
  116WAT      O  404   2.293   3.849   2.895
  116WAT     H1  405   2.297   3.819   2.986
  116WAT     H2  406   2.378   3.889   2.879
  117WAT      O  407   2.487   3.707   2.692
  117WAT     H1  408   2.434   3.658   2.629
  117WAT     H2  409   2.554   3.750   2.639
  118WAT      O  410   2.922   4.012   1.136
  118WAT     H1  411   2.974   3.940   1.100
  118WAT     H2  412   2.987   4.075   1.166
  119WAT      O  413   3.424   3.888   2.869
  119WAT     H1  414   3.482   3.812   2.860
  119WAT     H2  415   3.442   3.941   2.791
  120WAT      O  416   2.536   3.404   2.700
  120WAT     H1  417   2.526   3.342   2.628
  120WAT     H2  418   2.478   3.476   2.677
  121WAT      O  419   2.812   3.260   2.403
  121WAT     H1  420   2.767   3.262   2.319
  121WAT     H2  421   2.749   3.220   2.463
  122WAT      O  422   3.086   3.922   2.604
  122WAT     H1  423   3.098   3.863   2.678
  122WAT     H2  424   3.172   3.926   2.562
  123WAT      O  425   3.320   3.978   2.462
  123WAT     H1  426   3.268   4.030   2.401
  123WAT     H2  427   3.355   4.041   2.525
  124WAT      O  428   2.560   3.717   1.106
  124WAT     H1  429   2.540   3.630   1.142
  124WAT     H2  430   2.543   3.708   1.012
  125WAT      O  431   2.763   3.576   2.730
  125WAT     H1  432   2.822   3.546   2.798
  125WAT     H2  433   2.681   3.529   2.745
  126WAT      O  434   3.245   3.538   2.753
  126WAT     H1  435   3.176   3.472   2.746
  126WAT     H2  436   3.317   3.493   2.797
  127WAT      O  437   3.308   3.198   1.359
  127WAT     H1  438   3.336   3.113   1.394
  127WAT     H2  439   3.231   3.221   1.410
  128WAT      O  440   2.440   3.427   1.105
  128WAT     H1  441   2.470   3.427   1.014
  128WAT     H2  442   2.514   3.392   1.154
  129WAT      O  443   2.762   3.321   1.203
  129WAT     H1  444   2.727   3.253   1.145
  129WAT     H2  445   2.782   3.275   1.285
  130WAT      O  446   2.096   3.974   1.843
  130WAT     H1  447   2.030   3.947   1.779
  130WAT     H2  448   2.180   3.963   1.798
  131WAT      O  449   3.391   3.453   1.265
  131WAT     H1  450   3.433   3.434   1.181
  131WAT     H2  451   3.360   3.368   1.296
  132WAT      O  452   3.741   3.944   1.635
  132WAT     H1  453   3.703   3.868   1.592
  132WAT     H2  454   3.668   3.983   1.684
  133WAT      O  455   2.200   4.012   2.297
  133WAT     H1  456   2.236   4.004   2.385
  133WAT     H2  457   2.143   3.936   2.287
  134WAT      O  458   3.680   3.859   2.598
  134WAT     H1  459   3.657   3.836   2.508
  134WAT     H2  460   3.706   3.951   2.594
  135WAT      O  461   2.155   3.703   2.688
  135WAT     H1  462   2.065   3.700   2.722
  135WAT     H2  463   2.209   3.723   2.764
  136WAT      O  464   3.524   3.382   2.876
  136WAT     H1  465   3.611   3.383   2.914
  136WAT     H2  466   3.525   3.308   2.815
  137WAT      O  467   2.017   3.695   1.437
  137WAT     H1  468   1.927   3.721   1.420
  137WAT     H2  469   2.066   3.722   1.359
  138WAT      O  470   3.668   3.767   1.965
  138WAT     H1  471   3.721   3.718   1.902
  138WAT     H2  472   3.727   3.780   2.039
  139WAT      O  473   3.686   3.775   2.317
  139WAT     H1  474   3.591   3.772   2.329
  139WAT     H2  475   3.704   3.866   2.294
  140WAT      O  476   2.272   3.600   1.228
  140WAT     H1  477   2.343   3.558   1.180
  140WAT     H2  478   2.200   3.607   1.165
  141WAT      O  479   2.236   3.206   1.132
  141WAT     H1  480   2.309   3.260   1.164
  141WAT     H2  481   2.264   3.178   1.045
  142WAT      O  482   3.617   3.693   1.559
  142WAT     H1  483   3.667   3.669   1.637
  142WAT     H2  484   3.597   3.609   1.517
  143WAT      O  485   2.205   3.131   2.122
  143WAT     H1  486   2.270   3.076   2.078
  143WAT     H2  487   2.247   3.156   2.205
  144WAT      O  488   3.595   3.150   2.458
  144WAT     H1  489   3.659   3.212   2.495
  144WAT     H2  490   3.610   3.154   2.364
  145WAT      O  491   2.181   3.146   2.397
  145WAT     H1  492   2.146   3.192   2.473
  145WAT     H2  493   2.147   3.057   2.405
  146WAT      O  494   2.932   3.266   2.749
  146WAT     H1  495   2.926   3.325   2.824
  146WAT     H2  496   3.026   3.255   2.734
  147WAT      O  497   3.196   3.231   2.713
  147WAT     H1  498   3.257   3.263   2.647
  147WAT     H2  499   3.250   3.183   2.775
  148WAT      O  500   2.248   3.099   2.724
  148WAT     H1  501   2.303   3.081   2.648
  148WAT     H2  502   2.254   3.020   2.778
  149WAT      O  503   3.270   3.088   2.346
  149WAT     H1  504   3.182   3.121   2.325
  149WAT     H2  505   3.259   3.040   2.428
  150WAT      O  506   3.360   3.308   2.484
  150WAT     H1  507   3.328   3.227   2.446
  150WAT     H2  508   3.455   3.304   2.472
  151WAT      O  509   3.044   3.179   2.239
  151WAT     H1  510   2.966   3.227   2.267
  151WAT     H2  511   3.015   3.089   2.229
  152WAT      O  512   3.500   3.249   2.044
  152WAT     H1  513   3.544   3.244   1.959
  152WAT     H2  514   3.473   3.341   2.051
  153WAT      O  515   3.686   3.213   1.845
  153WAT     H1  516   3.680   3.118   1.830
  153WAT     H2  517   3.764   3.223   1.900
  154WAT      O  518   2.179   3.210   1.492
  154WAT     H1  519   2.255   3.221   1.434
  154WAT     H2  520   2.133   3.293   1.487
  155WAT      O  521   2.833   3.421   1.791
  155WAT     H1  522   2.752   3.384   1.757
  155WAT     H2  523   2.883   3.346   1.821
  156WAT      O  524   3.283   3.088   1.914
  156WAT     H1  525   3.344   3.145   1.962
  156WAT     H2  526   3.209   3.144   1.892
  157WAT      O  527   3.598   3.128   1.442
  157WAT     H1  528   3.617   3.218   1.469
  157WAT     H2  529   3.519   3.105   1.491
  158WAT      O  530   2.416   3.262   1.346
  158WAT     H1  531   2.469   3.184   1.333
  158WAT     H2  532   2.479   3.330   1.369
  159WAT      O  533   2.635   3.236   1.651
  159WAT     H1  534   2.572   3.166   1.668
  159WAT     H2  535   2.582   3.312   1.629
  160WAT      O  536   2.648   3.164   2.895
  160WAT     H1  537   2.620   3.214   2.818
  160WAT     H2  538   2.686   3.084   2.858
  161WAT      O  539   3.308   3.105   2.952
  161WAT     H1  540   3.297   3.137   3.042
  161WAT     H2  541   3.390   3.146   2.923
  162WAT      O  542   2.051   3.872   0.231
  162WAT     H1  543   2.108   3.796   0.231
  162WAT     H2  544   2.051   3.902   0.140
  163WAT      O  545   2.175   3.413   0.410
  163WAT     H1  546   2.157   3.324   0.438
  163WAT     H2  547   2.135   3.468   0.478
  164WAT      O  548   2.237   3.663   0.271
  164WAT     H1  549   2.305   3.689   0.333
  164WAT     H2  550   2.205   3.579   0.304
  165WAT      O  551   2.656   3.768   0.180
  165WAT     H1  552   2.707   3.817   0.244
  165WAT     H2  553   2.709   3.690   0.162
  166WAT      O  554   2.485   3.232   0.606
  166WAT     H1  555   2.485   3.283   0.526
  166WAT     H2  556   2.402   3.184   0.604
  167WAT      O  557   2.453   3.403   0.407
  167WAT     H1  558   2.487   3.487   0.378
  167WAT     H2  559   2.359   3.418   0.419
  168WAT      O  560   3.768   3.522   0.210
  168WAT     H1  561   3.673   3.525   0.223
  168WAT     H2  562   3.800   3.603   0.248
  169WAT      O  563   3.407   3.732   0.505
  169WAT     H1  564   3.366   3.815   0.530
  169WAT     H2  565   3.334   3.674   0.486
  170WAT      O  566   2.492   3.688   0.369
  170WAT     H1  567   2.547   3.699   0.292
  170WAT     H2  568   2.543   3.725   0.441
  171WAT      O  569   3.760   3.637   0.893
  171WAT     H1  570   3.698   3.688   0.840
  171WAT     H2  571   3.728   3.547   0.888
  172WAT      O  572   2.966   3.521   0.640
  172WAT     H1  573   2.920   3.542   0.721
  172WAT     H2  574   2.926   3.440   0.610
  173WAT      O  575   3.466   3.643   0.753
  173WAT     H1  576   3.381   3.613   0.785
  173WAT     H2  577   3.450   3.668   0.662
  174WAT      O  578   3.175   3.793   0.963
  174WAT     H1  579   3.208   3.710   0.929
  174WAT     H2  580   3.254   3.846   0.978
  175WAT      O  581   2.741   3.289   0.265
  175WAT     H1  582   2.771   3.380   0.257
  175WAT     H2  583   2.796   3.240   0.204
  176WAT      O  584   2.760   3.837   0.919
  176WAT     H1  585   2.751   3.743   0.904
  176WAT     H2  586   2.845   3.859   0.879
  177WAT      O  587   2.273   3.478   0.734
  177WAT     H1  588   2.234   3.563   0.755
  177WAT     H2  589   2.204   3.414   0.753
  178WAT      O  590   2.931   3.486   1.041
  178WAT     H1  591   2.862   3.467   1.105
  178WAT     H2  592   3.005   3.514   1.094
  179WAT      O  593   3.158   3.870   0.325
  179WAT     H1  594   3.085   3.921   0.360
  179WAT     H2  595   3.119   3.788   0.295
  180WAT      O  596   3.205   3.415   0.266
  180WAT     H1  597   3.206   3.461   0.350
  180WAT     H2  598   3.180   3.326   0.287
  181WAT      O  599   3.547   3.157   0.850
  181WAT     H1  600   3.580   3.084   0.902
  181WAT     H2  601   3.551   3.125   0.760
  182WAT      O  602   2.832   3.944   0.340
  182WAT     H1  603   2.869   3.896   0.415
  182WAT     H2  604   2.813   4.031   0.374
  183WAT      O  605   2.611   3.848   0.572
  183WAT     H1  606   2.581   3.936   0.594
  183WAT     H2  607   2.707   3.854   0.575
  184WAT      O  608   2.217   3.932   0.687
  184WAT     H1  609   2.181   3.998   0.745
  184WAT     H2  610   2.187   3.849   0.724
  185WAT      O  611   2.537   3.978   0.975
  185WAT     H1  612   2.507   3.992   0.885
  185WAT     H2  613   2.614   3.922   0.966
  186WAT      O  614   2.074   3.281   0.754
  186WAT     H1  615   2.003   3.301   0.815
  186WAT     H2  616   2.116   3.203   0.791
  187WAT      O  617   3.224   3.530   0.529
  187WAT     H1  618   3.261   3.448   0.562
  187WAT     H2  619   3.138   3.536   0.571
  188WAT      O  620   2.920   3.795   0.552
  188WAT     H1  621   2.970   3.843   0.618
  188WAT     H2  622   2.934   3.703   0.572
  189WAT      O  623   3.640   3.417   0.636
  189WAT     H1  624   3.590   3.491   0.670
  189WAT     H2  625   3.722   3.456   0.604
  190WAT      O  626   2.090   4.035   0.928
  190WAT     H1  627   2.140   3.977   0.986
  190WAT     H2  628   2.016   4.063   0.982
  191WAT      O  629   2.293   3.849   1.018
  191WAT     H1  630   2.297   3.819   1.109
  191WAT     H2  631   2.378   3.889   1.002
  192WAT      O  632   2.487   3.707   0.815
  192WAT     H1  633   2.434   3.658   0.752
  192WAT     H2  634   2.554   3.750   0.761
  193WAT      O  635   3.424   3.888   0.992
  193WAT     H1  636   3.482   3.812   0.983
  193WAT     H2  637   3.442   3.941   0.914
  194WAT      O  638   2.536   3.404   0.823
  194WAT     H1  639   2.526   3.342   0.750
  194WAT     H2  640   2.478   3.476   0.800
  195WAT      O  641   2.812   3.260   0.526
  195WAT     H1  642   2.767   3.262   0.441
  195WAT     H2  643   2.749   3.220   0.586
  196WAT      O  644   3.086   3.922   0.726
  196WAT     H1  645   3.098   3.863   0.800
  196WAT     H2  646   3.172   3.926   0.684
  197WAT      O  647   3.320   3.978   0.584
  197WAT     H1  648   3.268   4.030   0.524
  197WAT     H2  649   3.355   4.041   0.647
  198WAT      O  650   2.763   3.576   0.852
  198WAT     H1  651   2.822   3.546   0.921
  198WAT     H2  652   2.681   3.529   0.868
  199WAT      O  653   3.245   3.538   0.876
  199WAT     H1  654   3.176   3.472   0.869
  199WAT     H2  655   3.317   3.493   0.920
  200WAT      O  656   2.200   4.012   0.420
  200WAT     H1  657   2.236   4.004   0.508
  200WAT     H2  658   2.143   3.936   0.410
  201WAT      O  659   3.680   3.859   0.721
  201WAT     H1  660   3.657   3.836   0.631
  201WAT     H2  661   3.706   3.951   0.716
  202WAT      O  662   2.155   3.703   0.810
  202WAT     H1  663   2.065   3.700   0.844
  202WAT     H2  664   2.209   3.723   0.887
  203WAT      O  665   3.524   3.382   0.999
  203WAT     H1  666   3.611   3.383   1.037
  203WAT     H2  667   3.525   3.308   0.938
  204WAT      O  668   3.686   3.775   0.440
  204WAT     H1  669   3.591   3.772   0.451
  204WAT     H2  670   3.704   3.866   0.416
  205WAT      O  671   2.205   3.131   0.245
  205WAT     H1  672   2.270   3.076   0.201
  205WAT     H2  673   2.247   3.156   0.327
  206WAT      O  674   3.595   3.150   0.581
  206WAT     H1  675   3.659   3.212   0.617
  206WAT     H2  676   3.610   3.154   0.486
  207WAT      O  677   2.181   3.146   0.519
  207WAT     H1  678   2.146   3.192   0.596
  207WAT     H2  679   2.147   3.057   0.527
  208WAT      O  680   2.932   3.266   0.871
  208WAT     H1  681   2.926   3.325   0.946
  208WAT     H2  682   3.026   3.255   0.857
  209WAT      O  683   3.196   3.231   0.835
  209WAT     H1  684   3.257   3.263   0.769
  209WAT     H2  685   3.250   3.183   0.897
  210WAT      O  686   2.248   3.099   0.847
  210WAT     H1  687   2.303   3.081   0.770
  210WAT     H2  688   2.254   3.020   0.900
  211WAT      O  689   3.270   3.088   0.468
  211WAT     H1  690   3.182   3.121   0.448
  211WAT     H2  691   3.259   3.040   0.551
  212WAT      O  692   3.360   3.308   0.607
  212WAT     H1  693   3.328   3.227   0.569
  212WAT     H2  694   3.455   3.304   0.594
  213WAT      O  695   3.044   3.179   0.362
  213WAT     H1  696   2.966   3.227   0.390
  213WAT     H2  697   3.015   3.089   0.351
  214WAT      O  698   2.648   3.164   1.017
  214WAT     H1  699   2.620   3.214   0.941
  214WAT     H2  700   2.686   3.084   0.981
  215WAT      O  701   3.308   3.105   1.075
  215WAT     H1  702   3.297   3.137   1.164
  215WAT     H2  703   3.390   3.146   1.045
  216WAT      O  704   3.199   2.030   3.744
  216WAT     H1  705   3.191   1.939   3.717
  216WAT     H2  706   3.157   2.080   3.673
  217WAT      O  707   3.414   2.648   3.810
  217WAT     H1  708   3.368   2.571   3.843
  217WAT     H2  709   3.495   2.651   3.860
  218WAT      O  710   2.255   1.735   3.398
  218WAT     H1  711   2.166   1.769   3.388
  218WAT     H2  712   2.283   1.715   3.309
  219WAT      O  713   3.037   2.877   3.772
  219WAT     H1  714   2.975   2.923   3.715
  219WAT     H2  715   3.122   2.892   3.732
  220WAT      O  716   2.472   1.593   3.501
  220WAT     H1  717   2.483   1.683   3.532
  220WAT     H2  718   2.381   1.588   3.472
  221WAT      O  719   3.437   1.506   3.648
  221WAT     H1  720   3.519   1.457   3.653
  221WAT     H2  721   3.441   1.565   3.724
  222WAT      O  722   3.123   2.365   3.511
  222WAT     H1  723   3.061   2.412   3.455
  222WAT     H2  724   3.175   2.435   3.553
  223WAT      O  725   2.060   2.434   3.248
  223WAT     H1  726   2.022   2.483   3.175
  223WAT     H2  727   2.086   2.501   3.312
  224WAT      O  728   2.821   1.274   3.794
  224WAT     H1  729   2.852   1.219   3.723
  224WAT     H2  730   2.728   1.288   3.776
  225WAT      O  731   3.506   2.518   3.532
  225WAT     H1  732   3.495   2.424   3.545
  225WAT     H2  733   3.505   2.554   3.621
  226WAT      O  734   3.060   2.081   3.468
  226WAT     H1  735   2.967   2.074   3.491
  226WAT     H2  736   3.075   2.174   3.456
  227WAT      O  737   3.058   1.708   3.168
  227WAT     H1  738   2.965   1.724   3.176
  227WAT     H2  739   3.090   1.780   3.113
  228WAT      O  740   3.463   2.237   3.518
  228WAT     H1  741   3.401   2.203   3.454
  228WAT     H2  742   3.461   2.172   3.589
  229WAT      O  743   2.620   2.133   3.746
  229WAT     H1  744   2.580   2.062   3.697
  229WAT     H2  745   2.629   2.099   3.835
  230WAT      O  746   3.280   2.161   3.219
  230WAT     H1  747   3.324   2.077   3.204
  230WAT     H2  748   3.352   2.224   3.228
  231WAT      O  749   3.091   2.655   3.616
  231WAT     H1  750   3.135   2.729   3.574
  231WAT     H2  751   3.085   2.679   3.708
  232WAT      O  752   3.639   1.286   3.050
  232WAT     H1  753   3.607   1.295   3.140
  232WAT     H2  754   3.715   1.344   3.045
  233WAT      O  755   2.290   2.023   3.496
  233WAT     H1  756   2.278   2.095   3.435
  233WAT     H2  757   2.259   1.946   3.448
  234WAT      O  758   2.179   2.510   3.718
  234WAT     H1  759   2.138   2.524   3.632
  234WAT     H2  760   2.268   2.481   3.698
  235WAT      O  761   3.358   2.953   3.351
  235WAT     H1  762   3.342   2.924   3.441
  235WAT     H2  763   3.342   2.876   3.298
  236WAT      O  764   2.606   2.931   3.529
  236WAT     H1  765   2.588   2.840   3.508
  236WAT     H2  766   2.521   2.967   3.553
  237WAT      O  767   3.328   2.704   3.207
  237WAT     H1  768   3.259   2.704   3.141
  237WAT     H2  769   3.403   2.662   3.164
  238WAT      O  770   3.285   2.867   3.615
  238WAT     H1  771   3.330   2.789   3.646
  238WAT     H2  772   3.319   2.938   3.669
  239WAT      O  773   2.537   1.357   3.834
  239WAT     H1  774   2.493   1.435   3.801
  239WAT     H2  775   2.593   1.389   3.905
  240WAT      O  776   2.849   1.319   3.322
  240WAT     H1  777   2.786   1.319   3.395
  240WAT     H2  778   2.840   1.232   3.283
  241WAT      O  779   2.516   1.869   3.607
  241WAT     H1  780   2.494   1.848   3.698
  241WAT     H2  781   2.438   1.913   3.573
  242WAT      O  782   3.239   1.870   3.467
  242WAT     H1  783   3.179   1.942   3.449
  242WAT     H2  784   3.294   1.864   3.389
  243WAT      O  785   3.100   1.734   3.670
  243WAT     H1  786   3.139   1.765   3.589
  243WAT     H2  787   3.136   1.646   3.682
  244WAT      O  788   2.022   1.787   3.013
  244WAT     H1  789   2.014   1.881   3.028
  244WAT     H2  790   1.987   1.773   2.926
  245WAT      O  791   2.387   1.648   3.816
  245WAT     H1  792   2.353   1.696   3.892
  245WAT     H2  793   2.311   1.603   3.780
  246WAT      O  794   2.808   1.760   3.219
  246WAT     H1  795   2.820   1.756   3.314
  246WAT     H2  796   2.770   1.847   3.204
  247WAT      O  797   2.710   1.991   3.159
  247WAT     H1  798   2.653   1.947   3.096
  247WAT     H2  799   2.780   2.027   3.106
  248WAT      O  800   2.119   1.541   3.708
  248WAT     H1  801   2.090   1.504   3.792
  248WAT     H2  802   2.112   1.467   3.646
  249WAT      O  803   2.464   2.391   3.386
  249WAT     H1  804   2.387   2.337   3.370
  249WAT     H2  805   2.537   2.339   3.353
  250WAT      O  806   3.086   1.430   3.380
  250WAT     H1  807   3.005   1.380   3.372
  250WAT     H2  808   3.067   1.514   3.338
  251WAT      O  809   3.357   1.867   3.210
  251WAT     H1  810   3.446   1.898   3.192
  251WAT     H2  811   3.355   1.780   3.170
  252WAT      O  812   2.468   2.358   3.750
  252WAT     H1  813   2.520   2.277   3.745
  252WAT     H2  814   2.423   2.352   3.834
  253WAT      O  815   2.957   2.484   3.277
  253WAT     H1  816   2.991   2.559   3.228
  253WAT     H2  817   2.874   2.516   3.314
  254WAT      O  818   3.585   1.998   3.156
  254WAT     H1  819   3.576   2.041   3.071
  254WAT     H2  820   3.657   2.044   3.200
  255WAT      O  821   3.688   2.684   3.429
  255WAT     H1  822   3.623   2.618   3.457
  255WAT     H2  823   3.649   2.724   3.352
  256WAT      O  824   3.245   2.417   3.814
  256WAT     H1  825   3.281   2.357   3.748
  256WAT     H2  826   3.157   2.384   3.831
  257WAT      O  827   2.854   2.493   3.555
  257WAT     H1  828   2.923   2.547   3.593
  257WAT     H2  829   2.775   2.547   3.558
  258WAT      O  830   2.068   2.054   3.104
  258WAT     H1  831   2.155   2.083   3.132
  258WAT     H2  832   2.019   2.136   3.092
  259WAT      O  833   2.784   2.193   3.516
  259WAT     H1  834   2.830   2.274   3.538
  259WAT     H2  835   2.749   2.161   3.599
  260WAT      O  836   2.374   1.227   3.563
  260WAT     H1  837   2.362   1.227   3.658
  260WAT     H2  838   2.292   1.261   3.528
  261WAT      O  839   3.526   2.573   3.083
  261WAT     H1  840   3.504   2.501   3.142
  261WAT     H2  841   3.487   2.548   2.999
  262WAT      O  842   2.105   2.976   3.160
  262WAT     H1  843   2.141   3.035   3.095
  262WAT     H2  844   2.091   3.030   3.238
  263WAT      O  845   3.485   2.365   3.249
  263WAT     H1  846   3.456   2.411   3.328
  263WAT     H2  847   3.564   2.319   3.276
  264WAT      O  848   2.706   2.714   3.242
  264WAT     H1  849   2.705   2.787   3.181
  264WAT     H2  850   2.614   2.689   3.251
  265WAT      O  851   2.266   2.236   3.317
  265WAT     H1  852   2.206   2.310   3.318
  265WAT     H2  853   2.314   2.245   3.234
  266WAT      O  854   3.560   1.548   3.365
  266WAT     H1  855   3.497   1.559   3.294
  266WAT     H2  856   3.511   1.570   3.444
  267WAT      O  857   3.005   2.720   3.108
  267WAT     H1  858   3.015   2.700   3.015
  267WAT     H2  859   2.915   2.695   3.129
  268WAT      O  860   2.757   1.776   3.507
  268WAT     H1  861   2.686   1.823   3.551
  268WAT     H2  862   2.786   1.710   3.570
  269WAT      O  863   3.160   1.448   3.651
  269WAT     H1  864   3.148   1.450   3.556
  269WAT     H2  865   3.255   1.453   3.663
  270WAT      O  866   2.869   2.972   3.578
  270WAT     H1  867   2.895   2.968   3.486
  270WAT     H2  868   2.774   2.959   3.577
  271WAT      O  869   2.578   1.607   3.244
  271WAT     H1  870   2.662   1.650   3.237
  271WAT     H2  871   2.541   1.638   3.327
  272WAT      O  872   3.470   2.064   3.735
  272WAT     H1  873   3.376   2.065   3.753
  272WAT     H2  874   3.501   1.985   3.780
  273WAT      O  875   2.467   2.232   3.091
  273WAT     H1  876   2.544   2.221   3.148
  273WAT     H2  877   2.475   2.162   3.026
  274WAT      O  878   2.337   1.975   3.160
  274WAT     H1  879   2.345   1.881   3.171
  274WAT     H2  880   2.426   2.008   3.170
  275WAT      O  881   2.417   2.990   3.870
  275WAT     H1  882   2.491   2.935   3.897
  275WAT     H2  883   2.455   3.077   3.856
  276WAT      O  884   2.106   2.597   3.458
  276WAT     H1  885   2.013   2.621   3.457
  276WAT     H2  886   2.152   2.680   3.445
  277WAT      O  887   2.728   2.908   3.052
  277WAT     H1  888   2.807   2.937   3.007
  277WAT     H2  889   2.676   2.865   2.985
  278WAT      O  890   3.633   2.830   3.195
  278WAT     H1  891   3.605   2.789   3.113
  278WAT     H2  892   3.614   2.923   3.183
  279WAT      O  893   2.780   2.430   3.039
  279WAT     H1  894   2.769   2.368   3.111
  279WAT     H2  895   2.763   2.377   2.960
  280WAT      O  896   3.104   2.336   3.099
  280WAT     H1  897   3.049   2.381   3.164
  280WAT     H2  898   3.166   2.285   3.152
  281WAT      O  899   2.671   2.232   3.289
  281WAT     H1  900   2.713   2.215   3.373
  281WAT     H2  901   2.683   2.151   3.239
  282WAT      O  902   2.922   2.134   3.014
  282WAT     H1  903   2.974   2.063   2.977
  282WAT     H2  904   2.987   2.198   3.044
  283WAT      O  905   2.560   1.839   2.983
  283WAT     H1  906   2.540   1.753   3.020
  283WAT     H2  907   2.543   1.830   2.890
  284WAT      O  908   3.308   1.320   3.236
  284WAT     H1  909   3.336   1.236   3.272
  284WAT     H2  910   3.231   1.343   3.288
  285WAT      O  911   2.440   1.549   2.982
  285WAT     H1  912   2.470   1.550   2.891
  285WAT     H2  913   2.514   1.514   3.032
  286WAT      O  914   2.762   1.443   3.081
  286WAT     H1  915   2.727   1.376   3.023
  286WAT     H2  916   2.782   1.397   3.162
  287WAT      O  917   2.978   2.942   3.243
  287WAT     H1  918   3.068   2.976   3.245
  287WAT     H2  919   2.982   2.870   3.180
  288WAT      O  920   2.342   2.480   3.066
  288WAT     H1  921   2.386   2.534   3.131
  288WAT     H2  922   2.391   2.397   3.066
  289WAT      O  923   2.064   2.758   3.811
  289WAT     H1  924   2.097   2.672   3.788
  289WAT     H2  925   2.107   2.779   3.894
  290WAT      O  926   2.523   2.592   3.577
  290WAT     H1  927   2.493   2.579   3.667
  290WAT     H2  928   2.513   2.506   3.536
  291WAT      O  929   2.096   2.096   3.720
  291WAT     H1  930   2.030   2.069   3.656
  291WAT     H2  931   2.180   2.085   3.675
  292WAT      O  932   3.751   2.273   3.013
  292WAT     H1  933   3.779   2.364   3.000
  292WAT     H2  934   3.732   2.267   3.107
  293WAT      O  935   3.391   1.576   3.143
  293WAT     H1  936   3.433   1.557   3.059
  293WAT     H2  937   3.360   1.491   3.174
  294WAT      O  938   3.741   2.067   3.512
  294WAT     H1  939   3.703   1.990   3.469
  294WAT     H2  940   3.668   2.105   3.561
  295WAT      O  941   2.017   1.817   3.315
  295WAT     H1  942   1.927   1.844   3.297
  295WAT     H2  943   2.066   1.844   3.237
  296WAT      O  944   2.272   1.723   3.106
  296WAT     H1  945   2.343   1.681   3.057
  296WAT     H2  946   2.200   1.730   3.042
  297WAT      O  947   2.236   1.328   3.010
  297WAT     H1  948   2.309   1.382   3.041
  297WAT     H2  949   2.264   1.301   2.922
  298WAT      O  950   3.617   1.815   3.436
  298WAT     H1  951   3.667   1.792   3.515
  298WAT     H2  952   3.597   1.731   3.395
  299WAT      O  953   3.551   2.943   3.676
  299WAT     H1  954   3.610   2.911   3.608
  299WAT     H2  955   3.576   2.896   3.755
  300WAT      O  956   3.686   1.335   3.722
  300WAT     H1  957   3.680   1.241   3.708
  300WAT     H2  958   3.764   1.346   3.777
  301WAT      O  959   2.117   2.949   3.619
  301WAT     H1  960   2.100   2.886   3.689
  301WAT     H2  961   2.030   2.970   3.584
  302WAT      O  962   2.179   1.332   3.369
  302WAT     H1  963   2.255   1.344   3.312
  302WAT     H2  964   2.133   1.416   3.364
  303WAT      O  965   2.833   1.544   3.668
  303WAT     H1  966   2.752   1.506   3.634
  303WAT     H2  967   2.883   1.468   3.698
  304WAT      O  968   3.283   1.210   3.792
  304WAT     H1  969   3.344   1.267   3.839
  304WAT     H2  970   3.209   1.267   3.770
  305WAT      O  971   3.598   1.250   3.319
  305WAT     H1  972   3.617   1.340   3.346
  305WAT     H2  973   3.519   1.227   3.369
  306WAT      O  974   2.277   2.818   3.363
  306WAT     H1  975   2.225   2.857   3.293
  306WAT     H2  976   2.270   2.881   3.435
  307WAT      O  977   2.416   1.385   3.223
  307WAT     H1  978   2.469   1.306   3.210
  307WAT     H2  979   2.479   1.453   3.246
  308WAT      O  980   2.635   1.359   3.528
  308WAT     H1  981   2.572   1.289   3.545
  308WAT     H2  982   2.582   1.435   3.507
  309WAT      O  983   3.753   2.974   3.495
  309WAT     H1  984   3.770   2.906   3.431
  309WAT     H2  985   3.683   3.027   3.456
  310WAT      O  986   2.537   3.013   3.251
  310WAT     H1  987   2.610   2.985   3.196
  310WAT     H2  988   2.563   2.989   3.340
  311WAT      O  989   2.453   2.625   3.251
  311WAT     H1  990   2.390   2.672   3.306
  311WAT     H2  991   2.465   2.540   3.295
  312WAT      O  992   3.199   2.030   1.866
  312WAT     H1  993   3.191   1.939   1.839
  312WAT     H2  994   3.157   2.080   1.796
  313WAT      O  995   3.012   2.208   2.054
  313WAT     H1  996   2.934   2.160   2.083
  313WAT     H2  997   3.077   2.140   2.037
  314WAT      O  998   3.414   2.648   1.932
  314WAT     H1  999   3.368   2.571   1.965
  314WAT     H2 1000   3.495   2.651   1.983
  315WAT      O 1001   2.412   2.642   2.162
  315WAT     H1 1002   2.442   2.553   2.144
  315WAT     H2 1003   2.486   2.698   2.139
  316WAT      O 1004   2.255   1.735   1.520
  316WAT     H1 1005   2.166   1.769   1.510
  316WAT     H2 1006   2.283   1.715   1.431
  317WAT      O 1007   3.037   2.877   1.894
  317WAT     H1 1008   2.975   2.923   1.837
  317WAT     H2 1009   3.122   2.892   1.854
  318WAT      O 1010   2.956   2.475   2.055
  318WAT     H1 1011   2.949   2.381   2.039
  318WAT     H2 1012   3.032   2.484   2.112
  319WAT      O 1013   3.059   1.756   2.078
  319WAT     H1 1014   3.097   1.669   2.066
  319WAT     H2 1015   3.049   1.790   1.989
  320WAT      O 1016   2.472   1.593   1.624
  320WAT     H1 1017   2.483   1.683   1.655
  320WAT     H2 1018   2.381   1.588   1.595
  321WAT      O 1019   3.437   1.506   1.771
  321WAT     H1 1020   3.519   1.457   1.775
  321WAT     H2 1021   3.441   1.565   1.846
  322WAT      O 1022   2.485   1.354   2.484
  322WAT     H1 1023   2.485   1.406   2.403
  322WAT     H2 1024   2.402   1.306   2.481
  323WAT      O 1025   3.123   2.365   1.634
  323WAT     H1 1026   3.061   2.412   1.577
  323WAT     H2 1027   3.175   2.435   1.675
  324WAT      O 1028   2.610   2.318   2.301
  324WAT     H1 1029   2.576   2.381   2.366
  324WAT     H2 1030   2.627   2.371   2.223
  325WAT      O 1031   3.461   1.700   2.048
  325WAT     H1 1032   3.390   1.728   2.106
  325WAT     H2 1033   3.497   1.781   2.012
  326WAT      O 1034   2.531   2.515   2.483
  326WAT     H1 1035   2.593   2.582   2.455
  326WAT     H2 1036   2.445   2.556   2.474
  327WAT      O 1037   3.623   2.661   2.274
  327WAT     H1 1038   3.554   2.728   2.274
  327WAT     H2 1039   3.676   2.681   2.198
  328WAT      O 1040   3.768   1.644   2.087
  328WAT     H1 1041   3.673   1.647   2.100
  328WAT     H2 1042   3.800   1.725   2.126
  329WAT      O 1043   2.821   1.274   1.917
  329WAT     H1 1044   2.852   1.219   1.845
  329WAT     H2 1045   2.728   1.288   1.899
  330WAT      O 1046   3.376   2.846   2.146
  330WAT     H1 1047   3.377   2.805   2.059
  330WAT     H2 1048   3.321   2.923   2.136
  331WAT      O 1049   3.506   2.518   1.655
  331WAT     H1 1050   3.495   2.424   1.667
  331WAT     H2 1051   3.505   2.554   1.743
  332WAT      O 1052   3.316   2.336   2.279
  332WAT     H1 1053   3.358   2.315   2.195
  332WAT     H2 1054   3.388   2.362   2.336
  333WAT      O 1055   3.060   2.081   1.590
  333WAT     H1 1056   2.967   2.074   1.613
  333WAT     H2 1057   3.075   2.174   1.579
  334WAT      O 1058   3.058   1.708   1.290
  334WAT     H1 1059   2.965   1.724   1.299
  334WAT     H2 1060   3.090   1.780   1.235
  335WAT      O 1061   3.711   2.176   2.288
  335WAT     H1 1062   3.628   2.183   2.240
  335WAT     H2 1063   3.770   2.234   2.241
  336WAT      O 1064   3.463   2.237   1.641
  336WAT     H1 1065   3.401   2.203   1.576
  336WAT     H2 1066   3.461   2.172   1.712
  337WAT      O 1067   3.407   1.855   2.382
  337WAT     H1 1068   3.366   1.937   2.408
  337WAT     H2 1069   3.334   1.796   2.363
  338WAT      O 1070   2.620   2.133   1.869
  338WAT     H1 1071   2.580   2.062   1.819
  338WAT     H2 1072   2.629   2.099   1.958
  339WAT      O 1073   2.667   2.502   2.085
  339WAT     H1 1074   2.637   2.441   2.017
  339WAT     H2 1075   2.762   2.506   2.074
  340WAT      O 1076   3.476   2.859   2.451
  340WAT     H1 1077   3.428   2.940   2.432
  340WAT     H2 1078   3.408   2.794   2.467
  341WAT      O 1079   2.576   2.476   2.750
  341WAT     H1 1080   2.487   2.498   2.775
  341WAT     H2 1081   2.579   2.488   2.655
  342WAT      O 1082   3.280   2.161   1.342
  342WAT     H1 1083   3.324   2.077   1.327
  342WAT     H2 1084   3.352   2.224   1.350
  343WAT      O 1085   2.459   2.163   2.608
  343WAT     H1 1086   2.445   2.250   2.645
  343WAT     H2 1087   2.371   2.129   2.593
  344WAT      O 1088   3.091   2.655   1.738
  344WAT     H1 1089   3.135   2.729   1.697
  344WAT     H2 1090   3.085   2.679   1.831
  345WAT      O 1091   2.639   2.757   2.829
  345WAT     H1 1092   2.636   2.797   2.742
  345WAT     H2 1093   2.623   2.664   2.812
  346WAT      O 1094   3.639   1.286   1.173
  346WAT     H1 1095   3.607   1.295   1.263
  346WAT     H2 1096   3.715   1.344   1.168
  347WAT      O 1097   3.774   2.554   2.674
  347WAT     H1 1098   3.787   2.531   2.582
  347WAT     H2 1099   3.779   2.471   2.721
  348WAT      O 1100   3.161   2.925   2.531
  348WAT     H1 1101   3.212   2.916   2.611
  348WAT     H2 1102   3.076   2.959   2.560
  349WAT      O 1103   3.358   2.953   1.474
  349WAT     H1 1104   3.342   2.924   1.564
  349WAT     H2 1105   3.342   2.876   1.420
  350WAT      O 1106   2.606   2.931   1.652
  350WAT     H1 1107   2.588   2.840   1.630
  350WAT     H2 1108   2.521   2.967   1.676
  351WAT      O 1109   3.328   2.704   1.330
  351WAT     H1 1110   3.259   2.704   1.264
  351WAT     H2 1111   3.403   2.662   1.287
  352WAT      O 1112   3.285   2.867   1.737
  352WAT     H1 1113   3.330   2.789   1.769
  352WAT     H2 1114   3.319   2.938   1.792
  353WAT      O 1115   3.760   1.760   2.771
  353WAT     H1 1116   3.698   1.811   2.718
  353WAT     H2 1117   3.728   1.670   2.765
  354WAT      O 1118   2.060   2.444   2.453
  354WAT     H1 1119   2.076   2.397   2.372
  354WAT     H2 1120   2.106   2.393   2.520
  355WAT      O 1121   2.966   1.644   2.517
  355WAT     H1 1122   2.920   1.665   2.599
  355WAT     H2 1123   2.926   1.562   2.487
  356WAT      O 1124   3.466   1.766   2.630
  356WAT     H1 1125   3.381   1.736   2.662
  356WAT     H2 1126   3.450   1.790   2.539
  357WAT      O 1127   3.175   1.916   2.840
  357WAT     H1 1128   3.208   1.832   2.806
  357WAT     H2 1129   3.254   1.968   2.855
  358WAT      O 1130   2.849   1.319   1.445
  358WAT     H1 1131   2.786   1.319   1.518
  358WAT     H2 1132   2.840   1.232   1.405
  359WAT      O 1133   2.741   1.411   2.143
  359WAT     H1 1134   2.771   1.502   2.135
  359WAT     H2 1135   2.796   1.363   2.081
  360WAT      O 1136   3.239   1.870   1.590
  360WAT     H1 1137   3.179   1.942   1.571
  360WAT     H2 1138   3.294   1.864   1.511
  361WAT      O 1139   2.760   1.959   2.796
  361WAT     H1 1140   2.751   1.865   2.781
  361WAT     H2 1141   2.845   1.981   2.757
  362WAT      O 1142   3.100   1.734   1.793
  362WAT     H1 1143   3.139   1.765   1.711
  362WAT     H2 1144   3.136   1.646   1.804
  363WAT      O 1145   2.931   1.609   2.919
  363WAT     H1 1146   2.862   1.589   2.982
  363WAT     H2 1147   3.005   1.637   2.972
  364WAT      O 1148   2.022   1.787   1.136
  364WAT     H1 1149   2.014   1.881   1.150
  364WAT     H2 1150   1.987   1.773   1.048
  365WAT      O 1151   3.158   1.993   2.202
  365WAT     H1 1152   3.085   2.044   2.237
  365WAT     H2 1153   3.119   1.911   2.172
  366WAT      O 1154   2.802   1.660   2.043
  366WAT     H1 1155   2.803   1.616   1.958
  366WAT     H2 1156   2.892   1.692   2.053
  367WAT      O 1157   2.808   1.760   1.342
  367WAT     H1 1158   2.820   1.756   1.437
  367WAT     H2 1159   2.770   1.847   1.326
  368WAT      O 1160   3.205   1.538   2.143
  368WAT     H1 1161   3.206   1.583   2.228
  368WAT     H2 1162   3.180   1.448   2.165
  369WAT      O 1163   2.710   1.991   1.282
  369WAT     H1 1164   2.653   1.947   1.219
  369WAT     H2 1165   2.780   2.027   1.228
  370WAT      O 1166   3.547   1.279   2.727
  370WAT     H1 1167   3.580   1.206   2.780
  370WAT     H2 1168   3.551   1.247   2.637
  371WAT      O 1169   2.217   2.381   2.669
  371WAT     H1 1170   2.179   2.317   2.729
  371WAT     H2 1171   2.248   2.452   2.726
  372WAT      O 1172   2.832   2.066   2.217
  372WAT     H1 1173   2.869   2.019   2.292
  372WAT     H2 1174   2.813   2.154   2.251
  373WAT      O 1175   2.611   1.970   2.449
  373WAT     H1 1176   2.581   2.058   2.472
  373WAT     H2 1177   2.707   1.976   2.453
  374WAT      O 1178   2.464   2.391   1.509
  374WAT     H1 1179   2.387   2.337   1.493
  374WAT     H2 1180   2.537   2.339   1.475
  375WAT      O 1181   3.540   2.291   2.088
  375WAT     H1 1182   3.612   2.340   2.049
  375WAT     H2 1183   3.520   2.223   2.024
  376WAT      O 1184   3.086   1.430   1.502
  376WAT     H1 1185   3.005   1.380   1.495
  376WAT     H2 1186   3.067   1.514   1.461
  377WAT      O 1187   3.078   2.298   2.677
  377WAT     H1 1188   3.071   2.206   2.651
  377WAT     H2 1189   3.015   2.307   2.748
  378WAT      O 1190   3.357   1.867   1.332
  378WAT     H1 1191   3.446   1.898   1.315
  378WAT     H2 1192   3.355   1.780   1.293
  379WAT      O 1193   2.957   2.484   1.400
  379WAT     H1 1194   2.991   2.559   1.350
  379WAT     H2 1195   2.874   2.516   1.436
  380WAT      O 1196   2.537   2.100   2.852
  380WAT     H1 1197   2.507   2.115   2.763
  380WAT     H2 1198   2.614   2.044   2.843
  381WAT      O 1199   3.071   2.580   2.652
  381WAT     H1 1200   3.073   2.487   2.630
  381WAT     H2 1201   3.001   2.588   2.716
  382WAT      O 1202   3.585   1.998   1.279
  382WAT     H1 1203   3.576   2.041   1.194
  382WAT     H2 1204   3.657   2.044   1.322
  383WAT      O 1205   3.692   2.244   2.587
  383WAT     H1 1206   3.620   2.303   2.567
  383WAT     H2 1207   3.745   2.243   2.507
  384WAT      O 1208   3.688   2.684   1.552
  384WAT     H1 1209   3.623   2.618   1.579
  384WAT     H2 1210   3.649   2.724   1.474
  385WAT      O 1211   3.245   2.417   1.936
  385WAT     H1 1212   3.281   2.357   1.870
  385WAT     H2 1213   3.157   2.384   1.954
  386WAT      O 1214   2.854   2.493   1.677
  386WAT     H1 1215   2.923   2.547   1.715
  386WAT     H2 1216   2.775   2.547   1.681
  387WAT      O 1217   2.068   2.054   1.226
  387WAT     H1 1218   2.155   2.083   1.255
  387WAT     H2 1219   2.019   2.136   1.215
  388WAT      O 1220   2.784   2.193   1.638
  388WAT     H1 1221   2.830   2.274   1.661
  388WAT     H2 1222   2.749   2.161   1.722
  389WAT      O 1223   3.015   2.744   2.361
  389WAT     H1 1224   3.079   2.765   2.429
  389WAT     H2 1225   3.051   2.668   2.316
  390WAT      O 1226   2.374   1.227   1.686
  390WAT     H1 1227   2.362   1.227   1.780
  390WAT     H2 1228   2.292   1.261   1.651
  391WAT      O 1229   3.142   2.544   2.233
  391WAT     H1 1230   3.206   2.474   2.244
  391WAT     H2 1231   3.194   2.622   2.215
  392WAT      O 1232   3.526   2.573   1.205
  392WAT     H1 1233   3.504   2.501   1.265
  392WAT     H2 1234   3.487   2.548   1.122
  393WAT      O 1235   3.319   2.624   2.553
  393WAT     H1 1236   3.353   2.683   2.621
  393WAT     H2 1237   3.227   2.611   2.576
  394WAT      O 1238   2.105   2.976   1.283
  394WAT     H1 1239   2.141   3.035   1.217
  394WAT     H2 1240   2.091   3.030   1.360
  395WAT      O 1241   2.074   1.403   2.632
  395WAT     H1 1242   2.003   1.423   2.692
  395WAT     H2 1243   2.116   1.326   2.669
  396WAT      O 1244   3.485   2.365   1.372
  396WAT     H1 1245   3.456   2.411   1.450
  396WAT     H2 1246   3.564   2.319   1.398
  397WAT      O 1247   2.103   2.802   2.730
  397WAT     H1 1248   2.114   2.708   2.716
  397WAT     H2 1249   2.038   2.829   2.665
  398WAT      O 1250   2.902   2.629   2.870
  398WAT     H1 1251   2.870   2.557   2.925
  398WAT     H2 1252   2.835   2.697   2.878
  399WAT      O 1253   2.706   2.714   1.365
  399WAT     H1 1254   2.705   2.787   1.303
  399WAT     H2 1255   2.614   2.689   1.374
  400WAT      O 1256   3.224   1.653   2.407
  400WAT     H1 1257   3.261   1.570   2.439
  400WAT     H2 1258   3.138   1.659   2.448
  401WAT      O 1259   3.560   1.548   1.488
  401WAT     H1 1260   3.497   1.559   1.416
  401WAT     H2 1261   3.511   1.570   1.567
  402WAT      O 1262   3.005   2.720   1.231
  402WAT     H1 1263   3.015   2.700   1.138
  402WAT     H2 1264   2.915   2.695   1.251
  403WAT      O 1265   2.757   1.776   1.629
  403WAT     H1 1266   2.686   1.823   1.673
  403WAT     H2 1267   2.786   1.710   1.693
  404WAT      O 1268   2.920   1.918   2.429
  404WAT     H1 1269   2.970   1.965   2.496
  404WAT     H2 1270   2.934   1.826   2.450
  405WAT      O 1271   3.160   1.448   1.773
  405WAT     H1 1272   3.148   1.450   1.678
  405WAT     H2 1273   3.255   1.453   1.785
  406WAT      O 1274   2.869   2.972   1.700
  406WAT     H1 1275   2.895   2.968   1.608
  406WAT     H2 1276   2.774   2.959   1.700
  407WAT      O 1277   2.578   1.607   1.367
  407WAT     H1 1278   2.662   1.650   1.360
  407WAT     H2 1279   2.541   1.638   1.449
  408WAT      O 1280   3.640   1.540   2.513
  408WAT     H1 1281   3.590   1.614   2.547
  408WAT     H2 1282   3.722   1.578   2.482
  409WAT      O 1283   3.470   2.064   1.858
  409WAT     H1 1284   3.376   2.065   1.875
  409WAT     H2 1285   3.501   1.985   1.903
  410WAT      O 1286   2.467   2.232   1.214
  410WAT     H1 1287   2.544   2.221   1.270
  410WAT     H2 1288   2.475   2.162   1.149
  411WAT      O 1289   2.337   1.975   1.282
  411WAT     H1 1290   2.345   1.881   1.294
  411WAT     H2 1291   2.426   2.008   1.293
  412WAT      O 1292   3.670   2.781   2.026
  412WAT     H1 1293   3.682   2.863   2.073
  412WAT     H2 1294   3.757   2.760   1.991
  413WAT      O 1295   2.417   2.990   1.993
  413WAT     H1 1296   2.491   2.935   2.020
  413WAT     H2 1297   2.455   3.077   1.979
  414WAT      O 1298   2.318   2.909   2.912
  414WAT     H1 1299   2.398   2.941   2.953
  414WAT     H2 1300   2.266   2.873   2.984
  415WAT      O 1301   2.728   2.908   1.175
  415WAT     H1 1302   2.807   2.937   1.130
  415WAT     H2 1303   2.676   2.865   1.107
  416WAT      O 1304   3.201   2.520   2.906
  416WAT     H1 1305   3.141   2.522   2.832
  416WAT     H2 1306   3.171   2.446   2.960
  417WAT      O 1307   3.344   2.892   2.767
  417WAT     H1 1308   3.440   2.884   2.762
  417WAT     H2 1309   3.330   2.959   2.835
  418WAT      O 1310   3.633   2.830   1.317
  418WAT     H1 1311   3.605   2.789   1.236
  418WAT     H2 1312   3.614   2.923   1.305
  419WAT      O 1313   2.090   2.158   2.806
  419WAT     H1 1314   2.140   2.100   2.863
  419WAT     H2 1315   2.016   2.186   2.860
  420WAT      O 1316   2.780   2.430   1.161
  420WAT     H1 1317   2.769   2.368   1.234
  420WAT     H2 1318   2.763   2.377   1.083
  421WAT      O 1319   2.795   2.298   2.759
  421WAT     H1 1320   2.718   2.355   2.751
  421WAT     H2 1321   2.813   2.269   2.670
  422WAT      O 1322   3.104   2.336   1.222
  422WAT     H1 1323   3.049   2.381   1.286
  422WAT     H2 1324   3.166   2.285   1.274
  423WAT      O 1325   3.509   2.471   2.815
  423WAT     H1 1326   3.583   2.505   2.765
  423WAT     H2 1327   3.433   2.488   2.760
  424WAT      O 1328   2.293   1.972   2.895
  424WAT     H1 1329   2.297   1.942   2.986
  424WAT     H2 1330   2.378   2.012   2.879
  425WAT      O 1331   2.671   2.232   1.411
  425WAT     H1 1332   2.713   2.215   1.496
  425WAT     H2 1333   2.683   2.151   1.362
  426WAT      O 1334   2.487   1.830   2.692
  426WAT     H1 1335   2.434   1.781   2.629
  426WAT     H2 1336   2.554   1.873   2.639
  427WAT      O 1337   2.922   2.134   1.136
  427WAT     H1 1338   2.974   2.063   1.100
  427WAT     H2 1339   2.987   2.198   1.166
  428WAT      O 1340   3.377   2.276   2.669
  428WAT     H1 1341   3.418   2.292   2.753
  428WAT     H2 1342   3.283   2.289   2.685
  429WAT      O 1343   3.424   2.010   2.869
  429WAT     H1 1344   3.482   1.935   2.860
  429WAT     H2 1345   3.442   2.063   2.791
  430WAT      O 1346   2.536   1.526   2.700
  430WAT     H1 1347   2.526   1.465   2.628
  430WAT     H2 1348   2.478   1.599   2.677
  431WAT      O 1349   2.812   1.382   2.403
  431WAT     H1 1350   2.767   1.384   2.319
  431WAT     H2 1351   2.749   1.342   2.463
  432WAT      O 1352   2.853   2.272   2.466
  432WAT     H1 1353   2.895   2.356   2.448
  432WAT     H2 1354   2.761   2.285   2.443
  433WAT      O 1355   3.086   2.045   2.604
  433WAT     H1 1356   3.098   1.985   2.678
  433WAT     H2 1357   3.172   2.048   2.562
  434WAT      O 1358   3.320   2.100   2.462
  434WAT     H1 1359   3.268   2.153   2.401
  434WAT     H2 1360   3.355   2.163   2.525
  435WAT      O 1361   2.560   1.839   1.106
  435WAT     H1 1362   2.540   1.753   1.142
  435WAT     H2 1363   2.543   1.830   1.012
  436WAT      O 1364   2.638   2.902   2.577
  436WAT     H1 1365   2.584   2.975   2.545
  436WAT     H2 1366   2.663   2.854   2.498
  437WAT      O 1367   2.763   1.699   2.730
  437WAT     H1 1368   2.822   1.668   2.798
  437WAT     H2 1369   2.681   1.652   2.745
  438WAT      O 1370   3.245   1.661   2.753
  438WAT     H1 1371   3.176   1.594   2.746
  438WAT     H2 1372   3.317   1.616   2.797
  439WAT      O 1373   3.308   1.320   1.359
  439WAT     H1 1374   3.336   1.236   1.394
  439WAT     H2 1375   3.231   1.343   1.410
  440WAT      O 1376   2.440   1.549   1.105
  440WAT     H1 1377   2.470   1.550   1.014
  440WAT     H2 1378   2.514   1.514   1.154
  441WAT      O 1379   2.924   3.026   2.603
  441WAT     H1 1380   2.916   3.116   2.634
  441WAT     H2 1381   2.833   2.994   2.600
  442WAT      O 1382   2.762   1.443   1.203
  442WAT     H1 1383   2.727   1.376   1.145
  442WAT     H2 1384   2.782   1.397   1.285
  443WAT      O 1385   2.978   2.942   1.365
  443WAT     H1 1386   3.068   2.976   1.367
  443WAT     H2 1387   2.982   2.870   1.302
  444WAT      O 1388   2.342   2.480   1.188
  444WAT     H1 1389   2.386   2.534   1.254
  444WAT     H2 1390   2.391   2.397   1.189
  445WAT      O 1391   2.523   2.592   1.699
  445WAT     H1 1392   2.493   2.579   1.789
  445WAT     H2 1393   2.513   2.506   1.658
  446WAT      O 1394   2.113   2.845   2.207
  446WAT     H1 1395   2.069   2.863   2.290
  446WAT     H2 1396   2.169   2.921   2.193
  447WAT      O 1397   3.676   2.795   2.636
  447WAT     H1 1398   3.616   2.801   2.562
  447WAT     H2 1399   3.689   2.701   2.649
  448WAT      O 1400   3.545   2.468   2.446
  448WAT     H1 1401   3.463   2.511   2.472
  448WAT     H2 1402   3.586   2.529   2.384
  449WAT      O 1403   3.751   2.273   1.136
  449WAT     H1 1404   3.779   2.364   1.123
  449WAT     H2 1405   3.732   2.267   1.229
  450WAT      O 1406   3.391   1.576   1.265
  450WAT     H1 1407   3.433   1.557   1.181
  450WAT     H2 1408   3.360   1.491   1.296
  451WAT      O 1409   3.741   2.067   1.635
  451WAT     H1 1410   3.703   1.990   1.592
  451WAT     H2 1411   3.668   2.105   1.684
  452WAT      O 1412   2.200   2.135   2.297
  452WAT     H1 1413   2.236   2.126   2.385
  452WAT     H2 1414   2.143   2.059   2.287
  453WAT      O 1415   3.680   1.982   2.598
  453WAT     H1 1416   3.657   1.959   2.508
  453WAT     H2 1417   3.706   2.074   2.594
  454WAT      O 1418   3.524   1.504   2.876
  454WAT     H1 1419   3.611   1.505   2.914
  454WAT     H2 1420   3.525   1.431   2.815
  455WAT      O 1421   2.017   1.817   1.437
  455WAT     H1 1422   1.927   1.844   1.420
  455WAT     H2 1423   2.066   1.844   1.359
  456WAT      O 1424   3.668   1.890   1.965
  456WAT     H1 1425   3.721   1.840   1.902
  456WAT     H2 1426   3.727   1.903   2.039
  457WAT      O 1427   3.686   1.898   2.317
  457WAT     H1 1428   3.591   1.895   2.329
  457WAT     H2 1429   3.704   1.989   2.294
  458WAT      O 1430   2.272   1.723   1.228
  458WAT     H1 1431   2.343   1.681   1.180
  458WAT     H2 1432   2.200   1.730   1.165
  459WAT      O 1433   2.236   1.328   1.132
  459WAT     H1 1434   2.309   1.382   1.164
  459WAT     H2 1435   2.264   1.301   1.045
  460WAT      O 1436   3.617   1.815   1.559
  460WAT     H1 1437   3.667   1.792   1.637
  460WAT     H2 1438   3.597   1.731   1.517
  461WAT      O 1439   3.595   1.273   2.458
  461WAT     H1 1440   3.659   1.334   2.495
  461WAT     H2 1441   3.610   1.276   2.364
  462WAT      O 1442   3.551   2.943   1.798
  462WAT     H1 1443   3.610   2.911   1.731
  462WAT     H2 1444   3.576   2.896   1.877
  463WAT      O 1445   2.181   1.269   2.397
  463WAT     H1 1446   2.146   1.315   2.473
  463WAT     H2 1447   2.147   1.180   2.405
  464WAT      O 1448   2.341   2.586   2.813
  464WAT     H1 1449   2.337   2.549   2.901
  464WAT     H2 1450   2.354   2.680   2.827
  465WAT      O 1451   2.711   2.742   2.373
  465WAT     H1 1452   2.687   2.769   2.285
  465WAT     H2 1453   2.805   2.759   2.379
  466WAT      O 1454   2.932   1.388   2.749
  466WAT     H1 1455   2.926   1.447   2.824
  466WAT     H2 1456   3.026   1.377   2.734
  467WAT      O 1457   3.196   1.354   2.713
  467WAT     H1 1458   3.257   1.386   2.647
  467WAT     H2 1459   3.250   1.305   2.775
  468WAT      O 1460   2.248   1.222   2.724
  468WAT     H1 1461   2.303   1.204   2.648
  468WAT     H2 1462   2.254   1.143   2.778
  469WAT      O 1463   2.325   2.881   2.525
  469WAT     H1 1464   2.266   2.868   2.599
  469WAT     H2 1465   2.324   2.797   2.479
  470WAT      O 1466   3.270   1.210   2.346
  470WAT     H1 1467   3.182   1.243   2.325
  470WAT     H2 1468   3.259   1.163   2.428
  471WAT      O 1469   3.360   1.431   2.484
  471WAT     H1 1470   3.328   1.349   2.446
  471WAT     H2 1471   3.455   1.427   2.472
  472WAT      O 1472   3.606   3.008   2.181
  472WAT     H1 1473   3.560   3.083   2.144
  472WAT     H2 1474   3.543   2.936   2.175
  473WAT      O 1475   2.288   2.617   2.420
  473WAT     H1 1476   2.216   2.555   2.414
  473WAT     H2 1477   2.294   2.657   2.333
  474WAT      O 1478   2.649   2.839   2.099
  474WAT     H1 1479   2.700   2.778   2.046
  474WAT     H2 1480   2.714   2.889   2.148
  475WAT      O 1481   2.923   2.928   2.181
  475WAT     H1 1482   2.951   2.902   2.094
  475WAT     H2 1483   2.974   2.873   2.241
  476WAT      O 1484   3.044   1.302   2.239
  476WAT     H1 1485   2.966   1.349   2.267
  476WAT     H2 1486   3.015   1.211   2.229
  477WAT      O 1487   3.500   1.372   2.044
  477WAT     H1 1488   3.544   1.367   1.959
  477WAT     H2 1489   3.473   1.464   2.051
  478WAT      O 1490   3.686   1.335   1.845
  478WAT     H1 1491   3.680   1.241   1.830
  478WAT     H2 1492   3.764   1.346   1.900
  479WAT      O 1493   2.179   1.332   1.492
  479WAT     H1 1494   2.255   1.344   1.434
  479WAT     H2 1495   2.133   1.416   1.487
  480WAT      O 1496   2.833   1.544   1.791
  480WAT     H1 1497   2.752   1.506   1.757
  480WAT     H2 1498   2.883   1.468   1.821
  481WAT      O 1499   3.283   1.210   1.914
  481WAT     H1 1500   3.344   1.267   1.962
  481WAT     H2 1501   3.209   1.267   1.892
  482WAT      O 1502   3.598   1.250   1.442
  482WAT     H1 1503   3.617   1.340   1.469
  482WAT     H2 1504   3.519   1.227   1.491
  483WAT      O 1505   2.416   1.385   1.346
  483WAT     H1 1506   2.469   1.306   1.333
  483WAT     H2 1507   2.479   1.453   1.369
  484WAT      O 1508   2.635   1.359   1.651
  484WAT     H1 1509   2.572   1.289   1.668
  484WAT     H2 1510   2.582   1.435   1.629
  485WAT      O 1511   2.929   3.020   2.918
  485WAT     H1 1512   3.022   2.997   2.923
  485WAT     H2 1513   2.928   3.103   2.870
  486WAT      O 1514   3.753   2.974   1.618
  486WAT     H1 1515   3.770   2.906   1.554
  486WAT     H2 1516   3.683   3.027   1.579
  487WAT      O 1517   2.648   1.287   2.895
  487WAT     H1 1518   2.620   1.337   2.818
  487WAT     H2 1519   2.686   1.207   2.858
  488WAT      O 1520   2.537   3.013   1.373
  488WAT     H1 1521   2.610   2.985   1.319
  488WAT     H2 1522   2.563   2.989   1.462
  489WAT      O 1523   2.453   2.625   1.374
  489WAT     H1 1524   2.390   2.672   1.429
  489WAT     H2 1525   2.465   2.540   1.417
  490WAT      O 1526   3.308   1.228   2.952
  490WAT     H1 1527   3.297   1.260   3.042
  490WAT     H2 1528   3.390   1.268   2.923
  491WAT      O 1529   3.586   2.943   2.901
  491WAT     H1 1530   3.665   2.893   2.880
  491WAT     H2 1531   3.615   3.011   2.961
  492WAT      O 1532   3.012   2.208   0.177
  492WAT     H1 1533   2.934   2.160   0.206
  492WAT     H2 1534   3.077   2.140   0.159
  493WAT      O 1535   2.414   2.239   0.265
  493WAT     H1 1536   2.330   2.213   0.305
  493WAT     H2 1537   2.474   2.246   0.338
  494WAT      O 1538   2.412   2.642   0.284
  494WAT     H1 1539   2.442   2.553   0.266
  494WAT     H2 1540   2.486   2.698   0.261
  495WAT      O 1541   2.051   1.995   0.231
  495WAT     H1 1542   2.108   1.918   0.231
  495WAT     H2 1543   2.051   2.025   0.140
  496WAT      O 1544   2.956   2.475   0.178
  496WAT     H1 1545   2.949   2.381   0.161
  496WAT     H2 1546   3.032   2.484   0.235
  497WAT      O 1547   2.175   1.536   0.410
  497WAT     H1 1548   2.157   1.446   0.438
  497WAT     H2 1549   2.135   1.591   0.478
  498WAT      O 1550   2.237   1.785   0.271
  498WAT     H1 1551   2.305   1.812   0.333
  498WAT     H2 1552   2.205   1.702   0.304
  499WAT      O 1553   2.656   1.890   0.180
  499WAT     H1 1554   2.707   1.940   0.244
  499WAT     H2 1555   2.709   1.813   0.162
  500WAT      O 1556   2.485   1.354   0.606
  500WAT     H1 1557   2.485   1.406   0.526
  500WAT     H2 1558   2.402   1.306   0.604
  501WAT      O 1559   2.610   2.318   0.424
  501WAT     H1 1560   2.576   2.381   0.488
  501WAT     H2 1561   2.627   2.371   0.346
  502WAT      O 1562   2.453   1.525   0.407
  502WAT     H1 1563   2.487   1.610   0.378
  502WAT     H2 1564   2.359   1.540   0.419
  503WAT      O 1565   2.531   2.515   0.606
  503WAT     H1 1566   2.593   2.582   0.577
  503WAT     H2 1567   2.445   2.556   0.596
  504WAT      O 1568   3.623   2.661   0.397
  504WAT     H1 1569   3.554   2.728   0.396
  504WAT     H2 1570   3.676   2.681   0.321
  505WAT      O 1571   3.768   1.644   0.210
  505WAT     H1 1572   3.673   1.647   0.223
  505WAT     H2 1573   3.800   1.725   0.248
  506WAT      O 1574   3.376   2.846   0.269
  506WAT     H1 1575   3.377   2.805   0.182
  506WAT     H2 1576   3.321   2.923   0.258
  507WAT      O 1577   3.316   2.336   0.401
  507WAT     H1 1578   3.358   2.315   0.318
  507WAT     H2 1579   3.388   2.362   0.458
  508WAT      O 1580   3.711   2.176   0.410
  508WAT     H1 1581   3.628   2.183   0.363
  508WAT     H2 1582   3.770   2.234   0.364
  509WAT      O 1583   3.407   1.855   0.505
  509WAT     H1 1584   3.366   1.937   0.530
  509WAT     H2 1585   3.334   1.796   0.486
  510WAT      O 1586   2.667   2.502   0.208
  510WAT     H1 1587   2.637   2.441   0.140
  510WAT     H2 1588   2.762   2.506   0.197
  511WAT      O 1589   2.492   1.811   0.369
  511WAT     H1 1590   2.547   1.822   0.292
  511WAT     H2 1591   2.543   1.848   0.441
  512WAT      O 1592   3.476   2.859   0.574
  512WAT     H1 1593   3.428   2.940   0.555
  512WAT     H2 1594   3.408   2.794   0.589
  513WAT      O 1595   2.576   2.476   0.873
  513WAT     H1 1596   2.487   2.498   0.897
  513WAT     H2 1597   2.579   2.488   0.778
  514WAT      O 1598   2.459   2.163   0.730
  514WAT     H1 1599   2.445   2.250   0.767
  514WAT     H2 1600   2.371   2.129   0.716
  515WAT      O 1601   2.639   2.757   0.951
  515WAT     H1 1602   2.636   2.797   0.864
  515WAT     H2 1603   2.623   2.664   0.935
  516WAT      O 1604   2.054   2.340   0.322
  516WAT     H1 1605   2.062   2.353   0.228
  516WAT     H2 1606   2.116   2.269   0.341
  517WAT      O 1607   3.774   2.554   0.797
  517WAT     H1 1608   3.787   2.531   0.705
  517WAT     H2 1609   3.779   2.471   0.844
  518WAT      O 1610   3.161   2.925   0.654
  518WAT     H1 1611   3.212   2.916   0.734
  518WAT     H2 1612   3.076   2.959   0.683
  519WAT      O 1613   3.760   1.760   0.893
  519WAT     H1 1614   3.698   1.811   0.840
  519WAT     H2 1615   3.728   1.670   0.888
  520WAT      O 1616   2.060   2.444   0.576
  520WAT     H1 1617   2.076   2.397   0.494
  520WAT     H2 1618   2.106   2.393   0.642
  521WAT      O 1619   2.966   1.644   0.640
  521WAT     H1 1620   2.920   1.665   0.721
  521WAT     H2 1621   2.926   1.562   0.610
  522WAT      O 1622   3.466   1.766   0.753
  522WAT     H1 1623   3.381   1.736   0.785
  522WAT     H2 1624   3.450   1.790   0.662
  523WAT      O 1625   3.175   1.916   0.963
  523WAT     H1 1626   3.208   1.832   0.929
  523WAT     H2 1627   3.254   1.968   0.978
  524WAT      O 1628   2.741   1.411   0.265
  524WAT     H1 1629   2.771   1.502   0.257
  524WAT     H2 1630   2.796   1.363   0.204
  525WAT      O 1631   2.760   1.959   0.919
  525WAT     H1 1632   2.751   1.865   0.904
  525WAT     H2 1633   2.845   1.981   0.879
  526WAT      O 1634   2.273   1.600   0.734
  526WAT     H1 1635   2.234   1.685   0.755
  526WAT     H2 1636   2.204   1.537   0.753
  527WAT      O 1637   2.931   1.609   1.041
  527WAT     H1 1638   2.862   1.589   1.105
  527WAT     H2 1639   3.005   1.637   1.094
  528WAT      O 1640   3.158   1.993   0.325
  528WAT     H1 1641   3.085   2.044   0.360
  528WAT     H2 1642   3.119   1.911   0.295
  529WAT      O 1643   3.205   1.538   0.266
  529WAT     H1 1644   3.206   1.583   0.350
  529WAT     H2 1645   3.180   1.448   0.287
  530WAT      O 1646   3.547   1.279   0.850
  530WAT     H1 1647   3.580   1.206   0.902
  530WAT     H2 1648   3.551   1.247   0.760
  531WAT      O 1649   2.217   2.381   0.792
  531WAT     H1 1650   2.179   2.317   0.852
  531WAT     H2 1651   2.248   2.452   0.849
  532WAT      O 1652   2.832   2.066   0.340
  532WAT     H1 1653   2.869   2.019   0.415
  532WAT     H2 1654   2.813   2.154   0.374
  533WAT      O 1655   2.611   1.970   0.572
  533WAT     H1 1656   2.581   2.058   0.594
  533WAT     H2 1657   2.707   1.976   0.575
  534WAT      O 1658   3.540   2.291   0.211
  534WAT     H1 1659   3.612   2.340   0.172
  534WAT     H2 1660   3.520   2.223   0.146
  535WAT      O 1661   3.078   2.298   0.799
  535WAT     H1 1662   3.071   2.206   0.774
  535WAT     H2 1663   3.015   2.307   0.871
  536WAT      O 1664   2.217   2.054   0.687
  536WAT     H1 1665   2.181   2.121   0.745
  536WAT     H2 1666   2.187   1.971   0.724
  537WAT      O 1667   2.537   2.100   0.975
  537WAT     H1 1668   2.507   2.115   0.885
  537WAT     H2 1669   2.614   2.044   0.966
  538WAT      O 1670   3.071   2.580   0.774
  538WAT     H1 1671   3.073   2.487   0.753
  538WAT     H2 1672   3.001   2.588   0.838
  539WAT      O 1673   3.692   2.244   0.709
  539WAT     H1 1674   3.620   2.303   0.689
  539WAT     H2 1675   3.745   2.243   0.629
  540WAT      O 1676   3.015   2.744   0.484
  540WAT     H1 1677   3.079   2.765   0.552
  540WAT     H2 1678   3.051   2.668   0.439
  541WAT      O 1679   3.142   2.544   0.356
  541WAT     H1 1680   3.206   2.474   0.367
  541WAT     H2 1681   3.194   2.622   0.338
  542WAT      O 1682   3.319   2.624   0.676
  542WAT     H1 1683   3.353   2.683   0.744
  542WAT     H2 1684   3.227   2.611   0.699
  543WAT      O 1685   2.074   1.403   0.754
  543WAT     H1 1686   2.003   1.423   0.815
  543WAT     H2 1687   2.116   1.326   0.791
  544WAT      O 1688   2.103   2.802   0.853
  544WAT     H1 1689   2.114   2.708   0.839
  544WAT     H2 1690   2.038   2.829   0.788
  545WAT      O 1691   2.902   2.629   0.993
  545WAT     H1 1692   2.870   2.557   1.047
  545WAT     H2 1693   2.835   2.697   1.000
  546WAT      O 1694   3.224   1.653   0.529
  546WAT     H1 1695   3.261   1.570   0.562
  546WAT     H2 1696   3.138   1.659   0.571
  547WAT      O 1697   2.920   1.918   0.552
  547WAT     H1 1698   2.970   1.965   0.618
  547WAT     H2 1699   2.934   1.826   0.572
  548WAT      O 1700   3.640   1.540   0.636
  548WAT     H1 1701   3.590   1.614   0.670
  548WAT     H2 1702   3.722   1.578   0.604
  549WAT      O 1703   2.318   2.909   1.034
  549WAT     H1 1704   2.398   2.941   1.075
  549WAT     H2 1705   2.266   2.873   1.106
  550WAT      O 1706   3.201   2.520   1.029
  550WAT     H1 1707   3.141   2.522   0.955
  550WAT     H2 1708   3.171   2.446   1.083
  551WAT      O 1709   3.344   2.892   0.890
  551WAT     H1 1710   3.440   2.884   0.885
  551WAT     H2 1711   3.330   2.959   0.957
  552WAT      O 1712   2.090   2.158   0.928
  552WAT     H1 1713   2.140   2.100   0.986
  552WAT     H2 1714   2.016   2.186   0.982
  553WAT      O 1715   2.795   2.298   0.882
  553WAT     H1 1716   2.718   2.355   0.873
  553WAT     H2 1717   2.813   2.269   0.793
  554WAT      O 1718   3.509   2.471   0.938
  554WAT     H1 1719   3.583   2.505   0.887
  554WAT     H2 1720   3.433   2.488   0.882
  555WAT      O 1721   2.293   1.972   1.018
  555WAT     H1 1722   2.297   1.942   1.109
  555WAT     H2 1723   2.378   2.012   1.002
  556WAT      O 1724   2.487   1.830   0.815
  556WAT     H1 1725   2.434   1.781   0.752
  556WAT     H2 1726   2.554   1.873   0.761
  557WAT      O 1727   3.377   2.276   0.791
  557WAT     H1 1728   3.418   2.292   0.876
  557WAT     H2 1729   3.283   2.289   0.807
  558WAT      O 1730   3.424   2.010   0.992
  558WAT     H1 1731   3.482   1.935   0.983
  558WAT     H2 1732   3.442   2.063   0.914
  559WAT      O 1733   2.536   1.526   0.823
  559WAT     H1 1734   2.526   1.465   0.750
  559WAT     H2 1735   2.478   1.599   0.800
  560WAT      O 1736   2.812   1.382   0.526
  560WAT     H1 1737   2.767   1.384   0.441
  560WAT     H2 1738   2.749   1.342   0.586
  561WAT      O 1739   2.853   2.272   0.588
  561WAT     H1 1740   2.895   2.356   0.571
  561WAT     H2 1741   2.761   2.285   0.565
  562WAT      O 1742   3.086   2.045   0.726
  562WAT     H1 1743   3.098   1.985   0.800
  562WAT     H2 1744   3.172   2.048   0.684
  563WAT      O 1745   3.320   2.100   0.584
  563WAT     H1 1746   3.268   2.153   0.524
  563WAT     H2 1747   3.355   2.163   0.647
  564WAT      O 1748   2.638   2.902   0.700
  564WAT     H1 1749   2.584   2.975   0.668
  564WAT     H2 1750   2.663   2.854   0.621
  565WAT      O 1751   2.763   1.699   0.852
  565WAT     H1 1752   2.822   1.668   0.921
  565WAT     H2 1753   2.681   1.652   0.868
  566WAT      O 1754   3.245   1.661   0.876
  566WAT     H1 1755   3.176   1.594   0.869
  566WAT     H2 1756   3.317   1.616   0.920
  567WAT      O 1757   2.924   3.026   0.726
  567WAT     H1 1758   2.916   3.116   0.756
  567WAT     H2 1759   2.833   2.994   0.723
  568WAT      O 1760   2.113   2.845   0.330
  568WAT     H1 1761   2.069   2.863   0.413
  568WAT     H2 1762   2.169   2.921   0.316
  569WAT      O 1763   3.676   2.795   0.758
  569WAT     H1 1764   3.616   2.801   0.684
  569WAT     H2 1765   3.689   2.701   0.771
  570WAT      O 1766   3.545   2.468   0.568
  570WAT     H1 1767   3.463   2.511   0.594
  570WAT     H2 1768   3.586   2.529   0.507
  571WAT      O 1769   2.200   2.135   0.420
  571WAT     H1 1770   2.236   2.126   0.508
  571WAT     H2 1771   2.143   2.059   0.410
  572WAT      O 1772   3.680   1.982   0.721
  572WAT     H1 1773   3.657   1.959   0.631
  572WAT     H2 1774   3.706   2.074   0.716
  573WAT      O 1775   2.155   1.826   0.810
  573WAT     H1 1776   2.065   1.823   0.844
  573WAT     H2 1777   2.209   1.846   0.887
  574WAT      O 1778   3.524   1.504   0.999
  574WAT     H1 1779   3.611   1.505   1.037
  574WAT     H2 1780   3.525   1.431   0.938
  575WAT      O 1781   3.686   1.898   0.440
  575WAT     H1 1782   3.591   1.895   0.451
  575WAT     H2 1783   3.704   1.989   0.416
  576WAT      O 1784   2.205   1.253   0.245
  576WAT     H1 1785   2.270   1.198   0.201
  576WAT     H2 1786   2.247   1.279   0.327
  577WAT      O 1787   3.595   1.273   0.581
  577WAT     H1 1788   3.659   1.334   0.617
  577WAT     H2 1789   3.610   1.276   0.486
  578WAT      O 1790   2.181   1.269   0.519
  578WAT     H1 1791   2.146   1.315   0.596
  578WAT     H2 1792   2.147   1.180   0.527
  579WAT      O 1793   2.341   2.586   0.936
  579WAT     H1 1794   2.337   2.549   1.024
  579WAT     H2 1795   2.354   2.680   0.950
  580WAT      O 1796   2.711   2.742   0.496
  580WAT     H1 1797   2.687   2.769   0.407
  580WAT     H2 1798   2.805   2.759   0.501
  581WAT      O 1799   2.932   1.388   0.871
  581WAT     H1 1800   2.926   1.447   0.946
  581WAT     H2 1801   3.026   1.377   0.857
  582WAT      O 1802   3.196   1.354   0.835
  582WAT     H1 1803   3.257   1.386   0.769
  582WAT     H2 1804   3.250   1.305   0.897
  583WAT      O 1805   2.248   1.222   0.847
  583WAT     H1 1806   2.303   1.204   0.770
  583WAT     H2 1807   2.254   1.143   0.900
  584WAT      O 1808   2.325   2.881   0.648
  584WAT     H1 1809   2.266   2.868   0.722
  584WAT     H2 1810   2.324   2.797   0.601
  585WAT      O 1811   3.270   1.210   0.468
  585WAT     H1 1812   3.182   1.243   0.448
  585WAT     H2 1813   3.259   1.163   0.551
  586WAT      O 1814   3.360   1.431   0.607
  586WAT     H1 1815   3.328   1.349   0.569
  586WAT     H2 1816   3.455   1.427   0.594
  587WAT      O 1817   3.606   3.008   0.304
  587WAT     H1 1818   3.560   3.083   0.266
  587WAT     H2 1819   3.543   2.936   0.298
  588WAT      O 1820   2.288   2.617   0.543
  588WAT     H1 1821   2.216   2.555   0.536
  588WAT     H2 1822   2.294   2.657   0.456
  589WAT      O 1823   2.649   2.839   0.221
  589WAT     H1 1824   2.700   2.778   0.169
  589WAT     H2 1825   2.714   2.889   0.270
  590WAT      O 1826   2.923   2.928   0.304
  590WAT     H1 1827   2.951   2.902   0.216
  590WAT     H2 1828   2.974   2.873   0.363
  591WAT      O 1829   3.044   1.302   0.362
  591WAT     H1 1830   2.966   1.349   0.390
  591WAT     H2 1831   3.015   1.211   0.351
  592WAT      O 1832   2.929   3.020   1.041
  592WAT     H1 1833   3.022   2.997   1.045
  592WAT     H2 1834   2.928   3.103   0.993
  593WAT      O 1835   2.648   1.287   1.017
  593WAT     H1 1836   2.620   1.337   0.941
  593WAT     H2 1837   2.686   1.207   0.981
  594WAT      O 1838   3.308   1.228   1.075
  594WAT     H1 1839   3.297   1.260   1.164
  594WAT     H2 1840   3.390   1.268   1.045
  595WAT      O 1841   3.586   2.943   1.023
  595WAT     H1 1842   3.665   2.893   1.002
  595WAT     H2 1843   3.615   3.011   1.084
  596WAT      O 1844   3.414   0.771   3.810
  596WAT     H1 1845   3.368   0.694   3.843
  596WAT     H2 1846   3.495   0.774   3.860
  597WAT      O 1847   3.037   1.000   3.772
  597WAT     H1 1848   2.975   1.045   3.715
  597WAT     H2 1849   3.122   1.015   3.732
  598WAT      O 1850   3.123   0.488   3.511
  598WAT     H1 1851   3.061   0.534   3.455
  598WAT     H2 1852   3.175   0.557   3.553
  599WAT      O 1853   2.060   0.556   3.248
  599WAT     H1 1854   2.022   0.605   3.175
  599WAT     H2 1855   2.086   0.624   3.312
  600WAT      O 1856   3.506   0.640   3.532
  600WAT     H1 1857   3.495   0.546   3.545
  600WAT     H2 1858   3.505   0.677   3.621
  601WAT      O 1859   3.060   0.203   3.468
  601WAT     H1 1860   2.967   0.197   3.491
  601WAT     H2 1861   3.075   0.297   3.456
  602WAT      O 1862   3.463   0.359   3.518
  602WAT     H1 1863   3.401   0.326   3.454
  602WAT     H2 1864   3.461   0.295   3.589
  603WAT      O 1865   2.620   0.256   3.746
  603WAT     H1 1866   2.580   0.185   3.697
  603WAT     H2 1867   2.629   0.221   3.835
  604WAT      O 1868   3.280   0.283   3.219
  604WAT     H1 1869   3.324   0.199   3.204
  604WAT     H2 1870   3.352   0.346   3.228
  605WAT      O 1871   3.091   0.777   3.616
  605WAT     H1 1872   3.135   0.851   3.574
  605WAT     H2 1873   3.085   0.801   3.708
  606WAT      O 1874   2.179   0.632   3.718
  606WAT     H1 1875   2.138   0.647   3.632
  606WAT     H2 1876   2.268   0.604   3.698
  607WAT      O 1877   3.358   1.076   3.351
  607WAT     H1 1878   3.342   1.047   3.441
  607WAT     H2 1879   3.342   0.998   3.298
  608WAT      O 1880   2.606   1.054   3.529
  608WAT     H1 1881   2.588   0.962   3.508
  608WAT     H2 1882   2.521   1.090   3.553
  609WAT      O 1883   3.328   0.827   3.207
  609WAT     H1 1884   3.259   0.827   3.141
  609WAT     H2 1885   3.403   0.784   3.164
  610WAT      O 1886   3.285   0.989   3.615
  610WAT     H1 1887   3.330   0.911   3.646
  610WAT     H2 1888   3.319   1.060   3.669
  611WAT      O 1889   2.464   0.513   3.386
  611WAT     H1 1890   2.387   0.459   3.370
  611WAT     H2 1891   2.537   0.462   3.353
  612WAT      O 1892   2.468   0.480   3.750
  612WAT     H1 1893   2.520   0.400   3.745
  612WAT     H2 1894   2.423   0.474   3.834
  613WAT      O 1895   2.957   0.607   3.277
  613WAT     H1 1896   2.991   0.681   3.228
  613WAT     H2 1897   2.874   0.638   3.314
  614WAT      O 1898   3.688   0.806   3.429
  614WAT     H1 1899   3.623   0.741   3.457
  614WAT     H2 1900   3.649   0.847   3.352
  615WAT      O 1901   3.245   0.539   3.814
  615WAT     H1 1902   3.281   0.479   3.748
  615WAT     H2 1903   3.157   0.507   3.831
  616WAT      O 1904   2.854   0.615   3.555
  616WAT     H1 1905   2.923   0.670   3.593
  616WAT     H2 1906   2.775   0.670   3.558
  617WAT      O 1907   2.068   0.177   3.104
  617WAT     H1 1908   2.155   0.205   3.132
  617WAT     H2 1909   2.019   0.258   3.092
  618WAT      O 1910   2.784   0.316   3.516
  618WAT     H1 1911   2.830   0.397   3.538
  618WAT     H2 1912   2.749   0.284   3.599
  619WAT      O 1913   3.526   0.695   3.083
  619WAT     H1 1914   3.504   0.624   3.142
  619WAT     H2 1915   3.487   0.671   2.999
  620WAT      O 1916   2.105   1.098   3.160
  620WAT     H1 1917   2.141   1.158   3.095
  620WAT     H2 1918   2.091   1.153   3.238
  621WAT      O 1919   3.485   0.487   3.249
  621WAT     H1 1920   3.456   0.533   3.328
  621WAT     H2 1921   3.564   0.441   3.276
  622WAT      O 1922   2.706   0.836   3.242
  622WAT     H1 1923   2.705   0.910   3.181
  622WAT     H2 1924   2.614   0.812   3.251
  623WAT      O 1925   2.266   0.359   3.317
  623WAT     H1 1926   2.206   0.433   3.318
  623WAT     H2 1927   2.314   0.368   3.234
  624WAT      O 1928   3.005   0.843   3.108
  624WAT     H1 1929   3.015   0.822   3.015
  624WAT     H2 1930   2.915   0.817   3.129
  625WAT      O 1931   2.869   1.095   3.578
  625WAT     H1 1932   2.895   1.091   3.486
  625WAT     H2 1933   2.774   1.082   3.577
  626WAT      O 1934   2.467   0.355   3.091
  626WAT     H1 1935   2.544   0.343   3.148
  626WAT     H2 1936   2.475   0.285   3.026
  627WAT      O 1937   2.417   1.113   3.870
  627WAT     H1 1938   2.491   1.058   3.897
  627WAT     H2 1939   2.455   1.199   3.856
  628WAT      O 1940   2.106   0.720   3.458
  628WAT     H1 1941   2.013   0.744   3.457
  628WAT     H2 1942   2.152   0.802   3.445
  629WAT      O 1943   2.728   1.030   3.052
  629WAT     H1 1944   2.807   1.059   3.007
  629WAT     H2 1945   2.676   0.987   2.985
  630WAT      O 1946   3.633   0.953   3.195
  630WAT     H1 1947   3.605   0.912   3.113
  630WAT     H2 1948   3.614   1.046   3.183
  631WAT      O 1949   2.780   0.552   3.039
  631WAT     H1 1950   2.769   0.491   3.111
  631WAT     H2 1951   2.763   0.500   2.960
  632WAT      O 1952   3.104   0.458   3.099
  632WAT     H1 1953   3.049   0.503   3.164
  632WAT     H2 1954   3.166   0.408   3.152
  633WAT      O 1955   2.671   0.354   3.289
  633WAT     H1 1956   2.713   0.338   3.373
  633WAT     H2 1957   2.683   0.273   3.239
  634WAT      O 1958   2.922   0.257   3.014
  634WAT     H1 1959   2.974   0.185   2.977
  634WAT     H2 1960   2.987   0.321   3.044
  635WAT      O 1961   2.978   1.065   3.243
  635WAT     H1 1962   3.068   1.099   3.245
  635WAT     H2 1963   2.982   0.993   3.180
  636WAT      O 1964   2.342   0.602   3.066
  636WAT     H1 1965   2.386   0.656   3.131
  636WAT     H2 1966   2.391   0.520   3.066
  637WAT      O 1967   2.064   0.881   3.811
  637WAT     H1 1968   2.097   0.794   3.788
  637WAT     H2 1969   2.107   0.902   3.894
  638WAT      O 1970   2.523   0.714   3.577
  638WAT     H1 1971   2.493   0.702   3.667
  638WAT     H2 1972   2.513   0.628   3.536
  639WAT      O 1973   2.096   0.219   3.720
  639WAT     H1 1974   2.030   0.192   3.656
  639WAT     H2 1975   2.180   0.208   3.675
  640WAT      O 1976   3.751   0.396   3.013
  640WAT     H1 1977   3.779   0.487   3.000
  640WAT     H2 1978   3.732   0.389   3.107
  641WAT      O 1979   3.551   1.066   3.676
  641WAT     H1 1980   3.610   1.033   3.608
  641WAT     H2 1981   3.576   1.018   3.755
  642WAT      O 1982   2.117   1.072   3.619
  642WAT     H1 1983   2.100   1.008   3.689
  642WAT     H2 1984   2.030   1.092   3.584
  643WAT      O 1985   2.277   0.941   3.363
  643WAT     H1 1986   2.225   0.979   3.293
  643WAT     H2 1987   2.270   1.004   3.435
  644WAT      O 1988   3.753   1.097   3.495
  644WAT     H1 1989   3.770   1.028   3.431
  644WAT     H2 1990   3.683   1.149   3.456
  645WAT      O 1991   2.537   1.136   3.251
  645WAT     H1 1992   2.610   1.107   3.196
  645WAT     H2 1993   2.563   1.112   3.340
  646WAT      O 1994   2.453   0.747   3.251
  646WAT     H1 1995   2.390   0.794   3.306
  646WAT     H2 1996   2.465   0.663   3.295
  647WAT      O 1997   3.012   0.330   2.054
  647WAT     H1 1998   2.934   0.282   2.083
  647WAT     H2 1999   3.077   0.262   2.037
  648WAT      O 2000   2.414   0.362   2.142
  648WAT     H1 2001   2.330   0.336   2.182
  648WAT     H2 2002   2.474   0.369   2.216
  649WAT      O 2003   3.414   0.771   1.932
  649WAT     H1 2004   3.368   0.694   1.965
  649WAT     H2 2005   3.495   0.774   1.983
  650WAT      O 2006   2.412   0.765   2.162
  650WAT     H1 2007   2.442   0.676   2.144
  650WAT     H2 2008   2.486   0.821   2.139
  651WAT      O 2009   3.037   1.000   1.894
  651WAT     H1 2010   2.975   1.045   1.837
  651WAT     H2 2011   3.122   1.015   1.854
  652WAT      O 2012   2.956   0.598   2.055
  652WAT     H1 2013   2.949   0.504   2.039
  652WAT     H2 2014   3.032   0.607   2.112
  653WAT      O 2015   3.123   0.488   1.634
  653WAT     H1 2016   3.061   0.534   1.577
  653WAT     H2 2017   3.175   0.557   1.675
  654WAT      O 2018   2.610   0.441   2.301
  654WAT     H1 2019   2.576   0.503   2.366
  654WAT     H2 2020   2.627   0.493   2.223
  655WAT      O 2021   2.531   0.637   2.483
  655WAT     H1 2022   2.593   0.705   2.455
  655WAT     H2 2023   2.445   0.678   2.474
  656WAT      O 2024   2.060   0.556   1.371
  656WAT     H1 2025   2.022   0.605   1.298
  656WAT     H2 2026   2.086   0.624   1.434
  657WAT      O 2027   3.623   0.784   2.274
  657WAT     H1 2028   3.554   0.851   2.274
  657WAT     H2 2029   3.676   0.804   2.198
  658WAT      O 2030   3.376   0.968   2.146
  658WAT     H1 2031   3.377   0.928   2.059
  658WAT     H2 2032   3.321   1.046   2.136
  659WAT      O 2033   3.506   0.640   1.655
  659WAT     H1 2034   3.495   0.546   1.667
  659WAT     H2 2035   3.505   0.677   1.743
  660WAT      O 2036   3.316   0.459   2.279
  660WAT     H1 2037   3.358   0.437   2.195
  660WAT     H2 2038   3.388   0.484   2.336
  661WAT      O 2039   3.060   0.203   1.590
  661WAT     H1 2040   2.967   0.197   1.613
  661WAT     H2 2041   3.075   0.297   1.579
  662WAT      O 2042   3.711   0.298   2.288
  662WAT     H1 2043   3.628   0.305   2.240
  662WAT     H2 2044   3.770   0.357   2.241
  663WAT      O 2045   3.463   0.359   1.641
  663WAT     H1 2046   3.401   0.326   1.576
  663WAT     H2 2047   3.461   0.295   1.712
  664WAT      O 2048   2.620   0.256   1.869
  664WAT     H1 2049   2.580   0.185   1.819
  664WAT     H2 2050   2.629   0.221   1.958
  665WAT      O 2051   2.667   0.624   2.085
  665WAT     H1 2052   2.637   0.564   2.017
  665WAT     H2 2053   2.762   0.628   2.074
  666WAT      O 2054   3.476   0.982   2.451
  666WAT     H1 2055   3.428   1.062   2.432
  666WAT     H2 2056   3.408   0.917   2.467
  667WAT      O 2057   2.576   0.598   2.750
  667WAT     H1 2058   2.487   0.621   2.775
  667WAT     H2 2059   2.579   0.611   2.655
  668WAT      O 2060   3.280   0.283   1.342
  668WAT     H1 2061   3.324   0.199   1.327
  668WAT     H2 2062   3.352   0.346   1.350
  669WAT      O 2063   2.459   0.285   2.608
  669WAT     H1 2064   2.445   0.373   2.645
  669WAT     H2 2065   2.371   0.251   2.593
  670WAT      O 2066   3.091   0.777   1.738
  670WAT     H1 2067   3.135   0.851   1.697
  670WAT     H2 2068   3.085   0.801   1.831
  671WAT      O 2069   2.639   0.880   2.829
  671WAT     H1 2070   2.636   0.920   2.742
  671WAT     H2 2071   2.623   0.787   2.812
  672WAT      O 2072   2.054   0.462   2.199
  672WAT     H1 2073   2.062   0.476   2.105
  672WAT     H2 2074   2.116   0.392   2.219
  673WAT      O 2075   2.179   0.632   1.840
  673WAT     H1 2076   2.138   0.647   1.755
  673WAT     H2 2077   2.268   0.604   1.820
  674WAT      O 2078   3.774   0.677   2.674
  674WAT     H1 2079   3.787   0.653   2.582
  674WAT     H2 2080   3.779   0.594   2.721
  675WAT      O 2081   3.161   1.047   2.531
  675WAT     H1 2082   3.212   1.038   2.611
  675WAT     H2 2083   3.076   1.082   2.560
  676WAT      O 2084   3.358   1.076   1.474
  676WAT     H1 2085   3.342   1.047   1.564
  676WAT     H2 2086   3.342   0.998   1.420
  677WAT      O 2087   2.606   1.054   1.652
  677WAT     H1 2088   2.588   0.962   1.630
  677WAT     H2 2089   2.521   1.090   1.676
  678WAT      O 2090   3.328   0.827   1.330
  678WAT     H1 2091   3.259   0.827   1.264
  678WAT     H2 2092   3.403   0.784   1.287
  679WAT      O 2093   3.285   0.989   1.737
  679WAT     H1 2094   3.330   0.911   1.769
  679WAT     H2 2095   3.319   1.060   1.792
  680WAT      O 2096   2.060   0.567   2.453
  680WAT     H1 2097   2.076   0.520   2.372
  680WAT     H2 2098   2.106   0.516   2.520
  681WAT      O 2099   2.217   0.504   2.669
  681WAT     H1 2100   2.179   0.440   2.729
  681WAT     H2 2101   2.248   0.574   2.726
  682WAT      O 2102   2.464   0.513   1.509
  682WAT     H1 2103   2.387   0.459   1.493
  682WAT     H2 2104   2.537   0.462   1.475
  683WAT      O 2105   3.540   0.413   2.088
  683WAT     H1 2106   3.612   0.463   2.049
  683WAT     H2 2107   3.520   0.345   2.024
  684WAT      O 2108   3.078   0.420   2.677
  684WAT     H1 2109   3.071   0.328   2.651
  684WAT     H2 2110   3.015   0.430   2.748
  685WAT      O 2111   2.468   0.480   1.873
  685WAT     H1 2112   2.520   0.400   1.867
  685WAT     H2 2113   2.423   0.474   1.957
  686WAT      O 2114   2.957   0.607   1.400
  686WAT     H1 2115   2.991   0.681   1.350
  686WAT     H2 2116   2.874   0.638   1.436
  687WAT      O 2117   2.537   0.223   2.852
  687WAT     H1 2118   2.507   0.237   2.763
  687WAT     H2 2119   2.614   0.167   2.843
  688WAT      O 2120   3.071   0.702   2.652
  688WAT     H1 2121   3.073   0.609   2.630
  688WAT     H2 2122   3.001   0.711   2.716
  689WAT      O 2123   3.692   0.367   2.587
  689WAT     H1 2124   3.620   0.426   2.567
  689WAT     H2 2125   3.745   0.366   2.507
  690WAT      O 2126   3.688   0.806   1.552
  690WAT     H1 2127   3.623   0.741   1.579
  690WAT     H2 2128   3.649   0.847   1.474
  691WAT      O 2129   3.245   0.539   1.936
  691WAT     H1 2130   3.281   0.479   1.870
  691WAT     H2 2131   3.157   0.507   1.954
  692WAT      O 2132   2.854   0.615   1.677
  692WAT     H1 2133   2.923   0.670   1.715
  692WAT     H2 2134   2.775   0.670   1.681
  693WAT      O 2135   2.068   0.177   1.226
  693WAT     H1 2136   2.155   0.205   1.255
  693WAT     H2 2137   2.019   0.258   1.215
  694WAT      O 2138   2.784   0.316   1.638
  694WAT     H1 2139   2.830   0.397   1.661
  694WAT     H2 2140   2.749   0.284   1.722
  695WAT      O 2141   3.015   0.867   2.361
  695WAT     H1 2142   3.079   0.887   2.429
  695WAT     H2 2143   3.051   0.791   2.316
  696WAT      O 2144   3.142   0.667   2.233
  696WAT     H1 2145   3.206   0.597   2.244
  696WAT     H2 2146   3.194   0.745   2.215
  697WAT      O 2147   3.526   0.695   1.205
  697WAT     H1 2148   3.504   0.624   1.265
  697WAT     H2 2149   3.487   0.671   1.122
  698WAT      O 2150   3.319   0.747   2.553
  698WAT     H1 2151   3.353   0.806   2.621
  698WAT     H2 2152   3.227   0.734   2.576
  699WAT      O 2153   2.105   1.098   1.283
  699WAT     H1 2154   2.141   1.158   1.217
  699WAT     H2 2155   2.091   1.153   1.360
  700WAT      O 2156   3.485   0.487   1.372
  700WAT     H1 2157   3.456   0.533   1.450
  700WAT     H2 2158   3.564   0.441   1.398
  701WAT      O 2159   2.103   0.925   2.730
  701WAT     H1 2160   2.114   0.831   2.716
  701WAT     H2 2161   2.038   0.951   2.665
  702WAT      O 2162   2.902   0.752   2.870
  702WAT     H1 2163   2.870   0.680   2.925
  702WAT     H2 2164   2.835   0.819   2.878
  703WAT      O 2165   2.706   0.836   1.365
  703WAT     H1 2166   2.705   0.910   1.303
  703WAT     H2 2167   2.614   0.812   1.374
  704WAT      O 2168   2.266   0.359   1.439
  704WAT     H1 2169   2.206   0.433   1.440
  704WAT     H2 2170   2.314   0.368   1.357
  705WAT      O 2171   3.005   0.843   1.231
  705WAT     H1 2172   3.015   0.822   1.138
  705WAT     H2 2173   2.915   0.817   1.251
  706WAT      O 2174   2.869   1.095   1.700
  706WAT     H1 2175   2.895   1.091   1.608
  706WAT     H2 2176   2.774   1.082   1.700
  707WAT      O 2177   2.467   0.355   1.214
  707WAT     H1 2178   2.544   0.343   1.270
  707WAT     H2 2179   2.475   0.285   1.149
  708WAT      O 2180   3.670   0.904   2.026
  708WAT     H1 2181   3.682   0.986   2.073
  708WAT     H2 2182   3.757   0.882   1.991
  709WAT      O 2183   2.417   1.113   1.993
  709WAT     H1 2184   2.491   1.058   2.020
  709WAT     H2 2185   2.455   1.199   1.979
  710WAT      O 2186   2.106   0.720   1.580
  710WAT     H1 2187   2.013   0.744   1.579
  710WAT     H2 2188   2.152   0.802   1.568
  711WAT      O 2189   2.318   1.031   2.912
  711WAT     H1 2190   2.398   1.063   2.953
  711WAT     H2 2191   2.266   0.995   2.984
  712WAT      O 2192   2.728   1.030   1.175
  712WAT     H1 2193   2.807   1.059   1.130
  712WAT     H2 2194   2.676   0.987   1.107
  713WAT      O 2195   3.201   0.642   2.906
  713WAT     H1 2196   3.141   0.644   2.832
  713WAT     H2 2197   3.171   0.569   2.960
  714WAT      O 2198   3.344   1.015   2.767
  714WAT     H1 2199   3.440   1.007   2.762
  714WAT     H2 2200   3.330   1.081   2.835
  715WAT      O 2201   3.633   0.953   1.317
  715WAT     H1 2202   3.605   0.912   1.236
  715WAT     H2 2203   3.614   1.046   1.305
  716WAT      O 2204   2.090   0.280   2.806
  716WAT     H1 2205   2.140   0.222   2.863
  716WAT     H2 2206   2.016   0.308   2.860
  717WAT      O 2207   2.780   0.552   1.161
  717WAT     H1 2208   2.769   0.491   1.234
  717WAT     H2 2209   2.763   0.500   1.083
  718WAT      O 2210   2.795   0.421   2.759
  718WAT     H1 2211   2.718   0.478   2.751
  718WAT     H2 2212   2.813   0.392   2.670
  719WAT      O 2213   3.104   0.458   1.222
  719WAT     H1 2214   3.049   0.503   1.286
  719WAT     H2 2215   3.166   0.408   1.274
  720WAT      O 2216   3.509   0.594   2.815
  720WAT     H1 2217   3.583   0.628   2.765
  720WAT     H2 2218   3.433   0.611   2.760
  721WAT      O 2219   2.671   0.354   1.411
  721WAT     H1 2220   2.713   0.338   1.496
  721WAT     H2 2221   2.683   0.273   1.362
  722WAT      O 2222   2.922   0.257   1.136
  722WAT     H1 2223   2.974   0.185   1.100
  722WAT     H2 2224   2.987   0.321   1.166
  723WAT      O 2225   3.377   0.399   2.669
  723WAT     H1 2226   3.418   0.414   2.753
  723WAT     H2 2227   3.283   0.412   2.685
  724WAT      O 2228   2.853   0.394   2.466
  724WAT     H1 2229   2.895   0.479   2.448
  724WAT     H2 2230   2.761   0.408   2.443
  725WAT      O 2231   3.320   0.223   2.462
  725WAT     H1 2232   3.268   0.275   2.401
  725WAT     H2 2233   3.355   0.286   2.525
  726WAT      O 2234   2.638   1.025   2.577
  726WAT     H1 2235   2.584   1.097   2.545
  726WAT     H2 2236   2.663   0.977   2.498
  727WAT      O 2237   2.924   1.148   2.603
  727WAT     H1 2238   2.916   1.239   2.634
  727WAT     H2 2239   2.833   1.116   2.600
  728WAT      O 2240   2.978   1.065   1.365
  728WAT     H1 2241   3.068   1.099   1.367
  728WAT     H2 2242   2.982   0.993   1.302
  729WAT      O 2243   2.342   0.602   1.188
  729WAT     H1 2244   2.386   0.656   1.254
  729WAT     H2 2245   2.391   0.520   1.189
  730WAT      O 2246   2.064   0.881   1.933
  730WAT     H1 2247   2.097   0.794   1.910
  730WAT     H2 2248   2.107   0.902   2.016
  731WAT      O 2249   2.523   0.714   1.699
  731WAT     H1 2250   2.493   0.702   1.789
  731WAT     H2 2251   2.513   0.628   1.658
  732WAT      O 2252   2.113   0.968   2.207
  732WAT     H1 2253   2.069   0.986   2.290
  732WAT     H2 2254   2.169   1.043   2.193
  733WAT      O 2255   3.676   0.918   2.636
  733WAT     H1 2256   3.616   0.924   2.562
  733WAT     H2 2257   3.689   0.824   2.649
  734WAT      O 2258   2.096   0.219   1.843
  734WAT     H1 2259   2.030   0.192   1.779
  734WAT     H2 2260   2.180   0.208   1.798
  735WAT      O 2261   3.545   0.590   2.446
  735WAT     H1 2262   3.463   0.633   2.472
  735WAT     H2 2263   3.586   0.652   2.384
  736WAT      O 2264   3.751   0.396   1.136
  736WAT     H1 2265   3.779   0.487   1.123
  736WAT     H2 2266   3.732   0.389   1.229
  737WAT      O 2267   2.200   0.257   2.297
  737WAT     H1 2268   2.236   0.249   2.385
  737WAT     H2 2269   2.143   0.181   2.287
  738WAT      O 2270   3.551   1.066   1.798
  738WAT     H1 2271   3.610   1.033   1.731
  738WAT     H2 2272   3.576   1.018   1.877
  739WAT      O 2273   2.341   0.709   2.813
  739WAT     H1 2274   2.337   0.672   2.901
  739WAT     H2 2275   2.354   0.803   2.827
  740WAT      O 2276   2.711   0.864   2.373
  740WAT     H1 2277   2.687   0.891   2.285
  740WAT     H2 2278   2.805   0.881   2.379
  741WAT      O 2279   2.325   1.003   2.525
  741WAT     H1 2280   2.266   0.990   2.599
  741WAT     H2 2281   2.324   0.920   2.479
  742WAT      O 2282   3.606   1.131   2.181
  742WAT     H1 2283   3.560   1.206   2.144
  742WAT     H2 2284   3.543   1.059   2.175
  743WAT      O 2285   2.288   0.740   2.420
  743WAT     H1 2286   2.216   0.678   2.414
  743WAT     H2 2287   2.294   0.779   2.333
  744WAT      O 2288   2.649   0.961   2.099
  744WAT     H1 2289   2.700   0.900   2.046
  744WAT     H2 2290   2.714   1.012   2.148
  745WAT      O 2291   2.923   1.050   2.181
  745WAT     H1 2292   2.951   1.025   2.094
  745WAT     H2 2293   2.974   0.995   2.241
  746WAT      O 2294   2.117   1.072   1.741
  746WAT     H1 2295   2.100   1.008   1.811
  746WAT     H2 2296   2.030   1.092   1.706
  747WAT      O 2297   2.277   0.941   1.486
  747WAT     H1 2298   2.225   0.979   1.415
  747WAT     H2 2299   2.270   1.004   1.558
  748WAT      O 2300   2.929   1.143   2.918
  748WAT     H1 2301   3.022   1.119   2.923
  748WAT     H2 2302   2.928   1.225   2.870
  749WAT      O 2303   3.753   1.097   1.618
  749WAT     H1 2304   3.770   1.028   1.554
  749WAT     H2 2305   3.683   1.149   1.579
  750WAT      O 2306   2.537   1.136   1.373
  750WAT     H1 2307   2.610   1.107   1.319
  750WAT     H2 2308   2.563   1.112   1.462
  751WAT      O 2309   2.453   0.747   1.374
  751WAT     H1 2310   2.390   0.794   1.429
  751WAT     H2 2311   2.465   0.663   1.417
  752WAT      O 2312   3.586   1.065   2.901
  752WAT     H1 2313   3.665   1.016   2.880
  752WAT     H2 2314   3.615   1.133   2.961
  753WAT      O 2315   3.012   0.330   0.177
  753WAT     H1 2316   2.934   0.282   0.206
  753WAT     H2 2317   3.077   0.262   0.159
  754WAT      O 2318   2.414   0.362   0.265
  754WAT     H1 2319   2.330   0.336   0.305
  754WAT     H2 2320   2.474   0.369   0.338
  755WAT      O 2321   2.412   0.765   0.284
  755WAT     H1 2322   2.442   0.676   0.266
  755WAT     H2 2323   2.486   0.821   0.261
  756WAT      O 2324   2.956   0.598   0.178
  756WAT     H1 2325   2.949   0.504   0.161
  756WAT     H2 2326   3.032   0.607   0.235
  757WAT      O 2327   2.610   0.441   0.424
  757WAT     H1 2328   2.576   0.503   0.488
  757WAT     H2 2329   2.627   0.493   0.346
  758WAT      O 2330   2.531   0.637   0.606
  758WAT     H1 2331   2.593   0.705   0.577
  758WAT     H2 2332   2.445   0.678   0.596
  759WAT      O 2333   3.623   0.784   0.397
  759WAT     H1 2334   3.554   0.851   0.396
  759WAT     H2 2335   3.676   0.804   0.321
  760WAT      O 2336   3.376   0.968   0.269
  760WAT     H1 2337   3.377   0.928   0.182
  760WAT     H2 2338   3.321   1.046   0.258
  761WAT      O 2339   3.316   0.459   0.401
  761WAT     H1 2340   3.358   0.437   0.318
  761WAT     H2 2341   3.388   0.484   0.458
  762WAT      O 2342   3.711   0.298   0.410
  762WAT     H1 2343   3.628   0.305   0.363
  762WAT     H2 2344   3.770   0.357   0.364
  763WAT      O 2345   2.667   0.624   0.208
  763WAT     H1 2346   2.637   0.564   0.140
  763WAT     H2 2347   2.762   0.628   0.197
  764WAT      O 2348   3.476   0.982   0.574
  764WAT     H1 2349   3.428   1.062   0.555
  764WAT     H2 2350   3.408   0.917   0.589
  765WAT      O 2351   2.576   0.598   0.873
  765WAT     H1 2352   2.487   0.621   0.897
  765WAT     H2 2353   2.579   0.611   0.778
  766WAT      O 2354   2.459   0.285   0.730
  766WAT     H1 2355   2.445   0.373   0.767
  766WAT     H2 2356   2.371   0.251   0.716
  767WAT      O 2357   2.639   0.880   0.951
  767WAT     H1 2358   2.636   0.920   0.864
  767WAT     H2 2359   2.623   0.787   0.935
  768WAT      O 2360   2.054   0.462   0.322
  768WAT     H1 2361   2.062   0.476   0.228
  768WAT     H2 2362   2.116   0.392   0.341
  769WAT      O 2363   3.774   0.677   0.797
  769WAT     H1 2364   3.787   0.653   0.705
  769WAT     H2 2365   3.779   0.594   0.844
  770WAT      O 2366   3.161   1.047   0.654
  770WAT     H1 2367   3.212   1.038   0.734
  770WAT     H2 2368   3.076   1.082   0.683
  771WAT      O 2369   2.060   0.567   0.576
  771WAT     H1 2370   2.076   0.520   0.494
  771WAT     H2 2371   2.106   0.516   0.642
  772WAT      O 2372   2.217   0.504   0.792
  772WAT     H1 2373   2.179   0.440   0.852
  772WAT     H2 2374   2.248   0.574   0.849
  773WAT      O 2375   3.540   0.413   0.211
  773WAT     H1 2376   3.612   0.463   0.172
  773WAT     H2 2377   3.520   0.345   0.146
  774WAT      O 2378   3.078   0.420   0.799
  774WAT     H1 2379   3.071   0.328   0.774
  774WAT     H2 2380   3.015   0.430   0.871
  775WAT      O 2381   2.537   0.223   0.975
  775WAT     H1 2382   2.507   0.237   0.885
  775WAT     H2 2383   2.614   0.167   0.966
  776WAT      O 2384   3.071   0.702   0.774
  776WAT     H1 2385   3.073   0.609   0.753
  776WAT     H2 2386   3.001   0.711   0.838
  777WAT      O 2387   3.692   0.367   0.709
  777WAT     H1 2388   3.620   0.426   0.689
  777WAT     H2 2389   3.745   0.366   0.629
  778WAT      O 2390   3.015   0.867   0.484
  778WAT     H1 2391   3.079   0.887   0.552
  778WAT     H2 2392   3.051   0.791   0.439
  779WAT      O 2393   3.142   0.667   0.356
  779WAT     H1 2394   3.206   0.597   0.367
  779WAT     H2 2395   3.194   0.745   0.338
  780WAT      O 2396   3.319   0.747   0.676
  780WAT     H1 2397   3.353   0.806   0.744
  780WAT     H2 2398   3.227   0.734   0.699
  781WAT      O 2399   2.103   0.925   0.853
  781WAT     H1 2400   2.114   0.831   0.839
  781WAT     H2 2401   2.038   0.951   0.788
  782WAT      O 2402   2.902   0.752   0.993
  782WAT     H1 2403   2.870   0.680   1.047
  782WAT     H2 2404   2.835   0.819   1.000
  783WAT      O 2405   2.318   1.031   1.034
  783WAT     H1 2406   2.398   1.063   1.075
  783WAT     H2 2407   2.266   0.995   1.106
  784WAT      O 2408   3.201   0.642   1.029
  784WAT     H1 2409   3.141   0.644   0.955
  784WAT     H2 2410   3.171   0.569   1.083
  785WAT      O 2411   3.344   1.015   0.890
  785WAT     H1 2412   3.440   1.007   0.885
  785WAT     H2 2413   3.330   1.081   0.957
  786WAT      O 2414   2.090   0.280   0.928
  786WAT     H1 2415   2.140   0.222   0.986
  786WAT     H2 2416   2.016   0.308   0.982
  787WAT      O 2417   2.795   0.421   0.882
  787WAT     H1 2418   2.718   0.478   0.873
  787WAT     H2 2419   2.813   0.392   0.793
  788WAT      O 2420   3.509   0.594   0.938
  788WAT     H1 2421   3.583   0.628   0.887
  788WAT     H2 2422   3.433   0.611   0.882
  789WAT      O 2423   3.377   0.399   0.791
  789WAT     H1 2424   3.418   0.414   0.876
  789WAT     H2 2425   3.283   0.412   0.807
  790WAT      O 2426   2.853   0.394   0.588
  790WAT     H1 2427   2.895   0.479   0.571
  790WAT     H2 2428   2.761   0.408   0.565
  791WAT      O 2429   3.320   0.223   0.584
  791WAT     H1 2430   3.268   0.275   0.524
  791WAT     H2 2431   3.355   0.286   0.647
  792WAT      O 2432   2.638   1.025   0.700
  792WAT     H1 2433   2.584   1.097   0.668
  792WAT     H2 2434   2.663   0.977   0.621
  793WAT      O 2435   2.924   1.148   0.726
  793WAT     H1 2436   2.916   1.239   0.756
  793WAT     H2 2437   2.833   1.116   0.723
  794WAT      O 2438   2.113   0.968   0.330
  794WAT     H1 2439   2.069   0.986   0.413
  794WAT     H2 2440   2.169   1.043   0.316
  795WAT      O 2441   3.676   0.918   0.758
  795WAT     H1 2442   3.616   0.924   0.684
  795WAT     H2 2443   3.689   0.824   0.771
  796WAT      O 2444   3.545   0.590   0.568
  796WAT     H1 2445   3.463   0.633   0.594
  796WAT     H2 2446   3.586   0.652   0.507
  797WAT      O 2447   2.200   0.257   0.420
  797WAT     H1 2448   2.236   0.249   0.508
  797WAT     H2 2449   2.143   0.181   0.410
  798WAT      O 2450   2.341   0.709   0.936
  798WAT     H1 2451   2.337   0.672   1.024
  798WAT     H2 2452   2.354   0.803   0.950
  799WAT      O 2453   2.711   0.864   0.496
  799WAT     H1 2454   2.687   0.891   0.407
  799WAT     H2 2455   2.805   0.881   0.501
  800WAT      O 2456   2.325   1.003   0.648
  800WAT     H1 2457   2.266   0.990   0.722
  800WAT     H2 2458   2.324   0.920   0.601
  801WAT      O 2459   3.606   1.131   0.304
  801WAT     H1 2460   3.560   1.206   0.266
  801WAT     H2 2461   3.543   1.059   0.298
  802WAT      O 2462   2.288   0.740   0.543
  802WAT     H1 2463   2.216   0.678   0.536
  802WAT     H2 2464   2.294   0.779   0.456
  803WAT      O 2465   2.649   0.961   0.221
  803WAT     H1 2466   2.700   0.900   0.169
  803WAT     H2 2467   2.714   1.012   0.270
  804WAT      O 2468   2.923   1.050   0.304
  804WAT     H1 2469   2.951   1.025   0.216
  804WAT     H2 2470   2.974   0.995   0.363
  805WAT      O 2471   2.929   1.143   1.041
  805WAT     H1 2472   3.022   1.119   1.045
  805WAT     H2 2473   2.928   1.225   0.993
  806WAT      O 2474   3.586   1.065   1.023
  806WAT     H1 2475   3.665   1.016   1.002
  806WAT     H2 2476   3.615   1.133   1.084
  807WAT      O 2477   1.321   3.907   3.744
  807WAT     H1 2478   1.313   3.816   3.717
  807WAT     H2 2479   1.280   3.957   3.673
  808WAT      O 2480   0.377   3.612   3.398
  808WAT     H1 2481   0.288   3.647   3.388
  808WAT     H2 2482   0.405   3.592   3.309
  809WAT      O 2483   0.595   3.471   3.501
  809WAT     H1 2484   0.605   3.561   3.532
  809WAT     H2 2485   0.504   3.466   3.472
  810WAT      O 2486   1.560   3.383   3.648
  810WAT     H1 2487   1.642   3.334   3.653
  810WAT     H2 2488   1.563   3.442   3.724
  811WAT      O 2489   0.944   3.152   3.794
  811WAT     H1 2490   0.974   3.096   3.723
  811WAT     H2 2491   0.851   3.165   3.776
  812WAT      O 2492   1.182   3.958   3.468
  812WAT     H1 2493   1.090   3.951   3.491
  812WAT     H2 2494   1.198   4.052   3.456
  813WAT      O 2495   1.181   3.585   3.168
  813WAT     H1 2496   1.087   3.601   3.176
  813WAT     H2 2497   1.213   3.657   3.113
  814WAT      O 2498   0.743   4.011   3.746
  814WAT     H1 2499   0.703   3.939   3.697
  814WAT     H2 2500   0.752   3.976   3.835
  815WAT      O 2501   1.761   3.164   3.050
  815WAT     H1 2502   1.730   3.173   3.140
  815WAT     H2 2503   1.837   3.221   3.045
  816WAT      O 2504   0.413   3.900   3.496
  816WAT     H1 2505   0.401   3.973   3.435
  816WAT     H2 2506   0.382   3.823   3.448
  817WAT      O 2507   0.660   3.234   3.834
  817WAT     H1 2508   0.615   3.313   3.801
  817WAT     H2 2509   0.715   3.267   3.905
  818WAT      O 2510   0.971   3.197   3.322
  818WAT     H1 2511   0.909   3.196   3.395
  818WAT     H2 2512   0.963   3.110   3.283
  819WAT      O 2513   0.639   3.747   3.607
  819WAT     H1 2514   0.616   3.725   3.698
  819WAT     H2 2515   0.561   3.790   3.573
  820WAT      O 2516   1.362   3.747   3.467
  820WAT     H1 2517   1.302   3.820   3.449
  820WAT     H2 2518   1.417   3.741   3.389
  821WAT      O 2519   1.222   3.611   3.670
  821WAT     H1 2520   1.262   3.643   3.589
  821WAT     H2 2521   1.259   3.523   3.682
  822WAT      O 2522   0.510   3.526   3.816
  822WAT     H1 2523   0.476   3.574   3.892
  822WAT     H2 2524   0.434   3.481   3.780
  823WAT      O 2525   0.931   3.638   3.219
  823WAT     H1 2526   0.943   3.634   3.314
  823WAT     H2 2527   0.892   3.724   3.204
  824WAT      O 2528   0.832   3.869   3.159
  824WAT     H1 2529   0.775   3.824   3.096
  824WAT     H2 2530   0.903   3.905   3.106
  825WAT      O 2531   0.241   3.418   3.708
  825WAT     H1 2532   0.213   3.382   3.792
  825WAT     H2 2533   0.235   3.345   3.646
  826WAT      O 2534   1.209   3.307   3.380
  826WAT     H1 2535   1.127   3.258   3.372
  826WAT     H2 2536   1.189   3.391   3.338
  827WAT      O 2537   1.480   3.745   3.210
  827WAT     H1 2538   1.569   3.776   3.192
  827WAT     H2 2539   1.477   3.657   3.170
  828WAT      O 2540   1.707   3.876   3.156
  828WAT     H1 2541   1.699   3.919   3.071
  828WAT     H2 2542   1.779   3.922   3.200
  829WAT      O 2543   0.497   3.105   3.563
  829WAT     H1 2544   0.484   3.104   3.658
  829WAT     H2 2545   0.415   3.139   3.528
  830WAT      O 2546   1.683   3.426   3.365
  830WAT     H1 2547   1.620   3.436   3.294
  830WAT     H2 2548   1.633   3.447   3.444
  831WAT      O 2549   0.880   3.653   3.507
  831WAT     H1 2550   0.809   3.700   3.551
  831WAT     H2 2551   0.908   3.588   3.570
  832WAT      O 2552   1.283   3.326   3.651
  832WAT     H1 2553   1.271   3.328   3.556
  832WAT     H2 2554   1.378   3.331   3.663
  833WAT      O 2555   0.700   3.484   3.244
  833WAT     H1 2556   0.785   3.528   3.237
  833WAT     H2 2557   0.663   3.515   3.327
  834WAT      O 2558   1.592   3.941   3.735
  834WAT     H1 2559   1.498   3.943   3.753
  834WAT     H2 2560   1.624   3.863   3.780
  835WAT      O 2561   0.459   3.853   3.160
  835WAT     H1 2562   0.468   3.758   3.171
  835WAT     H2 2563   0.549   3.886   3.170
  836WAT      O 2564   1.044   4.012   3.014
  836WAT     H1 2565   1.097   3.940   2.977
  836WAT     H2 2566   1.109   4.075   3.044
  837WAT      O 2567   0.683   3.717   2.983
  837WAT     H1 2568   0.663   3.630   3.020
  837WAT     H2 2569   0.666   3.708   2.890
  838WAT      O 2570   1.431   3.198   3.236
  838WAT     H1 2571   1.459   3.113   3.272
  838WAT     H2 2572   1.353   3.221   3.288
  839WAT      O 2573   0.563   3.427   2.982
  839WAT     H1 2574   0.593   3.427   2.891
  839WAT     H2 2575   0.637   3.392   3.032
  840WAT      O 2576   0.884   3.321   3.081
  840WAT     H1 2577   0.850   3.253   3.023
  840WAT     H2 2578   0.905   3.275   3.162
  841WAT      O 2579   1.513   3.453   3.143
  841WAT     H1 2580   1.555   3.434   3.059
  841WAT     H2 2581   1.483   3.368   3.174
  842WAT      O 2582   1.863   3.944   3.512
  842WAT     H1 2583   1.826   3.868   3.469
  842WAT     H2 2584   1.790   3.983   3.561
  843WAT      O 2585   0.394   3.600   3.106
  843WAT     H1 2586   0.465   3.558   3.057
  843WAT     H2 2587   0.323   3.607   3.042
  844WAT      O 2588   0.359   3.206   3.010
  844WAT     H1 2589   0.431   3.260   3.041
  844WAT     H2 2590   0.386   3.178   2.922
  845WAT      O 2591   1.740   3.693   3.436
  845WAT     H1 2592   1.789   3.669   3.515
  845WAT     H2 2593   1.720   3.609   3.395
  846WAT      O 2594   1.883   3.556   3.690
  846WAT     H1 2595   1.872   3.541   3.784
  846WAT     H2 2596   1.959   3.504   3.666
  847WAT      O 2597   1.972   3.339   3.014
  847WAT     H1 2598   2.064   3.326   2.993
  847WAT     H2 2599   1.969   3.347   3.109
  848WAT      O 2600   1.979   3.417   3.276
  848WAT     H1 2601   1.900   3.410   3.329
  848WAT     H2 2602   1.999   3.510   3.275
  849WAT      O 2603   1.809   3.213   3.722
  849WAT     H1 2604   1.802   3.118   3.708
  849WAT     H2 2605   1.887   3.223   3.777
  850WAT      O 2606   0.301   3.210   3.369
  850WAT     H1 2607   0.377   3.221   3.312
  850WAT     H2 2608   0.255   3.293   3.364
  851WAT      O 2609   0.956   3.421   3.668
  851WAT     H1 2610   0.874   3.384   3.634
  851WAT     H2 2611   1.006   3.346   3.698
  852WAT      O 2612   1.406   3.088   3.792
  852WAT     H1 2613   1.466   3.145   3.839
  852WAT     H2 2614   1.332   3.144   3.770
  853WAT      O 2615   1.720   3.128   3.319
  853WAT     H1 2616   1.740   3.218   3.346
  853WAT     H2 2617   1.641   3.105   3.369
  854WAT      O 2618   0.539   3.262   3.223
  854WAT     H1 2619   0.592   3.184   3.210
  854WAT     H2 2620   0.602   3.330   3.246
  855WAT      O 2621   0.758   3.236   3.528
  855WAT     H1 2622   0.695   3.166   3.545
  855WAT     H2 2623   0.704   3.312   3.507
  856WAT      O 2624   1.321   3.907   1.866
  856WAT     H1 2625   1.313   3.816   1.839
  856WAT     H2 2626   1.280   3.957   1.796
  857WAT      O 2627   0.377   3.612   1.520
  857WAT     H1 2628   0.288   3.647   1.510
  857WAT     H2 2629   0.405   3.592   1.431
  858WAT      O 2630   0.298   3.413   2.288
  858WAT     H1 2631   0.280   3.324   2.316
  858WAT     H2 2632   0.257   3.468   2.355
  859WAT      O 2633   1.182   3.633   2.078
  859WAT     H1 2634   1.219   3.546   2.066
  859WAT     H2 2635   1.172   3.667   1.989
  860WAT      O 2636   0.595   3.471   1.624
  860WAT     H1 2637   0.605   3.561   1.655
  860WAT     H2 2638   0.504   3.466   1.595
  861WAT      O 2639   1.560   3.383   1.771
  861WAT     H1 2640   1.642   3.334   1.775
  861WAT     H2 2641   1.563   3.442   1.846
  862WAT      O 2642   0.360   3.663   2.148
  862WAT     H1 2643   0.428   3.689   2.210
  862WAT     H2 2644   0.328   3.579   2.182
  863WAT      O 2645   0.779   3.768   2.057
  863WAT     H1 2646   0.830   3.817   2.121
  863WAT     H2 2647   0.832   3.690   2.039
  864WAT      O 2648   1.989   3.585   2.427
  864WAT     H1 2649   1.918   3.623   2.376
  864WAT     H2 2650   2.015   3.654   2.488
  865WAT      O 2651   0.607   3.232   2.484
  865WAT     H1 2652   0.607   3.283   2.403
  865WAT     H2 2653   0.524   3.184   2.481
  866WAT      O 2654   1.583   3.577   2.048
  866WAT     H1 2655   1.513   3.606   2.106
  866WAT     H2 2656   1.620   3.658   2.012
  867WAT      O 2657   0.575   3.403   2.284
  867WAT     H1 2658   0.609   3.487   2.255
  867WAT     H2 2659   0.481   3.418   2.296
  868WAT      O 2660   1.890   3.522   2.087
  868WAT     H1 2661   1.796   3.525   2.100
  868WAT     H2 2662   1.923   3.603   2.126
  869WAT      O 2663   0.944   3.152   1.917
  869WAT     H1 2664   0.974   3.096   1.845
  869WAT     H2 2665   0.851   3.165   1.899
  870WAT      O 2666   1.182   3.958   1.590
  870WAT     H1 2667   1.090   3.951   1.613
  870WAT     H2 2668   1.198   4.052   1.579
  871WAT      O 2669   1.181   3.585   1.290
  871WAT     H1 2670   1.087   3.601   1.299
  871WAT     H2 2671   1.213   3.657   1.235
  872WAT      O 2672   1.530   3.732   2.382
  872WAT     H1 2673   1.488   3.815   2.408
  872WAT     H2 2674   1.456   3.674   2.363
  873WAT      O 2675   0.743   4.011   1.869
  873WAT     H1 2676   0.703   3.939   1.819
  873WAT     H2 2677   0.752   3.976   1.958
  874WAT      O 2678   0.614   3.688   2.247
  874WAT     H1 2679   0.669   3.699   2.169
  874WAT     H2 2680   0.666   3.725   2.318
  875WAT      O 2681   1.761   3.164   1.173
  875WAT     H1 2682   1.730   3.173   1.263
  875WAT     H2 2683   1.837   3.221   1.168
  876WAT      O 2684   0.413   3.900   1.619
  876WAT     H1 2685   0.401   3.973   1.558
  876WAT     H2 2686   0.382   3.823   1.571
  877WAT      O 2687   1.882   3.637   2.771
  877WAT     H1 2688   1.821   3.688   2.718
  877WAT     H2 2689   1.850   3.547   2.765
  878WAT      O 2690   0.660   3.234   1.957
  878WAT     H1 2691   0.615   3.313   1.924
  878WAT     H2 2692   0.715   3.267   2.028
  879WAT      O 2693   1.088   3.521   2.517
  879WAT     H1 2694   1.042   3.542   2.599
  879WAT     H2 2695   1.048   3.440   2.487
  880WAT      O 2696   1.588   3.643   2.630
  880WAT     H1 2697   1.503   3.613   2.662
  880WAT     H2 2698   1.572   3.668   2.539
  881WAT      O 2699   1.298   3.793   2.840
  881WAT     H1 2700   1.330   3.710   2.806
  881WAT     H2 2701   1.377   3.846   2.855
  882WAT      O 2702   0.971   3.197   1.445
  882WAT     H1 2703   0.909   3.196   1.518
  882WAT     H2 2704   0.963   3.110   1.405
  883WAT      O 2705   0.863   3.289   2.143
  883WAT     H1 2706   0.893   3.380   2.135
  883WAT     H2 2707   0.918   3.240   2.081
  884WAT      O 2708   0.639   3.747   1.730
  884WAT     H1 2709   0.616   3.725   1.820
  884WAT     H2 2710   0.561   3.790   1.695
  885WAT      O 2711   1.362   3.747   1.590
  885WAT     H1 2712   1.302   3.820   1.571
  885WAT     H2 2713   1.417   3.741   1.511
  886WAT      O 2714   0.883   3.837   2.796
  886WAT     H1 2715   0.873   3.743   2.781
  886WAT     H2 2716   0.967   3.859   2.757
  887WAT      O 2717   1.222   3.611   1.793
  887WAT     H1 2718   1.262   3.643   1.711
  887WAT     H2 2719   1.259   3.523   1.804
  888WAT      O 2720   0.396   3.478   2.612
  888WAT     H1 2721   0.356   3.563   2.632
  888WAT     H2 2722   0.327   3.414   2.631
  889WAT      O 2723   1.053   3.486   2.919
  889WAT     H1 2724   0.984   3.467   2.982
  889WAT     H2 2725   1.128   3.514   2.972
  890WAT      O 2726   1.281   3.870   2.202
  890WAT     H1 2727   1.208   3.921   2.237
  890WAT     H2 2728   1.241   3.788   2.172
  891WAT      O 2729   0.925   3.538   2.043
  891WAT     H1 2730   0.925   3.494   1.958
  891WAT     H2 2731   1.014   3.570   2.053
  892WAT      O 2732   0.510   3.526   1.939
  892WAT     H1 2733   0.476   3.574   2.014
  892WAT     H2 2734   0.434   3.481   1.903
  893WAT      O 2735   0.931   3.638   1.342
  893WAT     H1 2736   0.943   3.634   1.437
  893WAT     H2 2737   0.892   3.724   1.326
  894WAT      O 2738   1.327   3.415   2.143
  894WAT     H1 2739   1.329   3.461   2.228
  894WAT     H2 2740   1.302   3.326   2.165
  895WAT      O 2741   0.832   3.869   1.282
  895WAT     H1 2742   0.775   3.824   1.219
  895WAT     H2 2743   0.903   3.905   1.228
  896WAT      O 2744   1.670   3.157   2.727
  896WAT     H1 2745   1.702   3.084   2.780
  896WAT     H2 2746   1.673   3.125   2.637
  897WAT      O 2747   0.955   3.944   2.217
  897WAT     H1 2748   0.991   3.896   2.292
  897WAT     H2 2749   0.936   4.031   2.251
  898WAT      O 2750   0.241   3.418   1.830
  898WAT     H1 2751   0.213   3.382   1.914
  898WAT     H2 2752   0.235   3.345   1.769
  899WAT      O 2753   0.734   3.848   2.449
  899WAT     H1 2754   0.703   3.936   2.472
  899WAT     H2 2755   0.829   3.854   2.453
  900WAT      O 2756   1.209   3.307   1.502
  900WAT     H1 2757   1.127   3.258   1.495
  900WAT     H2 2758   1.189   3.391   1.461
  901WAT      O 2759   1.480   3.745   1.332
  901WAT     H1 2760   1.569   3.776   1.315
  901WAT     H2 2761   1.477   3.657   1.293
  902WAT      O 2762   0.339   3.932   2.564
  902WAT     H1 2763   0.304   3.998   2.623
  902WAT     H2 2764   0.310   3.849   2.601
  903WAT      O 2765   0.660   3.978   2.852
  903WAT     H1 2766   0.630   3.992   2.763
  903WAT     H2 2767   0.737   3.922   2.843
  904WAT      O 2768   1.707   3.876   1.279
  904WAT     H1 2769   1.699   3.919   1.194
  904WAT     H2 2770   1.779   3.922   1.322
  905WAT      O 2771   0.497   3.105   1.686
  905WAT     H1 2772   0.484   3.104   1.780
  905WAT     H2 2773   0.415   3.139   1.651
  906WAT      O 2774   1.346   3.530   2.407
  906WAT     H1 2775   1.383   3.448   2.439
  906WAT     H2 2776   1.260   3.536   2.448
  907WAT      O 2777   1.683   3.426   1.488
  907WAT     H1 2778   1.620   3.436   1.416
  907WAT     H2 2779   1.633   3.447   1.567
  908WAT      O 2780   0.880   3.653   1.629
  908WAT     H1 2781   0.809   3.700   1.673
  908WAT     H2 2782   0.908   3.588   1.693
  909WAT      O 2783   1.042   3.795   2.429
  909WAT     H1 2784   1.092   3.843   2.496
  909WAT     H2 2785   1.057   3.703   2.450
  910WAT      O 2786   1.283   3.326   1.773
  910WAT     H1 2787   1.271   3.328   1.678
  910WAT     H2 2788   1.378   3.331   1.785
  911WAT      O 2789   0.700   3.484   1.367
  911WAT     H1 2790   0.785   3.528   1.360
  911WAT     H2 2791   0.663   3.515   1.449
  912WAT      O 2792   1.763   3.417   2.513
  912WAT     H1 2793   1.713   3.491   2.547
  912WAT     H2 2794   1.845   3.456   2.482
  913WAT      O 2795   1.592   3.941   1.858
  913WAT     H1 2796   1.498   3.943   1.875
  913WAT     H2 2797   1.624   3.863   1.903
  914WAT      O 2798   0.459   3.853   1.282
  914WAT     H1 2799   0.468   3.758   1.294
  914WAT     H2 2800   0.549   3.886   1.293
  915WAT      O 2801   0.415   3.849   2.895
  915WAT     H1 2802   0.419   3.819   2.986
  915WAT     H2 2803   0.501   3.889   2.879
  916WAT      O 2804   0.609   3.707   2.692
  916WAT     H1 2805   0.556   3.658   2.629
  916WAT     H2 2806   0.676   3.750   2.639
  917WAT      O 2807   1.044   4.012   1.136
  917WAT     H1 2808   1.097   3.940   1.100
  917WAT     H2 2809   1.109   4.075   1.166
  918WAT      O 2810   1.546   3.888   2.869
  918WAT     H1 2811   1.605   3.812   2.860
  918WAT     H2 2812   1.564   3.941   2.791
  919WAT      O 2813   0.658   3.404   2.700
  919WAT     H1 2814   0.649   3.342   2.628
  919WAT     H2 2815   0.600   3.476   2.677
  920WAT      O 2816   0.935   3.260   2.403
  920WAT     H1 2817   0.890   3.262   2.319
  920WAT     H2 2818   0.871   3.220   2.463
  921WAT      O 2819   1.209   3.922   2.604
  921WAT     H1 2820   1.221   3.863   2.678
  921WAT     H2 2821   1.295   3.926   2.562
  922WAT      O 2822   1.443   3.978   2.462
  922WAT     H1 2823   1.390   4.030   2.401
  922WAT     H2 2824   1.477   4.041   2.525
  923WAT      O 2825   0.683   3.717   1.106
  923WAT     H1 2826   0.663   3.630   1.142
  923WAT     H2 2827   0.666   3.708   1.012
  924WAT      O 2828   0.886   3.576   2.730
  924WAT     H1 2829   0.945   3.546   2.798
  924WAT     H2 2830   0.804   3.529   2.745
  925WAT      O 2831   1.368   3.538   2.753
  925WAT     H1 2832   1.299   3.472   2.746
  925WAT     H2 2833   1.440   3.493   2.797
  926WAT      O 2834   1.431   3.198   1.359
  926WAT     H1 2835   1.459   3.113   1.394
  926WAT     H2 2836   1.353   3.221   1.410
  927WAT      O 2837   0.563   3.427   1.105
  927WAT     H1 2838   0.593   3.427   1.014
  927WAT     H2 2839   0.637   3.392   1.154
  928WAT      O 2840   0.884   3.321   1.203
  928WAT     H1 2841   0.850   3.253   1.145
  928WAT     H2 2842   0.905   3.275   1.285
  929WAT      O 2843   1.513   3.453   1.265
  929WAT     H1 2844   1.555   3.434   1.181
  929WAT     H2 2845   1.483   3.368   1.296
  930WAT      O 2846   1.863   3.944   1.635
  930WAT     H1 2847   1.826   3.868   1.592
  930WAT     H2 2848   1.790   3.983   1.684
  931WAT      O 2849   0.322   4.012   2.297
  931WAT     H1 2850   0.359   4.004   2.385
  931WAT     H2 2851   0.265   3.936   2.287
  932WAT      O 2852   1.802   3.859   2.598
  932WAT     H1 2853   1.779   3.836   2.508
  932WAT     H2 2854   1.828   3.951   2.594
  933WAT      O 2855   0.277   3.703   2.688
  933WAT     H1 2856   0.188   3.700   2.722
  933WAT     H2 2857   0.331   3.723   2.764
  934WAT      O 2858   1.646   3.382   2.876
  934WAT     H1 2859   1.734   3.383   2.914
  934WAT     H2 2860   1.647   3.308   2.815
  935WAT      O 2861   1.791   3.767   1.965
  935WAT     H1 2862   1.843   3.718   1.902
  935WAT     H2 2863   1.849   3.780   2.039
  936WAT      O 2864   1.809   3.775   2.317
  936WAT     H1 2865   1.714   3.772   2.329
  936WAT     H2 2866   1.827   3.866   2.294
  937WAT      O 2867   0.394   3.600   1.228
  937WAT     H1 2868   0.465   3.558   1.180
  937WAT     H2 2869   0.323   3.607   1.165
  938WAT      O 2870   0.359   3.206   1.132
  938WAT     H1 2871   0.431   3.260   1.164
  938WAT     H2 2872   0.386   3.178   1.045
  939WAT      O 2873   1.740   3.693   1.559
  939WAT     H1 2874   1.789   3.669   1.637
  939WAT     H2 2875   1.720   3.609   1.517
  940WAT      O 2876   0.328   3.131   2.122
  940WAT     H1 2877   0.393   3.076   2.078
  940WAT     H2 2878   0.370   3.156   2.205
  941WAT      O 2879   1.883   3.556   1.812
  941WAT     H1 2880   1.872   3.541   1.906
  941WAT     H2 2881   1.959   3.504   1.788
  942WAT      O 2882   1.717   3.150   2.458
  942WAT     H1 2883   1.781   3.212   2.495
  942WAT     H2 2884   1.732   3.154   2.364
  943WAT      O 2885   1.972   3.339   1.136
  943WAT     H1 2886   2.064   3.326   1.116
  943WAT     H2 2887   1.969   3.347   1.232
  944WAT      O 2888   1.979   3.417   1.399
  944WAT     H1 2889   1.900   3.410   1.452
  944WAT     H2 2890   1.999   3.510   1.398
  945WAT      O 2891   0.303   3.146   2.397
  945WAT     H1 2892   0.268   3.192   2.473
  945WAT     H2 2893   0.270   3.057   2.405
  946WAT      O 2894   1.054   3.266   2.749
  946WAT     H1 2895   1.048   3.325   2.824
  946WAT     H2 2896   1.148   3.255   2.734
  947WAT      O 2897   1.318   3.231   2.713
  947WAT     H1 2898   1.380   3.263   2.647
  947WAT     H2 2899   1.373   3.183   2.775
  948WAT      O 2900   0.370   3.099   2.724
  948WAT     H1 2901   0.425   3.081   2.648
  948WAT     H2 2902   0.377   3.020   2.778
  949WAT      O 2903   1.392   3.088   2.346
  949WAT     H1 2904   1.305   3.121   2.325
  949WAT     H2 2905   1.381   3.040   2.428
  950WAT      O 2906   1.483   3.308   2.484
  950WAT     H1 2907   1.450   3.227   2.446
  950WAT     H2 2908   1.578   3.304   2.472
  951WAT      O 2909   1.167   3.179   2.239
  951WAT     H1 2910   1.089   3.227   2.267
  951WAT     H2 2911   1.138   3.089   2.229
  952WAT      O 2912   1.622   3.249   2.044
  952WAT     H1 2913   1.666   3.244   1.959
  952WAT     H2 2914   1.595   3.341   2.051
  953WAT      O 2915   1.809   3.213   1.845
  953WAT     H1 2916   1.802   3.118   1.830
  953WAT     H2 2917   1.887   3.223   1.900
  954WAT      O 2918   0.301   3.210   1.492
  954WAT     H1 2919   0.377   3.221   1.434
  954WAT     H2 2920   0.255   3.293   1.487
  955WAT      O 2921   0.956   3.421   1.791
  955WAT     H1 2922   0.874   3.384   1.757
  955WAT     H2 2923   1.006   3.346   1.821
  956WAT      O 2924   1.406   3.088   1.914
  956WAT     H1 2925   1.466   3.145   1.962
  956WAT     H2 2926   1.332   3.144   1.892
  957WAT      O 2927   1.720   3.128   1.442
  957WAT     H1 2928   1.740   3.218   1.469
  957WAT     H2 2929   1.641   3.105   1.491
  958WAT      O 2930   0.539   3.262   1.346
  958WAT     H1 2931   0.592   3.184   1.333
  958WAT     H2 2932   0.602   3.330   1.369
  959WAT      O 2933   0.758   3.236   1.651
  959WAT     H1 2934   0.695   3.166   1.668
  959WAT     H2 2935   0.704   3.312   1.629
  960WAT      O 2936   0.771   3.164   2.895
  960WAT     H1 2937   0.742   3.214   2.818
  960WAT     H2 2938   0.809   3.084   2.858
  961WAT      O 2939   1.431   3.105   2.952
  961WAT     H1 2940   1.419   3.137   3.042
  961WAT     H2 2941   1.512   3.146   2.923
  962WAT      O 2942   0.298   3.413   0.410
  962WAT     H1 2943   0.280   3.324   0.438
  962WAT     H2 2944   0.257   3.468   0.478
  963WAT      O 2945   0.360   3.663   0.271
  963WAT     H1 2946   0.428   3.689   0.333
  963WAT     H2 2947   0.328   3.579   0.304
  964WAT      O 2948   0.779   3.768   0.180
  964WAT     H1 2949   0.830   3.817   0.244
  964WAT     H2 2950   0.832   3.690   0.162
  965WAT      O 2951   1.989   3.585   0.550
  965WAT     H1 2952   1.918   3.623   0.498
  965WAT     H2 2953   2.015   3.654   0.610
  966WAT      O 2954   0.607   3.232   0.606
  966WAT     H1 2955   0.607   3.283   0.526
  966WAT     H2 2956   0.524   3.184   0.604
  967WAT      O 2957   0.575   3.403   0.407
  967WAT     H1 2958   0.609   3.487   0.378
  967WAT     H2 2959   0.481   3.418   0.419
  968WAT      O 2960   1.890   3.522   0.210
  968WAT     H1 2961   1.796   3.525   0.223
  968WAT     H2 2962   1.923   3.603   0.248
  969WAT      O 2963   1.530   3.732   0.505
  969WAT     H1 2964   1.488   3.815   0.530
  969WAT     H2 2965   1.456   3.674   0.486
  970WAT      O 2966   0.614   3.688   0.369
  970WAT     H1 2967   0.669   3.699   0.292
  970WAT     H2 2968   0.666   3.725   0.441
  971WAT      O 2969   1.882   3.637   0.893
  971WAT     H1 2970   1.821   3.688   0.840
  971WAT     H2 2971   1.850   3.547   0.888
  972WAT      O 2972   1.088   3.521   0.640
  972WAT     H1 2973   1.042   3.542   0.721
  972WAT     H2 2974   1.048   3.440   0.610
  973WAT      O 2975   1.588   3.643   0.753
  973WAT     H1 2976   1.503   3.613   0.785
  973WAT     H2 2977   1.572   3.668   0.662
  974WAT      O 2978   1.298   3.793   0.963
  974WAT     H1 2979   1.330   3.710   0.929
  974WAT     H2 2980   1.377   3.846   0.978
  975WAT      O 2981   0.863   3.289   0.265
  975WAT     H1 2982   0.893   3.380   0.257
  975WAT     H2 2983   0.918   3.240   0.204
  976WAT      O 2984   0.883   3.837   0.919
  976WAT     H1 2985   0.873   3.743   0.904
  976WAT     H2 2986   0.967   3.859   0.879
  977WAT      O 2987   0.396   3.478   0.734
  977WAT     H1 2988   0.356   3.563   0.755
  977WAT     H2 2989   0.327   3.414   0.753
  978WAT      O 2990   1.053   3.486   1.041
  978WAT     H1 2991   0.984   3.467   1.105
  978WAT     H2 2992   1.128   3.514   1.094
  979WAT      O 2993   1.281   3.870   0.325
  979WAT     H1 2994   1.208   3.921   0.360
  979WAT     H2 2995   1.241   3.788   0.295
  980WAT      O 2996   1.327   3.415   0.266
  980WAT     H1 2997   1.329   3.461   0.350
  980WAT     H2 2998   1.302   3.326   0.287
  981WAT      O 2999   1.670   3.157   0.850
  981WAT     H1 3000   1.702   3.084   0.902
  981WAT     H2 3001   1.673   3.125   0.760
  982WAT      O 3002   0.955   3.944   0.340
  982WAT     H1 3003   0.991   3.896   0.415
  982WAT     H2 3004   0.936   4.031   0.374
  983WAT      O 3005   0.734   3.848   0.572
  983WAT     H1 3006   0.703   3.936   0.594
  983WAT     H2 3007   0.829   3.854   0.575
  984WAT      O 3008   0.339   3.932   0.687
  984WAT     H1 3009   0.304   3.998   0.745
  984WAT     H2 3010   0.310   3.849   0.724
  985WAT      O 3011   0.660   3.978   0.975
  985WAT     H1 3012   0.630   3.992   0.885
  985WAT     H2 3013   0.737   3.922   0.966
  986WAT      O 3014   1.346   3.530   0.529
  986WAT     H1 3015   1.383   3.448   0.562
  986WAT     H2 3016   1.260   3.536   0.571
  987WAT      O 3017   1.042   3.795   0.552
  987WAT     H1 3018   1.092   3.843   0.618
  987WAT     H2 3019   1.057   3.703   0.572
  988WAT      O 3020   1.763   3.417   0.636
  988WAT     H1 3021   1.713   3.491   0.670
  988WAT     H2 3022   1.845   3.456   0.604
  989WAT      O 3023   0.415   3.849   1.018
  989WAT     H1 3024   0.419   3.819   1.109
  989WAT     H2 3025   0.501   3.889   1.002
  990WAT      O 3026   0.609   3.707   0.815
  990WAT     H1 3027   0.556   3.658   0.752
  990WAT     H2 3028   0.676   3.750   0.761
  991WAT      O 3029   1.546   3.888   0.992
  991WAT     H1 3030   1.605   3.812   0.983
  991WAT     H2 3031   1.564   3.941   0.914
  992WAT      O 3032   0.658   3.404   0.823
  992WAT     H1 3033   0.649   3.342   0.750
  992WAT     H2 3034   0.600   3.476   0.800
  993WAT      O 3035   0.935   3.260   0.526
  993WAT     H1 3036   0.890   3.262   0.441
  993WAT     H2 3037   0.871   3.220   0.586
  994WAT      O 3038   1.209   3.922   0.726
  994WAT     H1 3039   1.221   3.863   0.800
  994WAT     H2 3040   1.295   3.926   0.684
  995WAT      O 3041   1.443   3.978   0.584
  995WAT     H1 3042   1.390   4.030   0.524
  995WAT     H2 3043   1.477   4.041   0.647
  996WAT      O 3044   0.886   3.576   0.852
  996WAT     H1 3045   0.945   3.546   0.921
  996WAT     H2 3046   0.804   3.529   0.868
  997WAT      O 3047   1.368   3.538   0.876
  997WAT     H1 3048   1.299   3.472   0.869
  997WAT     H2 3049   1.440   3.493   0.920
  998WAT      O 3050   0.322   4.012   0.420
  998WAT     H1 3051   0.359   4.004   0.508
  998WAT     H2 3052   0.265   3.936   0.410
  999WAT      O 3053   1.802   3.859   0.721
  999WAT     H1 3054   1.779   3.836   0.631
  999WAT     H2 3055   1.828   3.951   0.716
 1000WAT      O 3056   0.277   3.703   0.810
 1000WAT     H1 3057   0.188   3.700   0.844
 1000WAT     H2 3058   0.331   3.723   0.887
 1001WAT      O 3059   1.646   3.382   0.999
 1001WAT     H1 3060   1.734   3.383   1.037
 1001WAT     H2 3061   1.647   3.308   0.938
 1002WAT      O 3062   1.809   3.775   0.440
 1002WAT     H1 3063   1.714   3.772   0.451
 1002WAT     H2 3064   1.827   3.866   0.416
 1003WAT      O 3065   0.328   3.131   0.245
 1003WAT     H1 3066   0.393   3.076   0.201
 1003WAT     H2 3067   0.370   3.156   0.327
 1004WAT      O 3068   1.717   3.150   0.581
 1004WAT     H1 3069   1.781   3.212   0.617
 1004WAT     H2 3070   1.732   3.154   0.486
 1005WAT      O 3071   0.303   3.146   0.519
 1005WAT     H1 3072   0.268   3.192   0.596
 1005WAT     H2 3073   0.270   3.057   0.527
 1006WAT      O 3074   1.054   3.266   0.871
 1006WAT     H1 3075   1.048   3.325   0.946
 1006WAT     H2 3076   1.148   3.255   0.857
 1007WAT      O 3077   1.318   3.231   0.835
 1007WAT     H1 3078   1.380   3.263   0.769
 1007WAT     H2 3079   1.373   3.183   0.897
 1008WAT      O 3080   0.370   3.099   0.847
 1008WAT     H1 3081   0.425   3.081   0.770
 1008WAT     H2 3082   0.377   3.020   0.900
 1009WAT      O 3083   1.392   3.088   0.468
 1009WAT     H1 3084   1.305   3.121   0.448
 1009WAT     H2 3085   1.381   3.040   0.551
 1010WAT      O 3086   1.483   3.308   0.607
 1010WAT     H1 3087   1.450   3.227   0.569
 1010WAT     H2 3088   1.578   3.304   0.594
 1011WAT      O 3089   1.167   3.179   0.362
 1011WAT     H1 3090   1.089   3.227   0.390
 1011WAT     H2 3091   1.138   3.089   0.351
 1012WAT      O 3092   0.771   3.164   1.017
 1012WAT     H1 3093   0.742   3.214   0.941
 1012WAT     H2 3094   0.809   3.084   0.981
 1013WAT      O 3095   1.431   3.105   1.075
 1013WAT     H1 3096   1.419   3.137   1.164
 1013WAT     H2 3097   1.512   3.146   1.045
 1014WAT      O 3098   1.321   2.030   3.744
 1014WAT     H1 3099   1.313   1.939   3.717
 1014WAT     H2 3100   1.280   2.080   3.673
 1015WAT      O 3101   1.537   2.648   3.810
 1015WAT     H1 3102   1.490   2.571   3.843
 1015WAT     H2 3103   1.618   2.651   3.860
 1016WAT      O 3104   0.377   1.735   3.398
 1016WAT     H1 3105   0.288   1.769   3.388
 1016WAT     H2 3106   0.405   1.715   3.309
 1017WAT      O 3107   1.159   2.877   3.772
 1017WAT     H1 3108   1.097   2.923   3.715
 1017WAT     H2 3109   1.245   2.892   3.732
 1018WAT      O 3110   0.595   1.593   3.501
 1018WAT     H1 3111   0.605   1.683   3.532
 1018WAT     H2 3112   0.504   1.588   3.472
 1019WAT      O 3113   1.560   1.506   3.648
 1019WAT     H1 3114   1.642   1.457   3.653
 1019WAT     H2 3115   1.563   1.565   3.724
 1020WAT      O 3116   1.246   2.365   3.511
 1020WAT     H1 3117   1.184   2.412   3.455
 1020WAT     H2 3118   1.297   2.435   3.553
 1021WAT      O 3119   0.944   1.274   3.794
 1021WAT     H1 3120   0.974   1.219   3.723
 1021WAT     H2 3121   0.851   1.288   3.776
 1022WAT      O 3122   1.628   2.518   3.532
 1022WAT     H1 3123   1.617   2.424   3.545
 1022WAT     H2 3124   1.628   2.554   3.621
 1023WAT      O 3125   1.182   2.081   3.468
 1023WAT     H1 3126   1.090   2.074   3.491
 1023WAT     H2 3127   1.198   2.174   3.456
 1024WAT      O 3128   1.181   1.708   3.168
 1024WAT     H1 3129   1.087   1.724   3.176
 1024WAT     H2 3130   1.213   1.780   3.113
 1025WAT      O 3131   1.585   2.237   3.518
 1025WAT     H1 3132   1.523   2.203   3.454
 1025WAT     H2 3133   1.584   2.172   3.589
 1026WAT      O 3134   0.743   2.133   3.746
 1026WAT     H1 3135   0.703   2.062   3.697
 1026WAT     H2 3136   0.752   2.099   3.835
 1027WAT      O 3137   1.403   2.161   3.219
 1027WAT     H1 3138   1.447   2.077   3.204
 1027WAT     H2 3139   1.474   2.224   3.228
 1028WAT      O 3140   1.214   2.655   3.616
 1028WAT     H1 3141   1.258   2.729   3.574
 1028WAT     H2 3142   1.208   2.679   3.708
 1029WAT      O 3143   1.761   1.286   3.050
 1029WAT     H1 3144   1.730   1.295   3.140
 1029WAT     H2 3145   1.837   1.344   3.045
 1030WAT      O 3146   0.413   2.023   3.496
 1030WAT     H1 3147   0.401   2.095   3.435
 1030WAT     H2 3148   0.382   1.946   3.448
 1031WAT      O 3149   0.301   2.510   3.718
 1031WAT     H1 3150   0.261   2.524   3.632
 1031WAT     H2 3151   0.390   2.481   3.698
 1032WAT      O 3152   1.481   2.953   3.351
 1032WAT     H1 3153   1.465   2.924   3.441
 1032WAT     H2 3154   1.464   2.876   3.298
 1033WAT      O 3155   0.729   2.931   3.529
 1033WAT     H1 3156   0.711   2.840   3.508
 1033WAT     H2 3157   0.643   2.967   3.553
 1034WAT      O 3158   1.451   2.704   3.207
 1034WAT     H1 3159   1.382   2.704   3.141
 1034WAT     H2 3160   1.525   2.662   3.164
 1035WAT      O 3161   1.407   2.867   3.615
 1035WAT     H1 3162   1.453   2.789   3.646
 1035WAT     H2 3163   1.441   2.938   3.669
 1036WAT      O 3164   0.660   1.357   3.834
 1036WAT     H1 3165   0.615   1.435   3.801
 1036WAT     H2 3166   0.715   1.389   3.905
 1037WAT      O 3167   0.971   1.319   3.322
 1037WAT     H1 3168   0.909   1.319   3.395
 1037WAT     H2 3169   0.963   1.232   3.283
 1038WAT      O 3170   0.639   1.869   3.607
 1038WAT     H1 3171   0.616   1.848   3.698
 1038WAT     H2 3172   0.561   1.913   3.573
 1039WAT      O 3173   1.362   1.870   3.467
 1039WAT     H1 3174   1.302   1.942   3.449
 1039WAT     H2 3175   1.417   1.864   3.389
 1040WAT      O 3176   1.222   1.734   3.670
 1040WAT     H1 3177   1.262   1.765   3.589
 1040WAT     H2 3178   1.259   1.646   3.682
 1041WAT      O 3179   0.510   1.648   3.816
 1041WAT     H1 3180   0.476   1.696   3.892
 1041WAT     H2 3181   0.434   1.603   3.780
 1042WAT      O 3182   0.931   1.760   3.219
 1042WAT     H1 3183   0.943   1.756   3.314
 1042WAT     H2 3184   0.892   1.847   3.204
 1043WAT      O 3185   0.832   1.991   3.159
 1043WAT     H1 3186   0.775   1.947   3.096
 1043WAT     H2 3187   0.903   2.027   3.106
 1044WAT      O 3188   0.241   1.541   3.708
 1044WAT     H1 3189   0.213   1.504   3.792
 1044WAT     H2 3190   0.235   1.467   3.646
 1045WAT      O 3191   0.587   2.391   3.386
 1045WAT     H1 3192   0.509   2.337   3.370
 1045WAT     H2 3193   0.660   2.339   3.353
 1046WAT      O 3194   1.209   1.430   3.380
 1046WAT     H1 3195   1.127   1.380   3.372
 1046WAT     H2 3196   1.189   1.514   3.338
 1047WAT      O 3197   1.480   1.867   3.210
 1047WAT     H1 3198   1.569   1.898   3.192
 1047WAT     H2 3199   1.477   1.780   3.170
 1048WAT      O 3200   0.591   2.358   3.750
 1048WAT     H1 3201   0.643   2.277   3.745
 1048WAT     H2 3202   0.546   2.352   3.834
 1049WAT      O 3203   1.080   2.484   3.277
 1049WAT     H1 3204   1.114   2.559   3.228
 1049WAT     H2 3205   0.997   2.516   3.314
 1050WAT      O 3206   1.707   1.998   3.156
 1050WAT     H1 3207   1.699   2.041   3.071
 1050WAT     H2 3208   1.779   2.044   3.200
 1051WAT      O 3209   1.810   2.684   3.429
 1051WAT     H1 3210   1.746   2.618   3.457
 1051WAT     H2 3211   1.771   2.724   3.352
 1052WAT      O 3212   1.368   2.417   3.814
 1052WAT     H1 3213   1.403   2.357   3.748
 1052WAT     H2 3214   1.280   2.384   3.831
 1053WAT      O 3215   0.977   2.493   3.555
 1053WAT     H1 3216   1.045   2.547   3.593
 1053WAT     H2 3217   0.898   2.547   3.558
 1054WAT      O 3218   0.907   2.193   3.516
 1054WAT     H1 3219   0.952   2.274   3.538
 1054WAT     H2 3220   0.872   2.161   3.599
 1055WAT      O 3221   0.497   1.227   3.563
 1055WAT     H1 3222   0.484   1.227   3.658
 1055WAT     H2 3223   0.415   1.261   3.528
 1056WAT      O 3224   1.649   2.573   3.083
 1056WAT     H1 3225   1.626   2.501   3.142
 1056WAT     H2 3226   1.610   2.548   2.999
 1057WAT      O 3227   0.227   2.976   3.160
 1057WAT     H1 3228   0.263   3.035   3.095
 1057WAT     H2 3229   0.213   3.030   3.238
 1058WAT      O 3230   1.607   2.365   3.249
 1058WAT     H1 3231   1.578   2.411   3.328
 1058WAT     H2 3232   1.687   2.319   3.276
 1059WAT      O 3233   0.829   2.714   3.242
 1059WAT     H1 3234   0.828   2.787   3.181
 1059WAT     H2 3235   0.737   2.689   3.251
 1060WAT      O 3236   0.389   2.236   3.317
 1060WAT     H1 3237   0.328   2.310   3.318
 1060WAT     H2 3238   0.436   2.245   3.234
 1061WAT      O 3239   1.683   1.548   3.365
 1061WAT     H1 3240   1.620   1.559   3.294
 1061WAT     H2 3241   1.633   1.570   3.444
 1062WAT      O 3242   1.127   2.720   3.108
 1062WAT     H1 3243   1.138   2.700   3.015
 1062WAT     H2 3244   1.038   2.695   3.129
 1063WAT      O 3245   0.880   1.776   3.507
 1063WAT     H1 3246   0.809   1.823   3.551
 1063WAT     H2 3247   0.908   1.710   3.570
 1064WAT      O 3248   1.283   1.448   3.651
 1064WAT     H1 3249   1.271   1.450   3.556
 1064WAT     H2 3250   1.378   1.453   3.663
 1065WAT      O 3251   0.992   2.972   3.578
 1065WAT     H1 3252   1.017   2.968   3.486
 1065WAT     H2 3253   0.897   2.959   3.577
 1066WAT      O 3254   0.700   1.607   3.244
 1066WAT     H1 3255   0.785   1.650   3.237
 1066WAT     H2 3256   0.663   1.638   3.327
 1067WAT      O 3257   1.592   2.064   3.735
 1067WAT     H1 3258   1.498   2.065   3.753
 1067WAT     H2 3259   1.624   1.985   3.780
 1068WAT      O 3260   0.590   2.232   3.091
 1068WAT     H1 3261   0.667   2.221   3.148
 1068WAT     H2 3262   0.598   2.162   3.026
 1069WAT      O 3263   0.459   1.975   3.160
 1069WAT     H1 3264   0.468   1.881   3.171
 1069WAT     H2 3265   0.549   2.008   3.170
 1070WAT      O 3266   0.540   2.990   3.870
 1070WAT     H1 3267   0.613   2.935   3.897
 1070WAT     H2 3268   0.578   3.077   3.856
 1071WAT      O 3269   0.851   2.908   3.052
 1071WAT     H1 3270   0.930   2.937   3.007
 1071WAT     H2 3271   0.799   2.865   2.985
 1072WAT      O 3272   1.756   2.830   3.195
 1072WAT     H1 3273   1.727   2.789   3.113
 1072WAT     H2 3274   1.736   2.923   3.183
 1073WAT      O 3275   0.902   2.430   3.039
 1073WAT     H1 3276   0.892   2.368   3.111
 1073WAT     H2 3277   0.886   2.377   2.960
 1074WAT      O 3278   1.226   2.336   3.099
 1074WAT     H1 3279   1.172   2.381   3.164
 1074WAT     H2 3280   1.289   2.285   3.152
 1075WAT      O 3281   0.793   2.232   3.289
 1075WAT     H1 3282   0.835   2.215   3.373
 1075WAT     H2 3283   0.806   2.151   3.239
 1076WAT      O 3284   1.044   2.134   3.014
 1076WAT     H1 3285   1.097   2.063   2.977
 1076WAT     H2 3286   1.109   2.198   3.044
 1077WAT      O 3287   0.683   1.839   2.983
 1077WAT     H1 3288   0.663   1.753   3.020
 1077WAT     H2 3289   0.666   1.830   2.890
 1078WAT      O 3290   1.431   1.320   3.236
 1078WAT     H1 3291   1.459   1.236   3.272
 1078WAT     H2 3292   1.353   1.343   3.288
 1079WAT      O 3293   0.563   1.549   2.982
 1079WAT     H1 3294   0.593   1.550   2.891
 1079WAT     H2 3295   0.637   1.514   3.032
 1080WAT      O 3296   0.884   1.443   3.081
 1080WAT     H1 3297   0.850   1.376   3.023
 1080WAT     H2 3298   0.905   1.397   3.162
 1081WAT      O 3299   1.101   2.942   3.243
 1081WAT     H1 3300   1.190   2.976   3.245
 1081WAT     H2 3301   1.104   2.870   3.180
 1082WAT      O 3302   0.465   2.480   3.066
 1082WAT     H1 3303   0.509   2.534   3.131
 1082WAT     H2 3304   0.513   2.397   3.066
 1083WAT      O 3305   0.186   2.758   3.811
 1083WAT     H1 3306   0.219   2.672   3.788
 1083WAT     H2 3307   0.229   2.779   3.894
 1084WAT      O 3308   0.646   2.592   3.577
 1084WAT     H1 3309   0.616   2.579   3.667
 1084WAT     H2 3310   0.635   2.506   3.536
 1085WAT      O 3311   1.923   2.569   3.047
 1085WAT     H1 3312   1.840   2.576   3.094
 1085WAT     H2 3313   1.941   2.659   3.017
 1086WAT      O 3314   1.868   2.244   3.297
 1086WAT     H1 3315   1.945   2.301   3.308
 1086WAT     H2 3316   1.870   2.187   3.374
 1087WAT      O 3317   1.969   2.329   3.782
 1087WAT     H1 3318   2.006   2.251   3.741
 1087WAT     H2 3319   2.033   2.398   3.764
 1088WAT      O 3320   1.874   2.273   3.013
 1088WAT     H1 3321   1.901   2.364   3.000
 1088WAT     H2 3322   1.855   2.267   3.107
 1089WAT      O 3323   1.513   1.576   3.143
 1089WAT     H1 3324   1.555   1.557   3.059
 1089WAT     H2 3325   1.483   1.491   3.174
 1090WAT      O 3326   1.863   2.067   3.512
 1090WAT     H1 3327   1.826   1.990   3.469
 1090WAT     H2 3328   1.790   2.105   3.561
 1091WAT      O 3329   0.394   1.723   3.106
 1091WAT     H1 3330   0.465   1.681   3.057
 1091WAT     H2 3331   0.323   1.730   3.042
 1092WAT      O 3332   0.359   1.328   3.010
 1092WAT     H1 3333   0.431   1.382   3.041
 1092WAT     H2 3334   0.386   1.301   2.922
 1093WAT      O 3335   1.740   1.815   3.436
 1093WAT     H1 3336   1.789   1.792   3.515
 1093WAT     H2 3337   1.720   1.731   3.395
 1094WAT      O 3338   1.883   1.679   3.690
 1094WAT     H1 3339   1.872   1.663   3.784
 1094WAT     H2 3340   1.959   1.626   3.666
 1095WAT      O 3341   1.972   1.462   3.014
 1095WAT     H1 3342   2.064   1.449   2.993
 1095WAT     H2 3343   1.969   1.470   3.109
 1096WAT      O 3344   1.979   1.539   3.276
 1096WAT     H1 3345   1.900   1.533   3.329
 1096WAT     H2 3346   1.999   1.633   3.275
 1097WAT      O 3347   1.673   2.943   3.676
 1097WAT     H1 3348   1.733   2.911   3.608
 1097WAT     H2 3349   1.699   2.896   3.755
 1098WAT      O 3350   1.809   1.335   3.722
 1098WAT     H1 3351   1.802   1.241   3.708
 1098WAT     H2 3352   1.887   1.346   3.777
 1099WAT      O 3353   0.301   1.332   3.369
 1099WAT     H1 3354   0.377   1.344   3.312
 1099WAT     H2 3355   0.255   1.416   3.364
 1100WAT      O 3356   0.956   1.544   3.668
 1100WAT     H1 3357   0.874   1.506   3.634
 1100WAT     H2 3358   1.006   1.468   3.698
 1101WAT      O 3359   1.406   1.210   3.792
 1101WAT     H1 3360   1.466   1.267   3.839
 1101WAT     H2 3361   1.332   1.267   3.770
 1102WAT      O 3362   1.720   1.250   3.319
 1102WAT     H1 3363   1.740   1.340   3.346
 1102WAT     H2 3364   1.641   1.227   3.369
 1103WAT      O 3365   0.400   2.818   3.363
 1103WAT     H1 3366   0.347   2.857   3.293
 1103WAT     H2 3367   0.392   2.881   3.435
 1104WAT      O 3368   0.539   1.385   3.223
 1104WAT     H1 3369   0.592   1.306   3.210
 1104WAT     H2 3370   0.602   1.453   3.246
 1105WAT      O 3371   0.758   1.359   3.528
 1105WAT     H1 3372   0.695   1.289   3.545
 1105WAT     H2 3373   0.704   1.435   3.507
 1106WAT      O 3374   1.875   2.974   3.495
 1106WAT     H1 3375   1.893   2.906   3.431
 1106WAT     H2 3376   1.806   3.027   3.456
 1107WAT      O 3377   0.660   3.013   3.251
 1107WAT     H1 3378   0.733   2.985   3.196
 1107WAT     H2 3379   0.686   2.989   3.340
 1108WAT      O 3380   0.576   2.625   3.251
 1108WAT     H1 3381   0.513   2.672   3.306
 1108WAT     H2 3382   0.587   2.540   3.295
 1109WAT      O 3383   1.134   2.208   2.054
 1109WAT     H1 3384   1.057   2.160   2.083
 1109WAT     H2 3385   1.200   2.140   2.037
 1110WAT      O 3386   0.536   2.239   2.142
 1110WAT     H1 3387   0.453   2.213   2.182
 1110WAT     H2 3388   0.597   2.246   2.216
 1111WAT      O 3389   1.537   2.648   1.932
 1111WAT     H1 3390   1.490   2.571   1.965
 1111WAT     H2 3391   1.618   2.651   1.983
 1112WAT      O 3392   0.534   2.642   2.162
 1112WAT     H1 3393   0.564   2.553   2.144
 1112WAT     H2 3394   0.609   2.698   2.139
 1113WAT      O 3395   0.377   1.735   1.520
 1113WAT     H1 3396   0.288   1.769   1.510
 1113WAT     H2 3397   0.405   1.715   1.431
 1114WAT      O 3398   1.159   2.877   1.894
 1114WAT     H1 3399   1.097   2.923   1.837
 1114WAT     H2 3400   1.245   2.892   1.854
 1115WAT      O 3401   1.079   2.475   2.055
 1115WAT     H1 3402   1.072   2.381   2.039
 1115WAT     H2 3403   1.155   2.484   2.112
 1116WAT      O 3404   0.298   1.536   2.288
 1116WAT     H1 3405   0.280   1.446   2.316
 1116WAT     H2 3406   0.257   1.591   2.355
 1117WAT      O 3407   1.182   1.756   2.078
 1117WAT     H1 3408   1.219   1.669   2.066
 1117WAT     H2 3409   1.172   1.790   1.989
 1118WAT      O 3410   0.595   1.593   1.624
 1118WAT     H1 3411   0.605   1.683   1.655
 1118WAT     H2 3412   0.504   1.588   1.595
 1119WAT      O 3413   0.360   1.785   2.148
 1119WAT     H1 3414   0.428   1.812   2.210
 1119WAT     H2 3415   0.328   1.702   2.182
 1120WAT      O 3416   0.779   1.890   2.057
 1120WAT     H1 3417   0.830   1.940   2.121
 1120WAT     H2 3418   0.832   1.813   2.039
 1121WAT      O 3419   0.607   1.354   2.484
 1121WAT     H1 3420   0.607   1.406   2.403
 1121WAT     H2 3421   0.524   1.306   2.481
 1122WAT      O 3422   1.246   2.365   1.634
 1122WAT     H1 3423   1.184   2.412   1.577
 1122WAT     H2 3424   1.297   2.435   1.675
 1123WAT      O 3425   0.732   2.318   2.301
 1123WAT     H1 3426   0.699   2.381   2.366
 1123WAT     H2 3427   0.750   2.371   2.223
 1124WAT      O 3428   0.575   1.525   2.284
 1124WAT     H1 3429   0.609   1.610   2.255
 1124WAT     H2 3430   0.481   1.540   2.296
 1125WAT      O 3431   0.653   2.515   2.483
 1125WAT     H1 3432   0.715   2.582   2.455
 1125WAT     H2 3433   0.567   2.556   2.474
 1126WAT      O 3434   1.745   2.661   2.274
 1126WAT     H1 3435   1.677   2.728   2.274
 1126WAT     H2 3436   1.799   2.681   2.198
 1127WAT      O 3437   0.944   1.274   1.917
 1127WAT     H1 3438   0.974   1.219   1.845
 1127WAT     H2 3439   0.851   1.288   1.899
 1128WAT      O 3440   1.499   2.846   2.146
 1128WAT     H1 3441   1.500   2.805   2.059
 1128WAT     H2 3442   1.443   2.923   2.136
 1129WAT      O 3443   1.628   2.518   1.655
 1129WAT     H1 3444   1.617   2.424   1.667
 1129WAT     H2 3445   1.628   2.554   1.743
 1130WAT      O 3446   1.439   2.336   2.279
 1130WAT     H1 3447   1.480   2.315   2.195
 1130WAT     H2 3448   1.511   2.362   2.336
 1131WAT      O 3449   1.182   2.081   1.590
 1131WAT     H1 3450   1.090   2.074   1.613
 1131WAT     H2 3451   1.198   2.174   1.579
 1132WAT      O 3452   1.181   1.708   1.290
 1132WAT     H1 3453   1.087   1.724   1.299
 1132WAT     H2 3454   1.213   1.780   1.235
 1133WAT      O 3455   0.743   2.133   1.869
 1133WAT     H1 3456   0.703   2.062   1.819
 1133WAT     H2 3457   0.752   2.099   1.958
 1134WAT      O 3458   0.790   2.502   2.085
 1134WAT     H1 3459   0.760   2.441   2.017
 1134WAT     H2 3460   0.885   2.506   2.074
 1135WAT      O 3461   0.614   1.811   2.247
 1135WAT     H1 3462   0.669   1.822   2.169
 1135WAT     H2 3463   0.666   1.848   2.318
 1136WAT      O 3464   1.599   2.859   2.451
 1136WAT     H1 3465   1.551   2.940   2.432
 1136WAT     H2 3466   1.530   2.794   2.467
 1137WAT      O 3467   0.699   2.476   2.750
 1137WAT     H1 3468   0.609   2.498   2.775
 1137WAT     H2 3469   0.701   2.488   2.655
 1138WAT      O 3470   1.403   2.161   1.342
 1138WAT     H1 3471   1.447   2.077   1.327
 1138WAT     H2 3472   1.474   2.224   1.350
 1139WAT      O 3473   0.582   2.163   2.608
 1139WAT     H1 3474   0.568   2.250   2.645
 1139WAT     H2 3475   0.493   2.129   2.593
 1140WAT      O 3476   1.214   2.655   1.738
 1140WAT     H1 3477   1.258   2.729   1.697
 1140WAT     H2 3478   1.208   2.679   1.831
 1141WAT      O 3479   0.761   2.757   2.829
 1141WAT     H1 3480   0.759   2.797   2.742
 1141WAT     H2 3481   0.745   2.664   2.812
 1142WAT      O 3482   1.761   1.286   1.173
 1142WAT     H1 3483   1.730   1.295   1.263
 1142WAT     H2 3484   1.837   1.344   1.168
 1143WAT      O 3485   0.413   2.023   1.619
 1143WAT     H1 3486   0.401   2.095   1.558
 1143WAT     H2 3487   0.382   1.946   1.571
 1144WAT      O 3488   1.957   2.835   2.958
 1144WAT     H1 3489   2.004   2.883   3.026
 1144WAT     H2 3490   2.019   2.829   2.886
 1145WAT      O 3491   0.177   2.340   2.199
 1145WAT     H1 3492   0.185   2.353   2.105
 1145WAT     H2 3493   0.238   2.269   2.219
 1146WAT      O 3494   0.301   2.510   1.840
 1146WAT     H1 3495   0.261   2.524   1.755
 1146WAT     H2 3496   0.390   2.481   1.820
 1147WAT      O 3497   1.897   2.554   2.674
 1147WAT     H1 3498   1.910   2.531   2.582
 1147WAT     H2 3499   1.901   2.471   2.721
 1148WAT      O 3500   1.283   2.925   2.531
 1148WAT     H1 3501   1.335   2.916   2.611
 1148WAT     H2 3502   1.199   2.959   2.560
 1149WAT      O 3503   1.481   2.953   1.474
 1149WAT     H1 3504   1.465   2.924   1.564
 1149WAT     H2 3505   1.464   2.876   1.420
 1150WAT      O 3506   0.729   2.931   1.652
 1150WAT     H1 3507   0.711   2.840   1.630
 1150WAT     H2 3508   0.643   2.967   1.676
 1151WAT      O 3509   1.451   2.704   1.330
 1151WAT     H1 3510   1.382   2.704   1.264
 1151WAT     H2 3511   1.525   2.662   1.287
 1152WAT      O 3512   1.407   2.867   1.737
 1152WAT     H1 3513   1.453   2.789   1.769
 1152WAT     H2 3514   1.441   2.938   1.792
 1153WAT      O 3515   0.182   2.444   2.453
 1153WAT     H1 3516   0.199   2.397   2.372
 1153WAT     H2 3517   0.229   2.393   2.520
 1154WAT      O 3518   0.660   1.357   1.957
 1154WAT     H1 3519   0.615   1.435   1.924
 1154WAT     H2 3520   0.715   1.389   2.028
 1155WAT      O 3521   1.088   1.644   2.517
 1155WAT     H1 3522   1.042   1.665   2.599
 1155WAT     H2 3523   1.048   1.562   2.487
 1156WAT      O 3524   1.298   1.916   2.840
 1156WAT     H1 3525   1.330   1.832   2.806
 1156WAT     H2 3526   1.377   1.968   2.855
 1157WAT      O 3527   0.971   1.319   1.445
 1157WAT     H1 3528   0.909   1.319   1.518
 1157WAT     H2 3529   0.963   1.232   1.405
 1158WAT      O 3530   0.863   1.411   2.143
 1158WAT     H1 3531   0.893   1.502   2.135
 1158WAT     H2 3532   0.918   1.363   2.081
 1159WAT      O 3533   0.639   1.869   1.730
 1159WAT     H1 3534   0.616   1.848   1.820
 1159WAT     H2 3535   0.561   1.913   1.695
 1160WAT      O 3536   0.883   1.959   2.796
 1160WAT     H1 3537   0.873   1.865   2.781
 1160WAT     H2 3538   0.967   1.981   2.757
 1161WAT      O 3539   1.222   1.734   1.793
 1161WAT     H1 3540   1.262   1.765   1.711
 1161WAT     H2 3541   1.259   1.646   1.804
 1162WAT      O 3542   0.396   1.600   2.612
 1162WAT     H1 3543   0.356   1.685   2.632
 1162WAT     H2 3544   0.327   1.537   2.631
 1163WAT      O 3545   1.053   1.609   2.919
 1163WAT     H1 3546   0.984   1.589   2.982
 1163WAT     H2 3547   1.128   1.637   2.972
 1164WAT      O 3548   1.281   1.993   2.202
 1164WAT     H1 3549   1.208   2.044   2.237
 1164WAT     H2 3550   1.241   1.911   2.172
 1165WAT      O 3551   0.925   1.660   2.043
 1165WAT     H1 3552   0.925   1.616   1.958
 1165WAT     H2 3553   1.014   1.692   2.053
 1166WAT      O 3554   0.510   1.648   1.939
 1166WAT     H1 3555   0.476   1.696   2.014
 1166WAT     H2 3556   0.434   1.603   1.903
 1167WAT      O 3557   0.931   1.760   1.342
 1167WAT     H1 3558   0.943   1.756   1.437
 1167WAT     H2 3559   0.892   1.847   1.326
 1168WAT      O 3560   1.327   1.538   2.143
 1168WAT     H1 3561   1.329   1.583   2.228
 1168WAT     H2 3562   1.302   1.448   2.165
 1169WAT      O 3563   0.832   1.991   1.282
 1169WAT     H1 3564   0.775   1.947   1.219
 1169WAT     H2 3565   0.903   2.027   1.228
 1170WAT      O 3566   1.670   1.279   2.727
 1170WAT     H1 3567   1.702   1.206   2.780
 1170WAT     H2 3568   1.673   1.247   2.637
 1171WAT      O 3569   0.340   2.381   2.669
 1171WAT     H1 3570   0.301   2.317   2.729
 1171WAT     H2 3571   0.371   2.452   2.726
 1172WAT      O 3572   0.955   2.066   2.217
 1172WAT     H1 3573   0.991   2.019   2.292
 1172WAT     H2 3574   0.936   2.154   2.251
 1173WAT      O 3575   0.241   1.541   1.830
 1173WAT     H1 3576   0.213   1.504   1.914
 1173WAT     H2 3577   0.235   1.467   1.769
 1174WAT      O 3578   0.734   1.970   2.449
 1174WAT     H1 3579   0.703   2.058   2.472
 1174WAT     H2 3580   0.829   1.976   2.453
 1175WAT      O 3581   0.587   2.391   1.509
 1175WAT     H1 3582   0.509   2.337   1.493
 1175WAT     H2 3583   0.660   2.339   1.475
 1176WAT      O 3584   1.209   1.430   1.502
 1176WAT     H1 3585   1.127   1.380   1.495
 1176WAT     H2 3586   1.189   1.514   1.461
 1177WAT      O 3587   1.201   2.298   2.677
 1177WAT     H1 3588   1.194   2.206   2.651
 1177WAT     H2 3589   1.138   2.307   2.748
 1178WAT      O 3590   0.591   2.358   1.873
 1178WAT     H1 3591   0.643   2.277   1.867
 1178WAT     H2 3592   0.546   2.352   1.957
 1179WAT      O 3593   1.080   2.484   1.400
 1179WAT     H1 3594   1.114   2.559   1.350
 1179WAT     H2 3595   0.997   2.516   1.436
 1180WAT      O 3596   0.339   2.054   2.564
 1180WAT     H1 3597   0.304   2.121   2.623
 1180WAT     H2 3598   0.310   1.971   2.601
 1181WAT      O 3599   0.660   2.100   2.852
 1181WAT     H1 3600   0.630   2.115   2.763
 1181WAT     H2 3601   0.737   2.044   2.843
 1182WAT      O 3602   1.194   2.580   2.652
 1182WAT     H1 3603   1.195   2.487   2.630
 1182WAT     H2 3604   1.123   2.588   2.716
 1183WAT      O 3605   1.707   1.998   1.279
 1183WAT     H1 3606   1.699   2.041   1.194
 1183WAT     H2 3607   1.779   2.044   1.322
 1184WAT      O 3608   1.368   2.417   1.936
 1184WAT     H1 3609   1.403   2.357   1.870
 1184WAT     H2 3610   1.280   2.384   1.954
 1185WAT      O 3611   0.977   2.493   1.677
 1185WAT     H1 3612   1.045   2.547   1.715
 1185WAT     H2 3613   0.898   2.547   1.681
 1186WAT      O 3614   0.907   2.193   1.638
 1186WAT     H1 3615   0.952   2.274   1.661
 1186WAT     H2 3616   0.872   2.161   1.722
 1187WAT      O 3617   1.137   2.744   2.361
 1187WAT     H1 3618   1.202   2.765   2.429
 1187WAT     H2 3619   1.173   2.668   2.316
 1188WAT      O 3620   0.497   1.227   1.686
 1188WAT     H1 3621   0.484   1.227   1.780
 1188WAT     H2 3622   0.415   1.261   1.651
 1189WAT      O 3623   1.264   2.544   2.233
 1189WAT     H1 3624   1.329   2.474   2.244
 1189WAT     H2 3625   1.317   2.622   2.215
 1190WAT      O 3626   1.649   2.573   1.205
 1190WAT     H1 3627   1.626   2.501   1.265
 1190WAT     H2 3628   1.610   2.548   1.122
 1191WAT      O 3629   1.442   2.624   2.553
 1191WAT     H1 3630   1.475   2.683   2.621
 1191WAT     H2 3631   1.350   2.611   2.576
 1192WAT      O 3632   0.227   2.976   1.283
 1192WAT     H1 3633   0.263   3.035   1.217
 1192WAT     H2 3634   0.213   3.030   1.360
 1193WAT      O 3635   1.607   2.365   1.372
 1193WAT     H1 3636   1.578   2.411   1.450
 1193WAT     H2 3637   1.687   2.319   1.398
 1194WAT      O 3638   1.025   2.629   2.870
 1194WAT     H1 3639   0.993   2.557   2.925
 1194WAT     H2 3640   0.957   2.697   2.878
 1195WAT      O 3641   0.829   2.714   1.365
 1195WAT     H1 3642   0.828   2.787   1.303
 1195WAT     H2 3643   0.737   2.689   1.374
 1196WAT      O 3644   0.389   2.236   1.439
 1196WAT     H1 3645   0.328   2.310   1.440
 1196WAT     H2 3646   0.436   2.245   1.357
 1197WAT      O 3647   1.346   1.653   2.407
 1197WAT     H1 3648   1.383   1.570   2.439
 1197WAT     H2 3649   1.260   1.659   2.448
 1198WAT      O 3650   1.127   2.720   1.231
 1198WAT     H1 3651   1.138   2.700   1.138
 1198WAT     H2 3652   1.038   2.695   1.251
 1199WAT      O 3653   0.880   1.776   1.629
 1199WAT     H1 3654   0.809   1.823   1.673
 1199WAT     H2 3655   0.908   1.710   1.693
 1200WAT      O 3656   1.042   1.918   2.429
 1200WAT     H1 3657   1.092   1.965   2.496
 1200WAT     H2 3658   1.057   1.826   2.450
 1201WAT      O 3659   1.283   1.448   1.773
 1201WAT     H1 3660   1.271   1.450   1.678
 1201WAT     H2 3661   1.378   1.453   1.785
 1202WAT      O 3662   0.992   2.972   1.700
 1202WAT     H1 3663   1.017   2.968   1.608
 1202WAT     H2 3664   0.897   2.959   1.700
 1203WAT      O 3665   0.700   1.607   1.367
 1203WAT     H1 3666   0.785   1.650   1.360
 1203WAT     H2 3667   0.663   1.638   1.449
 1204WAT      O 3668   0.590   2.232   1.214
 1204WAT     H1 3669   0.667   2.221   1.270
 1204WAT     H2 3670   0.598   2.162   1.149
 1205WAT      O 3671   0.459   1.975   1.282
 1205WAT     H1 3672   0.468   1.881   1.294
 1205WAT     H2 3673   0.549   2.008   1.293
 1206WAT      O 3674   1.792   2.781   2.026
 1206WAT     H1 3675   1.805   2.863   2.073
 1206WAT     H2 3676   1.879   2.760   1.991
 1207WAT      O 3677   0.540   2.990   1.993
 1207WAT     H1 3678   0.613   2.935   2.020
 1207WAT     H2 3679   0.578   3.077   1.979
 1208WAT      O 3680   0.440   2.909   2.912
 1208WAT     H1 3681   0.520   2.941   2.953
 1208WAT     H2 3682   0.389   2.873   2.984
 1209WAT      O 3683   0.851   2.908   1.175
 1209WAT     H1 3684   0.930   2.937   1.130
 1209WAT     H2 3685   0.799   2.865   1.107
 1210WAT      O 3686   1.324   2.520   2.906
 1210WAT     H1 3687   1.263   2.522   2.832
 1210WAT     H2 3688   1.293   2.446   2.960
 1211WAT      O 3689   1.467   2.892   2.767
 1211WAT     H1 3690   1.562   2.884   2.762
 1211WAT     H2 3691   1.452   2.959   2.835
 1212WAT      O 3692   1.756   2.830   1.317
 1212WAT     H1 3693   1.727   2.789   1.236
 1212WAT     H2 3694   1.736   2.923   1.305
 1213WAT      O 3695   0.902   2.430   1.161
 1213WAT     H1 3696   0.892   2.368   1.234
 1213WAT     H2 3697   0.886   2.377   1.083
 1214WAT      O 3698   0.918   2.298   2.759
 1214WAT     H1 3699   0.841   2.355   2.751
 1214WAT     H2 3700   0.936   2.269   2.670
 1215WAT      O 3701   1.226   2.336   1.222
 1215WAT     H1 3702   1.172   2.381   1.286
 1215WAT     H2 3703   1.289   2.285   1.274
 1216WAT      O 3704   1.632   2.471   2.815
 1216WAT     H1 3705   1.706   2.505   2.765
 1216WAT     H2 3706   1.556   2.488   2.760
 1217WAT      O 3707   0.415   1.972   2.895
 1217WAT     H1 3708   0.419   1.942   2.986
 1217WAT     H2 3709   0.501   2.012   2.879
 1218WAT      O 3710   0.793   2.232   1.411
 1218WAT     H1 3711   0.835   2.215   1.496
 1218WAT     H2 3712   0.806   2.151   1.362
 1219WAT      O 3713   0.609   1.830   2.692
 1219WAT     H1 3714   0.556   1.781   2.629
 1219WAT     H2 3715   0.676   1.873   2.639
 1220WAT      O 3716   1.044   2.134   1.136
 1220WAT     H1 3717   1.097   2.063   1.100
 1220WAT     H2 3718   1.109   2.198   1.166
 1221WAT      O 3719   1.499   2.276   2.669
 1221WAT     H1 3720   1.541   2.292   2.753
 1221WAT     H2 3721   1.406   2.289   2.685
 1222WAT      O 3722   1.546   2.010   2.869
 1222WAT     H1 3723   1.605   1.935   2.860
 1222WAT     H2 3724   1.564   2.063   2.791
 1223WAT      O 3725   0.658   1.526   2.700
 1223WAT     H1 3726   0.649   1.465   2.628
 1223WAT     H2 3727   0.600   1.599   2.677
 1224WAT      O 3728   0.935   1.382   2.403
 1224WAT     H1 3729   0.890   1.384   2.319
 1224WAT     H2 3730   0.871   1.342   2.463
 1225WAT      O 3731   0.975   2.272   2.466
 1225WAT     H1 3732   1.017   2.356   2.448
 1225WAT     H2 3733   0.883   2.285   2.443
 1226WAT      O 3734   1.209   2.045   2.604
 1226WAT     H1 3735   1.221   1.985   2.678
 1226WAT     H2 3736   1.295   2.048   2.562
 1227WAT      O 3737   1.443   2.100   2.462
 1227WAT     H1 3738   1.390   2.153   2.401
 1227WAT     H2 3739   1.477   2.163   2.525
 1228WAT      O 3740   0.683   1.839   1.106
 1228WAT     H1 3741   0.663   1.753   1.142
 1228WAT     H2 3742   0.666   1.830   1.012
 1229WAT      O 3743   0.760   2.902   2.577
 1229WAT     H1 3744   0.707   2.975   2.545
 1229WAT     H2 3745   0.786   2.854   2.498
 1230WAT      O 3746   0.886   1.699   2.730
 1230WAT     H1 3747   0.945   1.668   2.798
 1230WAT     H2 3748   0.804   1.652   2.745
 1231WAT      O 3749   1.368   1.661   2.753
 1231WAT     H1 3750   1.299   1.594   2.746
 1231WAT     H2 3751   1.440   1.616   2.797
 1232WAT      O 3752   1.431   1.320   1.359
 1232WAT     H1 3753   1.459   1.236   1.394
 1232WAT     H2 3754   1.353   1.343   1.410
 1233WAT      O 3755   0.563   1.549   1.105
 1233WAT     H1 3756   0.593   1.550   1.014
 1233WAT     H2 3757   0.637   1.514   1.154
 1234WAT      O 3758   1.046   3.026   2.603
 1234WAT     H1 3759   1.039   3.116   2.634
 1234WAT     H2 3760   0.956   2.994   2.600
 1235WAT      O 3761   0.884   1.443   1.203
 1235WAT     H1 3762   0.850   1.376   1.145
 1235WAT     H2 3763   0.905   1.397   1.285
 1236WAT      O 3764   1.101   2.942   1.365
 1236WAT     H1 3765   1.190   2.976   1.367
 1236WAT     H2 3766   1.104   2.870   1.302
 1237WAT      O 3767   0.465   2.480   1.188
 1237WAT     H1 3768   0.509   2.534   1.254
 1237WAT     H2 3769   0.513   2.397   1.189
 1238WAT      O 3770   0.186   2.758   1.933
 1238WAT     H1 3771   0.219   2.672   1.910
 1238WAT     H2 3772   0.229   2.779   2.016
 1239WAT      O 3773   0.646   2.592   1.699
 1239WAT     H1 3774   0.616   2.579   1.789
 1239WAT     H2 3775   0.635   2.506   1.658
 1240WAT      O 3776   0.235   2.845   2.207
 1240WAT     H1 3777   0.192   2.863   2.290
 1240WAT     H2 3778   0.292   2.921   2.193
 1241WAT      O 3779   1.799   2.795   2.636
 1241WAT     H1 3780   1.739   2.801   2.562
 1241WAT     H2 3781   1.812   2.701   2.649
 1242WAT      O 3782   1.923   2.569   1.170
 1242WAT     H1 3783   1.840   2.576   1.217
 1242WAT     H2 3784   1.941   2.659   1.139
 1243WAT      O 3785   1.667   2.468   2.446
 1243WAT     H1 3786   1.586   2.511   2.472
 1243WAT     H2 3787   1.708   2.529   2.384
 1244WAT      O 3788   1.874   2.273   1.136
 1244WAT     H1 3789   1.901   2.364   1.123
 1244WAT     H2 3790   1.855   2.267   1.229
 1245WAT      O 3791   1.513   1.576   1.265
 1245WAT     H1 3792   1.555   1.557   1.181
 1245WAT     H2 3793   1.483   1.491   1.296
 1246WAT      O 3794   0.322   2.135   2.297
 1246WAT     H1 3795   0.359   2.126   2.385
 1246WAT     H2 3796   0.265   2.059   2.287
 1247WAT      O 3797   0.277   1.826   2.688
 1247WAT     H1 3798   0.188   1.823   2.722
 1247WAT     H2 3799   0.331   1.846   2.764
 1248WAT      O 3800   1.646   1.504   2.876
 1248WAT     H1 3801   1.734   1.505   2.914
 1248WAT     H2 3802   1.647   1.431   2.815
 1249WAT      O 3803   0.394   1.723   1.228
 1249WAT     H1 3804   0.465   1.681   1.180
 1249WAT     H2 3805   0.323   1.730   1.165
 1250WAT      O 3806   0.359   1.328   1.132
 1250WAT     H1 3807   0.431   1.382   1.164
 1250WAT     H2 3808   0.386   1.301   1.045
 1251WAT      O 3809   0.328   1.253   2.122
 1251WAT     H1 3810   0.393   1.198   2.078
 1251WAT     H2 3811   0.370   1.279   2.205
 1252WAT      O 3812   1.717   1.273   2.458
 1252WAT     H1 3813   1.781   1.334   2.495
 1252WAT     H2 3814   1.732   1.276   2.364
 1253WAT      O 3815   1.972   1.462   1.136
 1253WAT     H1 3816   2.064   1.449   1.116
 1253WAT     H2 3817   1.969   1.470   1.232
 1254WAT      O 3818   1.979   1.539   1.399
 1254WAT     H1 3819   1.900   1.533   1.452
 1254WAT     H2 3820   1.999   1.633   1.398
 1255WAT      O 3821   1.673   2.943   1.798
 1255WAT     H1 3822   1.733   2.911   1.731
 1255WAT     H2 3823   1.699   2.896   1.877
 1256WAT      O 3824   0.303   1.269   2.397
 1256WAT     H1 3825   0.268   1.315   2.473
 1256WAT     H2 3826   0.270   1.180   2.405
 1257WAT      O 3827   0.464   2.586   2.813
 1257WAT     H1 3828   0.460   2.549   2.901
 1257WAT     H2 3829   0.477   2.680   2.827
 1258WAT      O 3830   0.834   2.742   2.373
 1258WAT     H1 3831   0.810   2.769   2.285
 1258WAT     H2 3832   0.928   2.759   2.379
 1259WAT      O 3833   1.054   1.388   2.749
 1259WAT     H1 3834   1.048   1.447   2.824
 1259WAT     H2 3835   1.148   1.377   2.734
 1260WAT      O 3836   1.318   1.354   2.713
 1260WAT     H1 3837   1.380   1.386   2.647
 1260WAT     H2 3838   1.373   1.305   2.775
 1261WAT      O 3839   1.960   2.944   2.453
 1261WAT     H1 3840   1.910   2.983   2.382
 1261WAT     H2 3841   1.899   2.881   2.493
 1262WAT      O 3842   0.370   1.222   2.724
 1262WAT     H1 3843   0.425   1.204   2.648
 1262WAT     H2 3844   0.377   1.143   2.778
 1263WAT      O 3845   0.448   2.881   2.525
 1263WAT     H1 3846   0.388   2.868   2.599
 1263WAT     H2 3847   0.447   2.797   2.479
 1264WAT      O 3848   1.392   1.210   2.346
 1264WAT     H1 3849   1.305   1.243   2.325
 1264WAT     H2 3850   1.381   1.163   2.428
 1265WAT      O 3851   1.483   1.431   2.484
 1265WAT     H1 3852   1.450   1.349   2.446
 1265WAT     H2 3853   1.578   1.427   2.472
 1266WAT      O 3854   1.728   3.008   2.181
 1266WAT     H1 3855   1.682   3.083   2.144
 1266WAT     H2 3856   1.665   2.936   2.175
 1267WAT      O 3857   0.411   2.617   2.420
 1267WAT     H1 3858   0.338   2.555   2.414
 1267WAT     H2 3859   0.417   2.657   2.333
 1268WAT      O 3860   0.771   2.839   2.099
 1268WAT     H1 3861   0.823   2.778   2.046
 1268WAT     H2 3862   0.836   2.889   2.148
 1269WAT      O 3863   1.045   2.928   2.181
 1269WAT     H1 3864   1.074   2.902   2.094
 1269WAT     H2 3865   1.096   2.873   2.241
 1270WAT      O 3866   1.167   1.302   2.239
 1270WAT     H1 3867   1.089   1.349   2.267
 1270WAT     H2 3868   1.138   1.211   2.229
 1271WAT      O 3869   1.622   1.372   2.044
 1271WAT     H1 3870   1.666   1.367   1.959
 1271WAT     H2 3871   1.595   1.464   2.051
 1272WAT      O 3872   1.809   1.335   1.845
 1272WAT     H1 3873   1.802   1.241   1.830
 1272WAT     H2 3874   1.887   1.346   1.900
 1273WAT      O 3875   0.301   1.332   1.492
 1273WAT     H1 3876   0.377   1.344   1.434
 1273WAT     H2 3877   0.255   1.416   1.487
 1274WAT      O 3878   0.956   1.544   1.791
 1274WAT     H1 3879   0.874   1.506   1.757
 1274WAT     H2 3880   1.006   1.468   1.821
 1275WAT      O 3881   1.406   1.210   1.914
 1275WAT     H1 3882   1.466   1.267   1.962
 1275WAT     H2 3883   1.332   1.267   1.892
 1276WAT      O 3884   1.720   1.250   1.442
 1276WAT     H1 3885   1.740   1.340   1.469
 1276WAT     H2 3886   1.641   1.227   1.491
 1277WAT      O 3887   0.400   2.818   1.486
 1277WAT     H1 3888   0.347   2.857   1.415
 1277WAT     H2 3889   0.392   2.881   1.558
 1278WAT      O 3890   0.539   1.385   1.346
 1278WAT     H1 3891   0.592   1.306   1.333
 1278WAT     H2 3892   0.602   1.453   1.369
 1279WAT      O 3893   0.758   1.359   1.651
 1279WAT     H1 3894   0.695   1.289   1.668
 1279WAT     H2 3895   0.704   1.435   1.629
 1280WAT      O 3896   1.052   3.020   2.918
 1280WAT     H1 3897   1.145   2.997   2.923
 1280WAT     H2 3898   1.050   3.103   2.870
 1281WAT      O 3899   1.875   2.974   1.618
 1281WAT     H1 3900   1.893   2.906   1.554
 1281WAT     H2 3901   1.806   3.027   1.579
 1282WAT      O 3902   0.771   1.287   2.895
 1282WAT     H1 3903   0.742   1.337   2.818
 1282WAT     H2 3904   0.809   1.207   2.858
 1283WAT      O 3905   0.660   3.013   1.373
 1283WAT     H1 3906   0.733   2.985   1.319
 1283WAT     H2 3907   0.686   2.989   1.462
 1284WAT      O 3908   0.576   2.625   1.374
 1284WAT     H1 3909   0.513   2.672   1.429
 1284WAT     H2 3910   0.587   2.540   1.417
 1285WAT      O 3911   1.431   1.228   2.952
 1285WAT     H1 3912   1.419   1.260   3.042
 1285WAT     H2 3913   1.512   1.268   2.923
 1286WAT      O 3914   1.709   2.943   2.901
 1286WAT     H1 3915   1.788   2.893   2.880
 1286WAT     H2 3916   1.738   3.011   2.961
 1287WAT      O 3917   1.134   2.208   0.177
 1287WAT     H1 3918   1.057   2.160   0.206
 1287WAT     H2 3919   1.200   2.140   0.159
 1288WAT      O 3920   0.536   2.239   0.265
 1288WAT     H1 3921   0.453   2.213   0.305
 1288WAT     H2 3922   0.597   2.246   0.338
 1289WAT      O 3923   0.534   2.642   0.284
 1289WAT     H1 3924   0.564   2.553   0.266
 1289WAT     H2 3925   0.609   2.698   0.261
 1290WAT      O 3926   1.079   2.475   0.178
 1290WAT     H1 3927   1.072   2.381   0.161
 1290WAT     H2 3928   1.155   2.484   0.235
 1291WAT      O 3929   0.298   1.536   0.410
 1291WAT     H1 3930   0.280   1.446   0.438
 1291WAT     H2 3931   0.257   1.591   0.478
 1292WAT      O 3932   0.360   1.785   0.271
 1292WAT     H1 3933   0.428   1.812   0.333
 1292WAT     H2 3934   0.328   1.702   0.304
 1293WAT      O 3935   0.779   1.890   0.180
 1293WAT     H1 3936   0.830   1.940   0.244
 1293WAT     H2 3937   0.832   1.813   0.162
 1294WAT      O 3938   1.989   1.707   0.550
 1294WAT     H1 3939   1.918   1.746   0.498
 1294WAT     H2 3940   2.015   1.777   0.610
 1295WAT      O 3941   0.607   1.354   0.606
 1295WAT     H1 3942   0.607   1.406   0.526
 1295WAT     H2 3943   0.524   1.306   0.604
 1296WAT      O 3944   0.732   2.318   0.424
 1296WAT     H1 3945   0.699   2.381   0.488
 1296WAT     H2 3946   0.750   2.371   0.346
 1297WAT      O 3947   0.575   1.525   0.407
 1297WAT     H1 3948   0.609   1.610   0.378
 1297WAT     H2 3949   0.481   1.540   0.419
 1298WAT      O 3950   0.653   2.515   0.606
 1298WAT     H1 3951   0.715   2.582   0.577
 1298WAT     H2 3952   0.567   2.556   0.596
 1299WAT      O 3953   1.745   2.661   0.397
 1299WAT     H1 3954   1.677   2.728   0.396
 1299WAT     H2 3955   1.799   2.681   0.321
 1300WAT      O 3956   1.890   1.644   0.210
 1300WAT     H1 3957   1.796   1.647   0.223
 1300WAT     H2 3958   1.923   1.725   0.248
 1301WAT      O 3959   1.499   2.846   0.269
 1301WAT     H1 3960   1.500   2.805   0.182
 1301WAT     H2 3961   1.443   2.923   0.258
 1302WAT      O 3962   1.439   2.336   0.401
 1302WAT     H1 3963   1.480   2.315   0.318
 1302WAT     H2 3964   1.511   2.362   0.458
 1303WAT      O 3965   1.833   2.176   0.410
 1303WAT     H1 3966   1.750   2.183   0.363
 1303WAT     H2 3967   1.893   2.234   0.364
 1304WAT      O 3968   1.530   1.855   0.505
 1304WAT     H1 3969   1.488   1.937   0.530
 1304WAT     H2 3970   1.456   1.796   0.486
 1305WAT      O 3971   0.790   2.502   0.208
 1305WAT     H1 3972   0.760   2.441   0.140
 1305WAT     H2 3973   0.885   2.506   0.197
 1306WAT      O 3974   0.614   1.811   0.369
 1306WAT     H1 3975   0.669   1.822   0.292
 1306WAT     H2 3976   0.666   1.848   0.441
 1307WAT      O 3977   1.599   2.859   0.574
 1307WAT     H1 3978   1.551   2.940   0.555
 1307WAT     H2 3979   1.530   2.794   0.589
 1308WAT      O 3980   0.699   2.476   0.873
 1308WAT     H1 3981   0.609   2.498   0.897
 1308WAT     H2 3982   0.701   2.488   0.778
 1309WAT      O 3983   0.582   2.163   0.730
 1309WAT     H1 3984   0.568   2.250   0.767
 1309WAT     H2 3985   0.493   2.129   0.716
 1310WAT      O 3986   0.761   2.757   0.951
 1310WAT     H1 3987   0.759   2.797   0.864
 1310WAT     H2 3988   0.745   2.664   0.935
 1311WAT      O 3989   1.957   2.835   1.081
 1311WAT     H1 3990   2.004   2.883   1.149
 1311WAT     H2 3991   2.019   2.829   1.008
 1312WAT      O 3992   0.177   2.340   0.322
 1312WAT     H1 3993   0.185   2.353   0.228
 1312WAT     H2 3994   0.238   2.269   0.341
 1313WAT      O 3995   1.897   2.554   0.797
 1313WAT     H1 3996   1.910   2.531   0.705
 1313WAT     H2 3997   1.901   2.471   0.844
 1314WAT      O 3998   1.283   2.925   0.654
 1314WAT     H1 3999   1.335   2.916   0.734
 1314WAT     H2 4000   1.199   2.959   0.683
 1315WAT      O 4001   1.882   1.760   0.893
 1315WAT     H1 4002   1.821   1.811   0.840
 1315WAT     H2 4003   1.850   1.670   0.888
 1316WAT      O 4004   0.182   2.444   0.576
 1316WAT     H1 4005   0.199   2.397   0.494
 1316WAT     H2 4006   0.229   2.393   0.642
 1317WAT      O 4007   1.088   1.644   0.640
 1317WAT     H1 4008   1.042   1.665   0.721
 1317WAT     H2 4009   1.048   1.562   0.610
 1318WAT      O 4010   1.588   1.766   0.753
 1318WAT     H1 4011   1.503   1.736   0.785
 1318WAT     H2 4012   1.572   1.790   0.662
 1319WAT      O 4013   1.298   1.916   0.963
 1319WAT     H1 4014   1.330   1.832   0.929
 1319WAT     H2 4015   1.377   1.968   0.978
 1320WAT      O 4016   0.863   1.411   0.265
 1320WAT     H1 4017   0.893   1.502   0.257
 1320WAT     H2 4018   0.918   1.363   0.204
 1321WAT      O 4019   0.883   1.959   0.919
 1321WAT     H1 4020   0.873   1.865   0.904
 1321WAT     H2 4021   0.967   1.981   0.879
 1322WAT      O 4022   0.396   1.600   0.734
 1322WAT     H1 4023   0.356   1.685   0.755
 1322WAT     H2 4024   0.327   1.537   0.753
 1323WAT      O 4025   1.053   1.609   1.041
 1323WAT     H1 4026   0.984   1.589   1.105
 1323WAT     H2 4027   1.128   1.637   1.094
 1324WAT      O 4028   1.281   1.993   0.325
 1324WAT     H1 4029   1.208   2.044   0.360
 1324WAT     H2 4030   1.241   1.911   0.295
 1325WAT      O 4031   1.327   1.538   0.266
 1325WAT     H1 4032   1.329   1.583   0.350
 1325WAT     H2 4033   1.302   1.448   0.287
 1326WAT      O 4034   1.670   1.279   0.850
 1326WAT     H1 4035   1.702   1.206   0.902
 1326WAT     H2 4036   1.673   1.247   0.760
 1327WAT      O 4037   0.340   2.381   0.792
 1327WAT     H1 4038   0.301   2.317   0.852
 1327WAT     H2 4039   0.371   2.452   0.849
 1328WAT      O 4040   0.955   2.066   0.340
 1328WAT     H1 4041   0.991   2.019   0.415
 1328WAT     H2 4042   0.936   2.154   0.374
 1329WAT      O 4043   0.734   1.970   0.572
 1329WAT     H1 4044   0.703   2.058   0.594
 1329WAT     H2 4045   0.829   1.976   0.575
 1330WAT      O 4046   1.662   2.291   0.211
 1330WAT     H1 4047   1.734   2.340   0.172
 1330WAT     H2 4048   1.642   2.223   0.146
 1331WAT      O 4049   1.201   2.298   0.799
 1331WAT     H1 4050   1.194   2.206   0.774
 1331WAT     H2 4051   1.138   2.307   0.871
 1332WAT      O 4052   0.339   2.054   0.687
 1332WAT     H1 4053   0.304   2.121   0.745
 1332WAT     H2 4054   0.310   1.971   0.724
 1333WAT      O 4055   0.660   2.100   0.975
 1333WAT     H1 4056   0.630   2.115   0.885
 1333WAT     H2 4057   0.737   2.044   0.966
 1334WAT      O 4058   1.194   2.580   0.774
 1334WAT     H1 4059   1.195   2.487   0.753
 1334WAT     H2 4060   1.123   2.588   0.838
 1335WAT      O 4061   1.815   2.244   0.709
 1335WAT     H1 4062   1.742   2.303   0.689
 1335WAT     H2 4063   1.868   2.243   0.629
 1336WAT      O 4064   1.137   2.744   0.484
 1336WAT     H1 4065   1.202   2.765   0.552
 1336WAT     H2 4066   1.173   2.668   0.439
 1337WAT      O 4067   1.264   2.544   0.356
 1337WAT     H1 4068   1.329   2.474   0.367
 1337WAT     H2 4069   1.317   2.622   0.338
 1338WAT      O 4070   1.442   2.624   0.676
 1338WAT     H1 4071   1.475   2.683   0.744
 1338WAT     H2 4072   1.350   2.611   0.699
 1339WAT      O 4073   1.025   2.629   0.993
 1339WAT     H1 4074   0.993   2.557   1.047
 1339WAT     H2 4075   0.957   2.697   1.000
 1340WAT      O 4076   1.346   1.653   0.529
 1340WAT     H1 4077   1.383   1.570   0.562
 1340WAT     H2 4078   1.260   1.659   0.571
 1341WAT      O 4079   1.042   1.918   0.552
 1341WAT     H1 4080   1.092   1.965   0.618
 1341WAT     H2 4081   1.057   1.826   0.572
 1342WAT      O 4082   1.763   1.540   0.636
 1342WAT     H1 4083   1.713   1.614   0.670
 1342WAT     H2 4084   1.845   1.578   0.604
 1343WAT      O 4085   0.440   2.909   1.034
 1343WAT     H1 4086   0.520   2.941   1.075
 1343WAT     H2 4087   0.389   2.873   1.106
 1344WAT      O 4088   1.324   2.520   1.029
 1344WAT     H1 4089   1.263   2.522   0.955
 1344WAT     H2 4090   1.293   2.446   1.083
 1345WAT      O 4091   1.467   2.892   0.890
 1345WAT     H1 4092   1.562   2.884   0.885
 1345WAT     H2 4093   1.452   2.959   0.957
 1346WAT      O 4094   0.918   2.298   0.882
 1346WAT     H1 4095   0.841   2.355   0.873
 1346WAT     H2 4096   0.936   2.269   0.793
 1347WAT      O 4097   1.632   2.471   0.938
 1347WAT     H1 4098   1.706   2.505   0.887
 1347WAT     H2 4099   1.556   2.488   0.882
 1348WAT      O 4100   0.415   1.972   1.018
 1348WAT     H1 4101   0.419   1.942   1.109
 1348WAT     H2 4102   0.501   2.012   1.002
 1349WAT      O 4103   0.609   1.830   0.815
 1349WAT     H1 4104   0.556   1.781   0.752
 1349WAT     H2 4105   0.676   1.873   0.761
 1350WAT      O 4106   1.499   2.276   0.791
 1350WAT     H1 4107   1.541   2.292   0.876
 1350WAT     H2 4108   1.406   2.289   0.807
 1351WAT      O 4109   1.546   2.010   0.992
 1351WAT     H1 4110   1.605   1.935   0.983
 1351WAT     H2 4111   1.564   2.063   0.914
 1352WAT      O 4112   0.658   1.526   0.823
 1352WAT     H1 4113   0.649   1.465   0.750
 1352WAT     H2 4114   0.600   1.599   0.800
 1353WAT      O 4115   0.935   1.382   0.526
 1353WAT     H1 4116   0.890   1.384   0.441
 1353WAT     H2 4117   0.871   1.342   0.586
 1354WAT      O 4118   0.975   2.272   0.588
 1354WAT     H1 4119   1.017   2.356   0.571
 1354WAT     H2 4120   0.883   2.285   0.565
 1355WAT      O 4121   1.209   2.045   0.726
 1355WAT     H1 4122   1.221   1.985   0.800
 1355WAT     H2 4123   1.295   2.048   0.684
 1356WAT      O 4124   1.443   2.100   0.584
 1356WAT     H1 4125   1.390   2.153   0.524
 1356WAT     H2 4126   1.477   2.163   0.647
 1357WAT      O 4127   0.760   2.902   0.700
 1357WAT     H1 4128   0.707   2.975   0.668
 1357WAT     H2 4129   0.786   2.854   0.621
 1358WAT      O 4130   0.886   1.699   0.852
 1358WAT     H1 4131   0.945   1.668   0.921
 1358WAT     H2 4132   0.804   1.652   0.868
 1359WAT      O 4133   1.368   1.661   0.876
 1359WAT     H1 4134   1.299   1.594   0.869
 1359WAT     H2 4135   1.440   1.616   0.920
 1360WAT      O 4136   1.046   3.026   0.726
 1360WAT     H1 4137   1.039   3.116   0.756
 1360WAT     H2 4138   0.956   2.994   0.723
 1361WAT      O 4139   0.235   2.845   0.330
 1361WAT     H1 4140   0.192   2.863   0.413
 1361WAT     H2 4141   0.292   2.921   0.316
 1362WAT      O 4142   1.799   2.795   0.758
 1362WAT     H1 4143   1.739   2.801   0.684
 1362WAT     H2 4144   1.812   2.701   0.771
 1363WAT      O 4145   1.667   2.468   0.568
 1363WAT     H1 4146   1.586   2.511   0.594
 1363WAT     H2 4147   1.708   2.529   0.507
 1364WAT      O 4148   0.322   2.135   0.420
 1364WAT     H1 4149   0.359   2.126   0.508
 1364WAT     H2 4150   0.265   2.059   0.410
 1365WAT      O 4151   1.802   1.982   0.721
 1365WAT     H1 4152   1.779   1.959   0.631
 1365WAT     H2 4153   1.828   2.074   0.716
 1366WAT      O 4154   0.277   1.826   0.810
 1366WAT     H1 4155   0.188   1.823   0.844
 1366WAT     H2 4156   0.331   1.846   0.887
 1367WAT      O 4157   1.646   1.504   0.999
 1367WAT     H1 4158   1.734   1.505   1.037
 1367WAT     H2 4159   1.647   1.431   0.938
 1368WAT      O 4160   1.809   1.898   0.440
 1368WAT     H1 4161   1.714   1.895   0.451
 1368WAT     H2 4162   1.827   1.989   0.416
 1369WAT      O 4163   0.328   1.253   0.245
 1369WAT     H1 4164   0.393   1.198   0.201
 1369WAT     H2 4165   0.370   1.279   0.327
 1370WAT      O 4166   1.717   1.273   0.581
 1370WAT     H1 4167   1.781   1.334   0.617
 1370WAT     H2 4168   1.732   1.276   0.486
 1371WAT      O 4169   0.303   1.269   0.519
 1371WAT     H1 4170   0.268   1.315   0.596
 1371WAT     H2 4171   0.270   1.180   0.527
 1372WAT      O 4172   0.464   2.586   0.936
 1372WAT     H1 4173   0.460   2.549   1.024
 1372WAT     H2 4174   0.477   2.680   0.950
 1373WAT      O 4175   0.834   2.742   0.496
 1373WAT     H1 4176   0.810   2.769   0.407
 1373WAT     H2 4177   0.928   2.759   0.501
 1374WAT      O 4178   1.054   1.388   0.871
 1374WAT     H1 4179   1.048   1.447   0.946
 1374WAT     H2 4180   1.148   1.377   0.857
 1375WAT      O 4181   1.318   1.354   0.835
 1375WAT     H1 4182   1.380   1.386   0.769
 1375WAT     H2 4183   1.373   1.305   0.897
 1376WAT      O 4184   1.960   2.944   0.576
 1376WAT     H1 4185   1.910   2.983   0.504
 1376WAT     H2 4186   1.899   2.881   0.615
 1377WAT      O 4187   0.370   1.222   0.847
 1377WAT     H1 4188   0.425   1.204   0.770
 1377WAT     H2 4189   0.377   1.143   0.900
 1378WAT      O 4190   0.448   2.881   0.648
 1378WAT     H1 4191   0.388   2.868   0.722
 1378WAT     H2 4192   0.447   2.797   0.601
 1379WAT      O 4193   1.392   1.210   0.468
 1379WAT     H1 4194   1.305   1.243   0.448
 1379WAT     H2 4195   1.381   1.163   0.551
 1380WAT      O 4196   1.483   1.431   0.607
 1380WAT     H1 4197   1.450   1.349   0.569
 1380WAT     H2 4198   1.578   1.427   0.594
 1381WAT      O 4199   1.728   3.008   0.304
 1381WAT     H1 4200   1.682   3.083   0.266
 1381WAT     H2 4201   1.665   2.936   0.298
 1382WAT      O 4202   0.411   2.617   0.543
 1382WAT     H1 4203   0.338   2.555   0.536
 1382WAT     H2 4204   0.417   2.657   0.456
 1383WAT      O 4205   0.771   2.839   0.221
 1383WAT     H1 4206   0.823   2.778   0.169
 1383WAT     H2 4207   0.836   2.889   0.270
 1384WAT      O 4208   1.045   2.928   0.304
 1384WAT     H1 4209   1.074   2.902   0.216
 1384WAT     H2 4210   1.096   2.873   0.363
 1385WAT      O 4211   1.167   1.302   0.362
 1385WAT     H1 4212   1.089   1.349   0.390
 1385WAT     H2 4213   1.138   1.211   0.351
 1386WAT      O 4214   1.052   3.020   1.041
 1386WAT     H1 4215   1.145   2.997   1.045
 1386WAT     H2 4216   1.050   3.103   0.993
 1387WAT      O 4217   0.771   1.287   1.017
 1387WAT     H1 4218   0.742   1.337   0.941
 1387WAT     H2 4219   0.809   1.207   0.981
 1388WAT      O 4220   1.431   1.228   1.075
 1388WAT     H1 4221   1.419   1.260   1.164
 1388WAT     H2 4222   1.512   1.268   1.045
 1389WAT      O 4223   1.709   2.943   1.023
 1389WAT     H1 4224   1.788   2.893   1.002
 1389WAT     H2 4225   1.738   3.011   1.084
 1390WAT      O 4226   1.537   0.771   3.810
 1390WAT     H1 4227   1.490   0.694   3.843
 1390WAT     H2 4228   1.618   0.774   3.860
 1391WAT      O 4229   1.159   1.000   3.772
 1391WAT     H1 4230   1.097   1.045   3.715
 1391WAT     H2 4231   1.245   1.015   3.732
 1392WAT      O 4232   1.246   0.488   3.511
 1392WAT     H1 4233   1.184   0.534   3.455
 1392WAT     H2 4234   1.297   0.557   3.553
 1393WAT      O 4235   1.628   0.640   3.532
 1393WAT     H1 4236   1.617   0.546   3.545
 1393WAT     H2 4237   1.628   0.677   3.621
 1394WAT      O 4238   1.182   0.203   3.468
 1394WAT     H1 4239   1.090   0.197   3.491
 1394WAT     H2 4240   1.198   0.297   3.456
 1395WAT      O 4241   1.585   0.359   3.518
 1395WAT     H1 4242   1.523   0.326   3.454
 1395WAT     H2 4243   1.584   0.295   3.589
 1396WAT      O 4244   0.743   0.256   3.746
 1396WAT     H1 4245   0.703   0.185   3.697
 1396WAT     H2 4246   0.752   0.221   3.835
 1397WAT      O 4247   1.403   0.283   3.219
 1397WAT     H1 4248   1.447   0.199   3.204
 1397WAT     H2 4249   1.474   0.346   3.228
 1398WAT      O 4250   1.214   0.777   3.616
 1398WAT     H1 4251   1.258   0.851   3.574
 1398WAT     H2 4252   1.208   0.801   3.708
 1399WAT      O 4253   0.301   0.632   3.718
 1399WAT     H1 4254   0.261   0.647   3.632
 1399WAT     H2 4255   0.390   0.604   3.698
 1400WAT      O 4256   1.481   1.076   3.351
 1400WAT     H1 4257   1.465   1.047   3.441
 1400WAT     H2 4258   1.464   0.998   3.298
 1401WAT      O 4259   0.729   1.054   3.529
 1401WAT     H1 4260   0.711   0.962   3.508
 1401WAT     H2 4261   0.643   1.090   3.553
 1402WAT      O 4262   1.451   0.827   3.207
 1402WAT     H1 4263   1.382   0.827   3.141
 1402WAT     H2 4264   1.525   0.784   3.164
 1403WAT      O 4265   1.407   0.989   3.615
 1403WAT     H1 4266   1.453   0.911   3.646
 1403WAT     H2 4267   1.441   1.060   3.669
 1404WAT      O 4268   0.587   0.513   3.386
 1404WAT     H1 4269   0.509   0.459   3.370
 1404WAT     H2 4270   0.660   0.462   3.353
 1405WAT      O 4271   0.591   0.480   3.750
 1405WAT     H1 4272   0.643   0.400   3.745
 1405WAT     H2 4273   0.546   0.474   3.834
 1406WAT      O 4274   1.080   0.607   3.277
 1406WAT     H1 4275   1.114   0.681   3.228
 1406WAT     H2 4276   0.997   0.638   3.314
 1407WAT      O 4277   1.810   0.806   3.429
 1407WAT     H1 4278   1.746   0.741   3.457
 1407WAT     H2 4279   1.771   0.847   3.352
 1408WAT      O 4280   1.368   0.539   3.814
 1408WAT     H1 4281   1.403   0.479   3.748
 1408WAT     H2 4282   1.280   0.507   3.831
 1409WAT      O 4283   0.977   0.615   3.555
 1409WAT     H1 4284   1.045   0.670   3.593
 1409WAT     H2 4285   0.898   0.670   3.558
 1410WAT      O 4286   0.907   0.316   3.516
 1410WAT     H1 4287   0.952   0.397   3.538
 1410WAT     H2 4288   0.872   0.284   3.599
 1411WAT      O 4289   1.649   0.695   3.083
 1411WAT     H1 4290   1.626   0.624   3.142
 1411WAT     H2 4291   1.610   0.671   2.999
 1412WAT      O 4292   0.227   1.098   3.160
 1412WAT     H1 4293   0.263   1.158   3.095
 1412WAT     H2 4294   0.213   1.153   3.238
 1413WAT      O 4295   1.607   0.487   3.249
 1413WAT     H1 4296   1.578   0.533   3.328
 1413WAT     H2 4297   1.687   0.441   3.276
 1414WAT      O 4298   0.829   0.836   3.242
 1414WAT     H1 4299   0.828   0.910   3.181
 1414WAT     H2 4300   0.737   0.812   3.251
 1415WAT      O 4301   0.389   0.359   3.317
 1415WAT     H1 4302   0.328   0.433   3.318
 1415WAT     H2 4303   0.436   0.368   3.234
 1416WAT      O 4304   1.127   0.843   3.108
 1416WAT     H1 4305   1.138   0.822   3.015
 1416WAT     H2 4306   1.038   0.817   3.129
 1417WAT      O 4307   0.992   1.095   3.578
 1417WAT     H1 4308   1.017   1.091   3.486
 1417WAT     H2 4309   0.897   1.082   3.577
 1418WAT      O 4310   0.590   0.355   3.091
 1418WAT     H1 4311   0.667   0.343   3.148
 1418WAT     H2 4312   0.598   0.285   3.026
 1419WAT      O 4313   0.540   1.113   3.870
 1419WAT     H1 4314   0.613   1.058   3.897
 1419WAT     H2 4315   0.578   1.199   3.856
 1420WAT      O 4316   0.851   1.030   3.052
 1420WAT     H1 4317   0.930   1.059   3.007
 1420WAT     H2 4318   0.799   0.987   2.985
 1421WAT      O 4319   1.756   0.953   3.195
 1421WAT     H1 4320   1.727   0.912   3.113
 1421WAT     H2 4321   1.736   1.046   3.183
 1422WAT      O 4322   0.902   0.552   3.039
 1422WAT     H1 4323   0.892   0.491   3.111
 1422WAT     H2 4324   0.886   0.500   2.960
 1423WAT      O 4325   1.226   0.458   3.099
 1423WAT     H1 4326   1.172   0.503   3.164
 1423WAT     H2 4327   1.289   0.408   3.152
 1424WAT      O 4328   0.793   0.354   3.289
 1424WAT     H1 4329   0.835   0.338   3.373
 1424WAT     H2 4330   0.806   0.273   3.239
 1425WAT      O 4331   1.044   0.257   3.014
 1425WAT     H1 4332   1.097   0.185   2.977
 1425WAT     H2 4333   1.109   0.321   3.044
 1426WAT      O 4334   1.101   1.065   3.243
 1426WAT     H1 4335   1.190   1.099   3.245
 1426WAT     H2 4336   1.104   0.993   3.180
 1427WAT      O 4337   0.465   0.602   3.066
 1427WAT     H1 4338   0.509   0.656   3.131
 1427WAT     H2 4339   0.513   0.520   3.066
 1428WAT      O 4340   0.186   0.881   3.811
 1428WAT     H1 4341   0.219   0.794   3.788
 1428WAT     H2 4342   0.229   0.902   3.894
 1429WAT      O 4343   0.646   0.714   3.577
 1429WAT     H1 4344   0.616   0.702   3.667
 1429WAT     H2 4345   0.635   0.628   3.536
 1430WAT      O 4346   1.923   0.692   3.047
 1430WAT     H1 4347   1.840   0.699   3.094
 1430WAT     H2 4348   1.941   0.781   3.017
 1431WAT      O 4349   1.868   0.367   3.297
 1431WAT     H1 4350   1.945   0.423   3.308
 1431WAT     H2 4351   1.870   0.310   3.374
 1432WAT      O 4352   1.969   0.452   3.782
 1432WAT     H1 4353   2.006   0.374   3.741
 1432WAT     H2 4354   2.033   0.521   3.764
 1433WAT      O 4355   1.874   0.396   3.013
 1433WAT     H1 4356   1.901   0.487   3.000
 1433WAT     H2 4357   1.855   0.389   3.107
 1434WAT      O 4358   1.673   1.066   3.676
 1434WAT     H1 4359   1.733   1.033   3.608
 1434WAT     H2 4360   1.699   1.018   3.755
 1435WAT      O 4361   0.400   0.941   3.363
 1435WAT     H1 4362   0.347   0.979   3.293
 1435WAT     H2 4363   0.392   1.004   3.435
 1436WAT      O 4364   1.875   1.097   3.495
 1436WAT     H1 4365   1.893   1.028   3.431
 1436WAT     H2 4366   1.806   1.149   3.456
 1437WAT      O 4367   0.660   1.136   3.251
 1437WAT     H1 4368   0.733   1.107   3.196
 1437WAT     H2 4369   0.686   1.112   3.340
 1438WAT      O 4370   0.576   0.747   3.251
 1438WAT     H1 4371   0.513   0.794   3.306
 1438WAT     H2 4372   0.587   0.663   3.295
 1439WAT      O 4373   1.134   0.330   2.054
 1439WAT     H1 4374   1.057   0.282   2.083
 1439WAT     H2 4375   1.200   0.262   2.037
 1440WAT      O 4376   0.536   0.362   2.142
 1440WAT     H1 4377   0.453   0.336   2.182
 1440WAT     H2 4378   0.597   0.369   2.216
 1441WAT      O 4379   1.537   0.771   1.932
 1441WAT     H1 4380   1.490   0.694   1.965
 1441WAT     H2 4381   1.618   0.774   1.983
 1442WAT      O 4382   0.534   0.765   2.162
 1442WAT     H1 4383   0.564   0.676   2.144
 1442WAT     H2 4384   0.609   0.821   2.139
 1443WAT      O 4385   1.159   1.000   1.894
 1443WAT     H1 4386   1.097   1.045   1.837
 1443WAT     H2 4387   1.245   1.015   1.854
 1444WAT      O 4388   1.079   0.598   2.055
 1444WAT     H1 4389   1.072   0.504   2.039
 1444WAT     H2 4390   1.155   0.607   2.112
 1445WAT      O 4391   1.246   0.488   1.634
 1445WAT     H1 4392   1.184   0.534   1.577
 1445WAT     H2 4393   1.297   0.557   1.675
 1446WAT      O 4394   0.732   0.441   2.301
 1446WAT     H1 4395   0.699   0.503   2.366
 1446WAT     H2 4396   0.750   0.493   2.223
 1447WAT      O 4397   0.653   0.637   2.483
 1447WAT     H1 4398   0.715   0.705   2.455
 1447WAT     H2 4399   0.567   0.678   2.474
 1448WAT      O 4400   1.745   0.784   2.274
 1448WAT     H1 4401   1.677   0.851   2.274
 1448WAT     H2 4402   1.799   0.804   2.198
 1449WAT      O 4403   1.499   0.968   2.146
 1449WAT     H1 4404   1.500   0.928   2.059
 1449WAT     H2 4405   1.443   1.046   2.136
 1450WAT      O 4406   1.628   0.640   1.655
 1450WAT     H1 4407   1.617   0.546   1.667
 1450WAT     H2 4408   1.628   0.677   1.743
 1451WAT      O 4409   1.439   0.459   2.279
 1451WAT     H1 4410   1.480   0.437   2.195
 1451WAT     H2 4411   1.511   0.484   2.336
 1452WAT      O 4412   1.182   0.203   1.590
 1452WAT     H1 4413   1.090   0.197   1.613
 1452WAT     H2 4414   1.198   0.297   1.579
 1453WAT      O 4415   1.833   0.298   2.288
 1453WAT     H1 4416   1.750   0.305   2.240
 1453WAT     H2 4417   1.893   0.357   2.241
 1454WAT      O 4418   1.585   0.359   1.641
 1454WAT     H1 4419   1.523   0.326   1.576
 1454WAT     H2 4420   1.584   0.295   1.712
 1455WAT      O 4421   0.743   0.256   1.869
 1455WAT     H1 4422   0.703   0.185   1.819
 1455WAT     H2 4423   0.752   0.221   1.958
 1456WAT      O 4424   0.790   0.624   2.085
 1456WAT     H1 4425   0.760   0.564   2.017
 1456WAT     H2 4426   0.885   0.628   2.074
 1457WAT      O 4427   1.599   0.982   2.451
 1457WAT     H1 4428   1.551   1.062   2.432
 1457WAT     H2 4429   1.530   0.917   2.467
 1458WAT      O 4430   0.699   0.598   2.750
 1458WAT     H1 4431   0.609   0.621   2.775
 1458WAT     H2 4432   0.701   0.611   2.655
 1459WAT      O 4433   1.403   0.283   1.342
 1459WAT     H1 4434   1.447   0.199   1.327
 1459WAT     H2 4435   1.474   0.346   1.350
 1460WAT      O 4436   0.582   0.285   2.608
 1460WAT     H1 4437   0.568   0.373   2.645
 1460WAT     H2 4438   0.493   0.251   2.593
 1461WAT      O 4439   1.214   0.777   1.738
 1461WAT     H1 4440   1.258   0.851   1.697
 1461WAT     H2 4441   1.208   0.801   1.831
 1462WAT      O 4442   0.761   0.880   2.829
 1462WAT     H1 4443   0.759   0.920   2.742
 1462WAT     H2 4444   0.745   0.787   2.812
 1463WAT      O 4445   1.957   0.958   2.958
 1463WAT     H1 4446   2.004   1.006   3.026
 1463WAT     H2 4447   2.019   0.951   2.886
 1464WAT      O 4448   0.177   0.462   2.199
 1464WAT     H1 4449   0.185   0.476   2.105
 1464WAT     H2 4450   0.238   0.392   2.219
 1465WAT      O 4451   0.301   0.632   1.840
 1465WAT     H1 4452   0.261   0.647   1.755
 1465WAT     H2 4453   0.390   0.604   1.820
 1466WAT      O 4454   1.897   0.677   2.674
 1466WAT     H1 4455   1.910   0.653   2.582
 1466WAT     H2 4456   1.901   0.594   2.721
 1467WAT      O 4457   1.283   1.047   2.531
 1467WAT     H1 4458   1.335   1.038   2.611
 1467WAT     H2 4459   1.199   1.082   2.560
 1468WAT      O 4460   1.481   1.076   1.474
 1468WAT     H1 4461   1.465   1.047   1.564
 1468WAT     H2 4462   1.464   0.998   1.420
 1469WAT      O 4463   0.729   1.054   1.652
 1469WAT     H1 4464   0.711   0.962   1.630
 1469WAT     H2 4465   0.643   1.090   1.676
 1470WAT      O 4466   1.451   0.827   1.330
 1470WAT     H1 4467   1.382   0.827   1.264
 1470WAT     H2 4468   1.525   0.784   1.287
 1471WAT      O 4469   1.407   0.989   1.737
 1471WAT     H1 4470   1.453   0.911   1.769
 1471WAT     H2 4471   1.441   1.060   1.792
 1472WAT      O 4472   0.182   0.567   2.453
 1472WAT     H1 4473   0.199   0.520   2.372
 1472WAT     H2 4474   0.229   0.516   2.520
 1473WAT      O 4475   0.340   0.504   2.669
 1473WAT     H1 4476   0.301   0.440   2.729
 1473WAT     H2 4477   0.371   0.574   2.726
 1474WAT      O 4478   0.587   0.513   1.509
 1474WAT     H1 4479   0.509   0.459   1.493
 1474WAT     H2 4480   0.660   0.462   1.475
 1475WAT      O 4481   1.662   0.413   2.088
 1475WAT     H1 4482   1.734   0.463   2.049
 1475WAT     H2 4483   1.642   0.345   2.024
 1476WAT      O 4484   1.201   0.420   2.677
 1476WAT     H1 4485   1.194   0.328   2.651
 1476WAT     H2 4486   1.138   0.430   2.748
 1477WAT      O 4487   0.591   0.480   1.873
 1477WAT     H1 4488   0.643   0.400   1.867
 1477WAT     H2 4489   0.546   0.474   1.957
 1478WAT      O 4490   1.080   0.607   1.400
 1478WAT     H1 4491   1.114   0.681   1.350
 1478WAT     H2 4492   0.997   0.638   1.436
 1479WAT      O 4493   0.660   0.223   2.852
 1479WAT     H1 4494   0.630   0.237   2.763
 1479WAT     H2 4495   0.737   0.167   2.843
 1480WAT      O 4496   1.194   0.702   2.652
 1480WAT     H1 4497   1.195   0.609   2.630
 1480WAT     H2 4498   1.123   0.711   2.716
 1481WAT      O 4499   1.815   0.367   2.587
 1481WAT     H1 4500   1.742   0.426   2.567
 1481WAT     H2 4501   1.868   0.366   2.507
 1482WAT      O 4502   1.810   0.806   1.552
 1482WAT     H1 4503   1.746   0.741   1.579
 1482WAT     H2 4504   1.771   0.847   1.474
 1483WAT      O 4505   1.368   0.539   1.936
 1483WAT     H1 4506   1.403   0.479   1.870
 1483WAT     H2 4507   1.280   0.507   1.954
 1484WAT      O 4508   0.977   0.615   1.677
 1484WAT     H1 4509   1.045   0.670   1.715
 1484WAT     H2 4510   0.898   0.670   1.681
 1485WAT      O 4511   0.907   0.316   1.638
 1485WAT     H1 4512   0.952   0.397   1.661
 1485WAT     H2 4513   0.872   0.284   1.722
 1486WAT      O 4514   1.137   0.867   2.361
 1486WAT     H1 4515   1.202   0.887   2.429
 1486WAT     H2 4516   1.173   0.791   2.316
 1487WAT      O 4517   1.264   0.667   2.233
 1487WAT     H1 4518   1.329   0.597   2.244
 1487WAT     H2 4519   1.317   0.745   2.215
 1488WAT      O 4520   1.649   0.695   1.205
 1488WAT     H1 4521   1.626   0.624   1.265
 1488WAT     H2 4522   1.610   0.671   1.122
 1489WAT      O 4523   1.442   0.747   2.553
 1489WAT     H1 4524   1.475   0.806   2.621
 1489WAT     H2 4525   1.350   0.734   2.576
 1490WAT      O 4526   0.227   1.098   1.283
 1490WAT     H1 4527   0.263   1.158   1.217
 1490WAT     H2 4528   0.213   1.153   1.360
 1491WAT      O 4529   1.607   0.487   1.372
 1491WAT     H1 4530   1.578   0.533   1.450
 1491WAT     H2 4531   1.687   0.441   1.398
 1492WAT      O 4532   1.025   0.752   2.870
 1492WAT     H1 4533   0.993   0.680   2.925
 1492WAT     H2 4534   0.957   0.819   2.878
 1493WAT      O 4535   0.829   0.836   1.365
 1493WAT     H1 4536   0.828   0.910   1.303
 1493WAT     H2 4537   0.737   0.812   1.374
 1494WAT      O 4538   0.389   0.359   1.439
 1494WAT     H1 4539   0.328   0.433   1.440
 1494WAT     H2 4540   0.436   0.368   1.357
 1495WAT      O 4541   1.127   0.843   1.231
 1495WAT     H1 4542   1.138   0.822   1.138
 1495WAT     H2 4543   1.038   0.817   1.251
 1496WAT      O 4544   0.992   1.095   1.700
 1496WAT     H1 4545   1.017   1.091   1.608
 1496WAT     H2 4546   0.897   1.082   1.700
 1497WAT      O 4547   0.590   0.355   1.214
 1497WAT     H1 4548   0.667   0.343   1.270
 1497WAT     H2 4549   0.598   0.285   1.149
 1498WAT      O 4550   1.792   0.904   2.026
 1498WAT     H1 4551   1.805   0.986   2.073
 1498WAT     H2 4552   1.879   0.882   1.991
 1499WAT      O 4553   0.540   1.113   1.993
 1499WAT     H1 4554   0.613   1.058   2.020
 1499WAT     H2 4555   0.578   1.199   1.979
 1500WAT      O 4556   0.440   1.031   2.912
 1500WAT     H1 4557   0.520   1.063   2.953
 1500WAT     H2 4558   0.389   0.995   2.984
 1501WAT      O 4559   0.851   1.030   1.175
 1501WAT     H1 4560   0.930   1.059   1.130
 1501WAT     H2 4561   0.799   0.987   1.107
 1502WAT      O 4562   1.324   0.642   2.906
 1502WAT     H1 4563   1.263   0.644   2.832
 1502WAT     H2 4564   1.293   0.569   2.960
 1503WAT      O 4565   1.467   1.015   2.767
 1503WAT     H1 4566   1.562   1.007   2.762
 1503WAT     H2 4567   1.452   1.081   2.835
 1504WAT      O 4568   1.756   0.953   1.317
 1504WAT     H1 4569   1.727   0.912   1.236
 1504WAT     H2 4570   1.736   1.046   1.305
 1505WAT      O 4571   0.902   0.552   1.161
 1505WAT     H1 4572   0.892   0.491   1.234
 1505WAT     H2 4573   0.886   0.500   1.083
 1506WAT      O 4574   0.918   0.421   2.759
 1506WAT     H1 4575   0.841   0.478   2.751
 1506WAT     H2 4576   0.936   0.392   2.670
 1507WAT      O 4577   1.226   0.458   1.222
 1507WAT     H1 4578   1.172   0.503   1.286
 1507WAT     H2 4579   1.289   0.408   1.274
 1508WAT      O 4580   1.632   0.594   2.815
 1508WAT     H1 4581   1.706   0.628   2.765
 1508WAT     H2 4582   1.556   0.611   2.760
 1509WAT      O 4583   0.793   0.354   1.411
 1509WAT     H1 4584   0.835   0.338   1.496
 1509WAT     H2 4585   0.806   0.273   1.362
 1510WAT      O 4586   1.044   0.257   1.136
 1510WAT     H1 4587   1.097   0.185   1.100
 1510WAT     H2 4588   1.109   0.321   1.166
 1511WAT      O 4589   1.499   0.399   2.669
 1511WAT     H1 4590   1.541   0.414   2.753
 1511WAT     H2 4591   1.406   0.412   2.685
 1512WAT      O 4592   0.975   0.394   2.466
 1512WAT     H1 4593   1.017   0.479   2.448
 1512WAT     H2 4594   0.883   0.408   2.443
 1513WAT      O 4595   1.443   0.223   2.462
 1513WAT     H1 4596   1.390   0.275   2.401
 1513WAT     H2 4597   1.477   0.286   2.525
 1514WAT      O 4598   0.760   1.025   2.577
 1514WAT     H1 4599   0.707   1.097   2.545
 1514WAT     H2 4600   0.786   0.977   2.498
 1515WAT      O 4601   1.046   1.148   2.603
 1515WAT     H1 4602   1.039   1.239   2.634
 1515WAT     H2 4603   0.956   1.116   2.600
 1516WAT      O 4604   1.101   1.065   1.365
 1516WAT     H1 4605   1.190   1.099   1.367
 1516WAT     H2 4606   1.104   0.993   1.302
 1517WAT      O 4607   0.465   0.602   1.188
 1517WAT     H1 4608   0.509   0.656   1.254
 1517WAT     H2 4609   0.513   0.520   1.189
 1518WAT      O 4610   0.186   0.881   1.933
 1518WAT     H1 4611   0.219   0.794   1.910
 1518WAT     H2 4612   0.229   0.902   2.016
 1519WAT      O 4613   0.646   0.714   1.699
 1519WAT     H1 4614   0.616   0.702   1.789
 1519WAT     H2 4615   0.635   0.628   1.658
 1520WAT      O 4616   0.235   0.968   2.207
 1520WAT     H1 4617   0.192   0.986   2.290
 1520WAT     H2 4618   0.292   1.043   2.193
 1521WAT      O 4619   1.799   0.918   2.636
 1521WAT     H1 4620   1.739   0.924   2.562
 1521WAT     H2 4621   1.812   0.824   2.649
 1522WAT      O 4622   1.923   0.692   1.170
 1522WAT     H1 4623   1.840   0.699   1.217
 1522WAT     H2 4624   1.941   0.781   1.139
 1523WAT      O 4625   1.868   0.367   1.420
 1523WAT     H1 4626   1.945   0.423   1.431
 1523WAT     H2 4627   1.870   0.310   1.497
 1524WAT      O 4628   1.969   0.452   1.904
 1524WAT     H1 4629   2.006   0.374   1.864
 1524WAT     H2 4630   2.033   0.521   1.887
 1525WAT      O 4631   1.667   0.590   2.446
 1525WAT     H1 4632   1.586   0.633   2.472
 1525WAT     H2 4633   1.708   0.652   2.384
 1526WAT      O 4634   1.874   0.396   1.136
 1526WAT     H1 4635   1.901   0.487   1.123
 1526WAT     H2 4636   1.855   0.389   1.229
 1527WAT      O 4637   0.322   0.257   2.297
 1527WAT     H1 4638   0.359   0.249   2.385
 1527WAT     H2 4639   0.265   0.181   2.287
 1528WAT      O 4640   1.673   1.066   1.798
 1528WAT     H1 4641   1.733   1.033   1.731
 1528WAT     H2 4642   1.699   1.018   1.877
 1529WAT      O 4643   0.464   0.709   2.813
 1529WAT     H1 4644   0.460   0.672   2.901
 1529WAT     H2 4645   0.477   0.803   2.827
 1530WAT      O 4646   0.834   0.864   2.373
 1530WAT     H1 4647   0.810   0.891   2.285
 1530WAT     H2 4648   0.928   0.881   2.379
 1531WAT      O 4649   1.960   1.066   2.453
 1531WAT     H1 4650   1.910   1.106   2.382
 1531WAT     H2 4651   1.899   1.004   2.493
 1532WAT      O 4652   0.448   1.003   2.525
 1532WAT     H1 4653   0.388   0.990   2.599
 1532WAT     H2 4654   0.447   0.920   2.479
 1533WAT      O 4655   1.728   1.131   2.181
 1533WAT     H1 4656   1.682   1.206   2.144
 1533WAT     H2 4657   1.665   1.059   2.175
 1534WAT      O 4658   0.411   0.740   2.420
 1534WAT     H1 4659   0.338   0.678   2.414
 1534WAT     H2 4660   0.417   0.779   2.333
 1535WAT      O 4661   0.771   0.961   2.099
 1535WAT     H1 4662   0.823   0.900   2.046
 1535WAT     H2 4663   0.836   1.012   2.148
 1536WAT      O 4664   1.045   1.050   2.181
 1536WAT     H1 4665   1.074   1.025   2.094
 1536WAT     H2 4666   1.096   0.995   2.241
 1537WAT      O 4667   0.400   0.941   1.486
 1537WAT     H1 4668   0.347   0.979   1.415
 1537WAT     H2 4669   0.392   1.004   1.558
 1538WAT      O 4670   1.052   1.143   2.918
 1538WAT     H1 4671   1.145   1.119   2.923
 1538WAT     H2 4672   1.050   1.225   2.870
 1539WAT      O 4673   1.875   1.097   1.618
 1539WAT     H1 4674   1.893   1.028   1.554
 1539WAT     H2 4675   1.806   1.149   1.579
 1540WAT      O 4676   0.660   1.136   1.373
 1540WAT     H1 4677   0.733   1.107   1.319
 1540WAT     H2 4678   0.686   1.112   1.462
 1541WAT      O 4679   0.576   0.747   1.374
 1541WAT     H1 4680   0.513   0.794   1.429
 1541WAT     H2 4681   0.587   0.663   1.417
 1542WAT      O 4682   1.709   1.065   2.901
 1542WAT     H1 4683   1.788   1.016   2.880
 1542WAT     H2 4684   1.738   1.133   2.961
 1543WAT      O 4685   1.134   0.330   0.177
 1543WAT     H1 4686   1.057   0.282   0.206
 1543WAT     H2 4687   1.200   0.262   0.159
 1544WAT      O 4688   0.536   0.362   0.265
 1544WAT     H1 4689   0.453   0.336   0.305
 1544WAT     H2 4690   0.597   0.369   0.338
 1545WAT      O 4691   0.534   0.765   0.284
 1545WAT     H1 4692   0.564   0.676   0.266
 1545WAT     H2 4693   0.609   0.821   0.261
 1546WAT      O 4694   1.079   0.598   0.178
 1546WAT     H1 4695   1.072   0.504   0.161
 1546WAT     H2 4696   1.155   0.607   0.235
 1547WAT      O 4697   0.732   0.441   0.424
 1547WAT     H1 4698   0.699   0.503   0.488
 1547WAT     H2 4699   0.750   0.493   0.346
 1548WAT      O 4700   0.653   0.637   0.606
 1548WAT     H1 4701   0.715   0.705   0.577
 1548WAT     H2 4702   0.567   0.678   0.596
 1549WAT      O 4703   1.745   0.784   0.397
 1549WAT     H1 4704   1.677   0.851   0.396
 1549WAT     H2 4705   1.799   0.804   0.321
 1550WAT      O 4706   1.499   0.968   0.269
 1550WAT     H1 4707   1.500   0.928   0.182
 1550WAT     H2 4708   1.443   1.046   0.258
 1551WAT      O 4709   1.439   0.459   0.401
 1551WAT     H1 4710   1.480   0.437   0.318
 1551WAT     H2 4711   1.511   0.484   0.458
 1552WAT      O 4712   1.833   0.298   0.410
 1552WAT     H1 4713   1.750   0.305   0.363
 1552WAT     H2 4714   1.893   0.357   0.364
 1553WAT      O 4715   0.790   0.624   0.208
 1553WAT     H1 4716   0.760   0.564   0.140
 1553WAT     H2 4717   0.885   0.628   0.197
 1554WAT      O 4718   1.599   0.982   0.574
 1554WAT     H1 4719   1.551   1.062   0.555
 1554WAT     H2 4720   1.530   0.917   0.589
 1555WAT      O 4721   0.699   0.598   0.873
 1555WAT     H1 4722   0.609   0.621   0.897
 1555WAT     H2 4723   0.701   0.611   0.778
 1556WAT      O 4724   0.582   0.285   0.730
 1556WAT     H1 4725   0.568   0.373   0.767
 1556WAT     H2 4726   0.493   0.251   0.716
 1557WAT      O 4727   0.761   0.880   0.951
 1557WAT     H1 4728   0.759   0.920   0.864
 1557WAT     H2 4729   0.745   0.787   0.935
 1558WAT      O 4730   1.957   0.958   1.081
 1558WAT     H1 4731   2.004   1.006   1.149
 1558WAT     H2 4732   2.019   0.951   1.008
 1559WAT      O 4733   0.177   0.462   0.322
 1559WAT     H1 4734   0.185   0.476   0.228
 1559WAT     H2 4735   0.238   0.392   0.341
 1560WAT      O 4736   1.897   0.677   0.797
 1560WAT     H1 4737   1.910   0.653   0.705
 1560WAT     H2 4738   1.901   0.594   0.844
 1561WAT      O 4739   1.283   1.047   0.654
 1561WAT     H1 4740   1.335   1.038   0.734
 1561WAT     H2 4741   1.199   1.082   0.683
 1562WAT      O 4742   0.182   0.567   0.576
 1562WAT     H1 4743   0.199   0.520   0.494
 1562WAT     H2 4744   0.229   0.516   0.642
 1563WAT      O 4745   0.340   0.504   0.792
 1563WAT     H1 4746   0.301   0.440   0.852
 1563WAT     H2 4747   0.371   0.574   0.849
 1564WAT      O 4748   1.662   0.413   0.211
 1564WAT     H1 4749   1.734   0.463   0.172
 1564WAT     H2 4750   1.642   0.345   0.146
 1565WAT      O 4751   1.201   0.420   0.799
 1565WAT     H1 4752   1.194   0.328   0.774
 1565WAT     H2 4753   1.138   0.430   0.871
 1566WAT      O 4754   0.660   0.223   0.975
 1566WAT     H1 4755   0.630   0.237   0.885
 1566WAT     H2 4756   0.737   0.167   0.966
 1567WAT      O 4757   1.194   0.702   0.774
 1567WAT     H1 4758   1.195   0.609   0.753
 1567WAT     H2 4759   1.123   0.711   0.838
 1568WAT      O 4760   1.815   0.367   0.709
 1568WAT     H1 4761   1.742   0.426   0.689
 1568WAT     H2 4762   1.868   0.366   0.629
 1569WAT      O 4763   1.137   0.867   0.484
 1569WAT     H1 4764   1.202   0.887   0.552
 1569WAT     H2 4765   1.173   0.791   0.439
 1570WAT      O 4766   1.264   0.667   0.356
 1570WAT     H1 4767   1.329   0.597   0.367
 1570WAT     H2 4768   1.317   0.745   0.338
 1571WAT      O 4769   1.442   0.747   0.676
 1571WAT     H1 4770   1.475   0.806   0.744
 1571WAT     H2 4771   1.350   0.734   0.699
 1572WAT      O 4772   1.025   0.752   0.993
 1572WAT     H1 4773   0.993   0.680   1.047
 1572WAT     H2 4774   0.957   0.819   1.000
 1573WAT      O 4775   0.440   1.031   1.034
 1573WAT     H1 4776   0.520   1.063   1.075
 1573WAT     H2 4777   0.389   0.995   1.106
 1574WAT      O 4778   1.324   0.642   1.029
 1574WAT     H1 4779   1.263   0.644   0.955
 1574WAT     H2 4780   1.293   0.569   1.083
 1575WAT      O 4781   1.467   1.015   0.890
 1575WAT     H1 4782   1.562   1.007   0.885
 1575WAT     H2 4783   1.452   1.081   0.957
 1576WAT      O 4784   0.918   0.421   0.882
 1576WAT     H1 4785   0.841   0.478   0.873
 1576WAT     H2 4786   0.936   0.392   0.793
 1577WAT      O 4787   1.632   0.594   0.938
 1577WAT     H1 4788   1.706   0.628   0.887
 1577WAT     H2 4789   1.556   0.611   0.882
 1578WAT      O 4790   1.499   0.399   0.791
 1578WAT     H1 4791   1.541   0.414   0.876
 1578WAT     H2 4792   1.406   0.412   0.807
 1579WAT      O 4793   0.975   0.394   0.588
 1579WAT     H1 4794   1.017   0.479   0.571
 1579WAT     H2 4795   0.883   0.408   0.565
 1580WAT      O 4796   1.443   0.223   0.584
 1580WAT     H1 4797   1.390   0.275   0.524
 1580WAT     H2 4798   1.477   0.286   0.647
 1581WAT      O 4799   0.760   1.025   0.700
 1581WAT     H1 4800   0.707   1.097   0.668
 1581WAT     H2 4801   0.786   0.977   0.621
 1582WAT      O 4802   1.046   1.148   0.726
 1582WAT     H1 4803   1.039   1.239   0.756
 1582WAT     H2 4804   0.956   1.116   0.723
 1583WAT      O 4805   0.235   0.968   0.330
 1583WAT     H1 4806   0.192   0.986   0.413
 1583WAT     H2 4807   0.292   1.043   0.316
 1584WAT      O 4808   1.799   0.918   0.758
 1584WAT     H1 4809   1.739   0.924   0.684
 1584WAT     H2 4810   1.812   0.824   0.771
 1585WAT      O 4811   1.667   0.590   0.568
 1585WAT     H1 4812   1.586   0.633   0.594
 1585WAT     H2 4813   1.708   0.652   0.507
 1586WAT      O 4814   0.322   0.257   0.420
 1586WAT     H1 4815   0.359   0.249   0.508
 1586WAT     H2 4816   0.265   0.181   0.410
 1587WAT      O 4817   0.464   0.709   0.936
 1587WAT     H1 4818   0.460   0.672   1.024
 1587WAT     H2 4819   0.477   0.803   0.950
 1588WAT      O 4820   0.834   0.864   0.496
 1588WAT     H1 4821   0.810   0.891   0.407
 1588WAT     H2 4822   0.928   0.881   0.501
 1589WAT      O 4823   1.960   1.066   0.576
 1589WAT     H1 4824   1.910   1.106   0.504
 1589WAT     H2 4825   1.899   1.004   0.615
 1590WAT      O 4826   0.448   1.003   0.648
 1590WAT     H1 4827   0.388   0.990   0.722
 1590WAT     H2 4828   0.447   0.920   0.601
 1591WAT      O 4829   1.728   1.131   0.304
 1591WAT     H1 4830   1.682   1.206   0.266
 1591WAT     H2 4831   1.665   1.059   0.298
 1592WAT      O 4832   0.411   0.740   0.543
 1592WAT     H1 4833   0.338   0.678   0.536
 1592WAT     H2 4834   0.417   0.779   0.456
 1593WAT      O 4835   0.771   0.961   0.221
 1593WAT     H1 4836   0.823   0.900   0.169
 1593WAT     H2 4837   0.836   1.012   0.270
 1594WAT      O 4838   1.045   1.050   0.304
 1594WAT     H1 4839   1.074   1.025   0.216
 1594WAT     H2 4840   1.096   0.995   0.363
 1595WAT      O 4841   1.052   1.143   1.041
 1595WAT     H1 4842   1.145   1.119   1.045
 1595WAT     H2 4843   1.050   1.225   0.993
 1596WAT      O 4844   1.709   1.065   1.023
 1596WAT     H1 4845   1.788   1.016   1.002
 1596WAT     H2 4846   1.738   1.133   1.084
   3.95119   4.21178   4.04695
