LIG
  4816
  22.3863447  21.1546138  17.9166499  21.1263447  20.3286138  17.7096499
  23.4663447  20.4546138  18.6836499  21.3533447  18.7956138  17.8046499
  23.7323447  18.9886138  18.2206499  22.6933447  18.5066138  17.3026499
  21.1953447  18.2726138  19.2206499  23.7063447  18.0496138  19.4346499
  22.8613447  18.0776138  16.0026499  19.9593447  18.1456138  19.8376499
  22.3043447  17.9476138  19.9976499  21.9043447  17.8336138  15.2676499
  24.2743447  17.8766138  15.5196499  19.8573447  17.7656138  21.1206499
  22.2073447  17.5396138  21.2756499  20.9753447  17.4666138  21.8086499
  22.9503447  22.0376138  16.5706499  21.9193447  22.0036138  15.5586499
  24.2923447  21.5806138  16.2736499  23.0903447  23.6726138  17.1936499
  23.5003447  24.6966138  16.3616499  22.8043447  23.9486138  18.5296499
  23.6223447  25.9796138  16.7816499  22.9293447  25.2586138  18.9826499
  23.3363447  26.2296138  18.0796499  20.8383447  17.0196138  23.2426499
  19.8403447  15.9436138  23.6116499  21.3083447  15.6436138  23.6606499
  18.7953447  18.4646138  19.1156499  18.9973447  19.2226138  18.4666499
  18.1443447  17.3676138  18.4026499  16.6533447  17.5416138  18.4236499
  15.7823447  16.6596138  19.2846499  15.7513447  16.5146138  17.7876499
  20.3933447  20.6186138  18.4776499  20.7743447  20.5366138  16.6886499
  24.3983447  21.0276138  18.5686499  23.1273447  20.3996138  19.7286499
  20.5883447  18.2866138  17.1996499  24.7093447  18.9886138  17.7156499
  24.0453447  17.0496138  19.1266499  24.3723447  18.4536138  20.2116499
  24.9473447  17.7806138  16.3846499  24.3273447  16.9616138  14.9106499
  24.5793447  18.7406138  14.9106499  23.7383447  24.4606138  15.3136499
  22.4853447  23.1476138  19.2126499  22.7113447  25.5166138  20.0296499
  23.4333447  27.2646138  18.4416499  21.0393447  18.0476138  23.5776499
  19.2653447  16.0256138  24.5456499  18.9713447  15.4886138  23.1146499
  21.7563447  14.9666138  22.9176499  21.9963447  15.2586138  24.4276499
  18.4933447  17.3546138  17.3596499  18.3993447  16.4186138  18.8986499
  16.7963447  18.6276138  18.3176499  16.2383447  15.8736138  19.9036499
  15.0263447  16.8366138  20.0636499  14.8643447  16.8366138  17.2226499
  15.8963447  15.6806138  17.0846499  32.0217660  39.0742130  27.5084830
  31.9411710  38.1596740  27.2376540  31.6082080  39.5709200  26.8024540
  22.5793480  36.1242850  24.0512250  21.6910180  36.4658820  23.9492130
  22.8634670  35.9243170  23.1593080  20.5426490  38.7248500  29.9351950
  21.1142600  37.9570700  29.9355590  20.5428030  39.0237260  29.0258560
  21.7851360  34.1332860  31.7220880  21.6054200  33.2358610  32.0023640
  21.3831440  34.6804730  32.3967830  30.6249860  36.3348720  29.6233190
  31.0014680  35.4620600  29.5106860  30.5269370  36.6707420  28.7323630
  24.7554870  34.7074350  25.0850630  24.8621620  35.6078080  25.3919390
  23.8447230  34.6592320  24.7945280  34.4073980  33.8299160  26.5561530
  35.2283600  33.3395730  26.5987010  34.4408060  34.4196820  27.3093370
  22.4038030  36.6293360  30.3303220  23.0848140  36.8931730  30.9490620
  22.0886080  35.7894230  30.6641230  26.5962600  37.6760720  29.4175810
  27.1040820  38.1741690  30.0580830  27.1275840  36.8995920  29.2415170
  24.8798700  32.3159280  33.6839230  24.8817140  32.8331670  32.8785130
  24.0503010  31.8389460  33.6609160  34.6435460  35.7699540  29.3289070
  33.9391030  36.0584430  29.9092180  35.0047620  36.5799650  28.9688630
  24.5614030  34.0269240  31.6909680  24.9030840  34.8711290  31.3963550
  23.6229840  34.1752980  31.8075020  37.7122380  35.2154330  29.7198280
  36.7647290  35.2493310  29.8513710  38.0372370  36.0293280  30.1047640
  28.2441920  31.5151510  28.0154270  28.5516900  30.9598400  27.2989770
  27.3142620  31.6495970  27.8327260  30.6322680  39.5800340  24.7514390
  29.7051960  39.5137720  24.9802860  30.7847500  40.5180470  24.6369630
  30.6191760  35.8517340  21.7481550  29.6795430  36.0131300  21.8334010
  30.9375020  36.5703020  21.2017540  34.1046530  37.3205180  32.6715450
  33.6917710  38.1458890  32.9255440  33.3722480  36.7350220  32.4791810
  26.2379320  40.1065080  27.5334120  25.8336320  39.3942330  27.0380020
  26.3242440  39.7618320  28.4222160  24.9507940  36.8808290  31.3133160
  25.5022530  36.9903630  30.5386410  25.4651450  37.2545890  32.0288390
  36.4201810  31.6350260  20.5763430  36.1074470  31.7277090  21.4762500
  37.1814280  32.2131290  20.5260860  22.9383950  39.0010060  25.0340770
  22.8181550  39.7272150  24.4222040  22.6284840  38.2312970  24.5568680
  37.6303100  36.3721760  36.5537570  37.0147370  36.8801430  36.0253030
  37.3099520  35.4720090  36.4963510  25.4047610  32.3445130  28.4164440
  24.9615760  33.1254670  28.0848960  25.9632600  32.6675020  29.1235380
  29.6917420  35.2113650  34.0199760  29.2296790  35.4196670  34.8319700
  29.2895530  34.3973000  33.7170430  34.6921930  36.4322600  35.1496420
  33.8415520  36.1328350  35.4705490  34.5323720  36.6764610  34.2380240
  31.7871640  37.9324350  37.2495210  32.1125050  37.0988100  36.9097440
  32.5751970  38.4552870  37.3973540  28.5206430  31.9655830  23.2970270
  27.8960610  31.9615700  24.0223580  28.4336550  31.0986790  22.9006240
  27.4423510  32.8892460  30.2754040  27.7395840  33.7955290  30.1946060
  27.9909070  32.4011240  29.6613610  25.1961830  37.4678700  26.1445690
  24.9702750  37.2515870  27.0492310  24.4154360  37.9007160  25.7991660
  32.4259590  37.4742070  24.7436340  31.8268480  38.1977870  24.5599960
  32.9739200  37.4118850  23.9612790  27.6361040  38.3664280  36.8105960
  27.5404640  37.4259010  36.6606360  28.4793020  38.5879350  36.4154030
  31.0324460  36.1105610  26.7739620  31.4254030  36.4277810  25.9608310
  31.3941310  35.2317490  26.8884140  22.7671580  34.7777950  34.9639740
  22.3734970  35.6253160  35.1712520  22.0789980  34.1404320  35.1548380
  20.0688630  32.7006410  28.9969820  19.7801680  33.2709270  29.7094800
  20.8134390  32.2210860  29.3601050  20.2558860  36.6426530  20.2072540
  20.1733530  37.5857290  20.3487530  19.9041920  36.5001440  19.3284890
  31.6179600  38.7011360  30.8690400  30.8860720  39.2098170  31.2180500
  31.2203940  37.8841340  30.5679180  28.0556990  35.3765560  29.2742890
  28.0593050  34.9355510  28.4247430  28.9508110  35.6982890  29.3814710
  23.9059370  35.2592050  28.2337100  23.5659420  35.7367280  28.9904150
  23.1436690  34.8057170  27.8738200  28.1177140  36.3777640  22.2649650
  28.2389960  36.3364120  23.2135470  27.7325650  37.2401790  22.1096380
  32.0805510  34.1545040  30.2813340  32.0978250  34.6053690  31.1255190
  31.8321090  33.2550680  30.4946780  27.1298640  38.6878780  21.6632950
  26.5615540  38.2397030  21.0368860  27.8387640  39.0471560  21.1298100
  35.5076260  31.5677220  36.1199720  35.8322030  30.8366880  36.6457700
  35.5432770  31.2490860  35.2180710  28.3564960  39.4367340  31.0208300
  28.7235090  38.9625910  31.7669640  28.1670020  40.3108910  31.3616640
  21.2205450  34.1811030  27.1501770  20.9352370  33.8166700  27.9880390
  21.1584310  33.4491490  26.5364910  26.1464330  38.4775980  33.3392510
  25.8421400  39.3567960  33.5642870  27.1010790  38.5375770  33.3749950
  30.8944040  33.0740290  23.8715140  30.0808650  32.5753460  23.7960450
  30.7005990  33.9138540  23.4551490  33.6092430  37.4459940  22.1677300
  34.4972050  37.7577170  21.9928640  33.5797520  36.5732190  21.7757880
  22.2028060  39.3178720  34.4863870  21.8443000  39.9832570  35.0737210
  21.9082620  38.4862270  34.8576490  25.4041180  39.7762960  37.3703420
  25.1041320  39.9220140  36.4731240  26.1752420  39.2168250  37.2776810
  35.8806700  38.7571780  21.6357160  35.7970420  39.1886000  20.7853600
  36.6000890  39.2170130  22.0683980  20.7136110  39.3169980  21.1098470
  21.5830960  39.5994780  21.3934390  20.2226430  40.1305850  20.9947280
  23.7782700  31.0480840  25.7029270  23.6497330  31.0398740  26.6514190
  22.9544720  31.3863930  25.3520280  20.7776630  32.8071960  35.1635970
  20.0635150  33.0068880  35.7688580  21.1971670  32.0311530  35.5350770
  32.2715410  35.2994270  32.9137420  32.6396230  34.4789480  33.2416990
  31.4113610  35.3596160  33.3293070  35.6377440  34.2551210  23.7224980
  35.0090600  34.3596880  23.0083210  35.1429360  34.4747990  24.5118860
  27.6061470  36.5337160  25.1382860  26.8977620  37.0023500  25.5796470
  27.8905950  35.8759170  25.7728050  29.2317400  37.9533860  33.1375390
  29.7302650  38.4279680  33.8027240  29.3740350  37.0297380  33.3445420
  31.6376900  33.2587820  26.5778650  31.5144680  33.2773950  25.6288160
  32.5861460  33.3066760  26.6977050  25.8096490  34.8422240  22.5133570
  26.6587020  35.2792390  22.4473760  25.4427760  35.1542500  23.3405630
  36.4384260  34.1701820  33.9803780  35.9357860  34.9107220  34.3197590
  37.2540920  34.5585820  33.6640570  34.7306270  39.4135000  27.4265140
  33.7896410  39.4285230  27.6012830  35.0450340  38.6270960  27.8725440
  23.4034670  38.5279670  21.6701990  23.4838260  37.5807180  21.7819390
  24.2954420  38.8586550  21.7762650  20.9305470  40.3494590  36.9058160
  21.4344490  39.7701870  37.4774390  20.1912890  40.6334820  37.4434530
  24.9034360  37.0716280  35.7682720  24.3730820  36.5807230  35.1406060
  25.5722430  37.5000480  35.2340650  34.2734590  38.8781900  37.5363060
  34.8555360  38.1234220  37.4483540  34.4496360  39.4089340  36.7594540
  25.3906660  34.0378650  35.8480010  25.2963530  33.4199400  35.1230880
  24.8104050  34.7644940  35.6209920  28.1568100  32.5951890  32.8807400
  27.7085400  32.6176150  32.0352950  27.5233300  32.1970910  33.4777700
  30.8991550  39.2222400  34.8857680  31.0187760  38.6263540  35.6252520
  31.7585550  39.2592090  34.4658980  33.2379450  39.7759590  33.4620190
  32.7114670  40.3002210  32.8585330  33.5810790  40.4086980  34.0929920
  25.6365840  37.1652960  19.9069900  25.4354900  36.3020320  20.2683240
  25.4657890  37.0786320  18.9691500  27.6660320  35.7643750  36.1433500
  28.2560010  35.4559600  36.8311320  26.8480560  35.2923500  36.2993400
  32.4853750  35.3809560  36.3766520  31.7969270  34.7191100  36.3116510
  33.2059770  34.9347830  36.8214980  33.1154150  31.9761190  22.4356780
  33.3956440  31.1329090  22.7916200  32.3419880  32.2084300  22.9495530
  24.4348640  34.2653580  19.8947780  24.7374540  34.2721010  18.9866930
  25.1743230  33.9151440  20.3915440  27.6533570  33.2088200  20.8803980
  27.3055570  32.5312190  20.3006430  27.8546340  32.7477710  21.6947370
  20.9939210  39.7375850  27.2768350  20.3388050  39.4687490  26.6328050
  21.8317160  39.6280330  26.8270330  33.9429650  34.5317140  21.4986840
  34.3614530  34.3448120  20.6583500  33.6365710  33.6796190  21.8089770
  37.4419380  39.4441280  25.1962640  37.0662980  38.6769210  24.7643930
  36.7122500  39.8263980  25.6837570  22.0315140  40.1228420  31.8171690
  22.3988180  40.0355820  32.6967710  21.4625960  39.3594970  31.7178550
  36.8319000  38.5912800  34.8302160  36.6005090  38.3625550  33.9300110
  37.0923550  39.5112350  34.7847050  21.5831140  37.0337510  35.7230110
  20.6887190  37.0004270  36.0623820  22.1228690  37.2324300  36.4881360
  35.2707070  33.8169230  37.6081860  36.1477250  33.8252630  37.9915860
  35.2827910  33.0800070  36.9974210  20.2077290  36.9474780  23.2193680
  19.3041370  37.2104980  23.0445340  20.6917910  37.2185950  22.4393640
  36.7170340  37.6698770  28.4969880  37.2407820  37.1761420  27.8660050
  37.3029760  37.8049130  29.2417450  36.8960060  37.7538640  32.0189430
  35.9462770  37.7202180  32.1334420  37.0773070  38.6638750  31.7839200
  22.7504500  36.0040320  21.1288060  23.4596200  35.5823540  20.6435340
  22.0344440  36.0715550  20.4971410  22.3978660  32.0579650  20.1690710
  23.1206790  32.5988590  20.4871930  22.6703180  31.7843070  19.2932250
  36.2070310  36.9272120  24.4362290  36.7029430  36.6942990  25.2211170
  36.0086380  36.0883960  24.0199930  22.0870850  31.3085840  30.0713330
  22.7347040  30.7583220  29.6308490  22.5072690  31.5628990  30.8929140
  37.6357470  35.5633070  26.9699970  37.5256750  35.4089110  27.9082240
  38.3965060  35.0354010  26.7275380  35.9823190  31.5027200  33.4282970
  36.6195410  32.1161340  33.7942160  36.1298080  31.5387860  32.4832200
  21.8402850  31.4641510  32.8138650  21.4917670  31.9205330  33.5796830
  21.5090550  30.5698640  32.8961080  29.3527670  32.6553390  36.3358070
  29.2916560  33.2475220  37.0853480  30.2928050  32.5479350  36.1908330
  31.9902230  32.3123450  35.9750360  32.6042640  32.6302740  35.3131440
  32.5351790  31.8272040  36.5946220  22.5123490  30.9917710  36.0889420
  23.0606480  30.8105760  35.3255530  22.5778800  30.2011820  36.6245730
  32.7310270  30.8755590  32.3019650  31.8570110  31.2090700  32.0992580
  32.6221020  30.4028770  33.1271520  33.6382250  33.0826460  33.6861370
  33.3095610  32.2678220  33.3063100  34.5864550  33.0396270  33.5627060
  30.4785090  31.7925430  31.2412560  29.6956880  32.2670930  31.5209320
  30.1848020  30.8880260  31.1325740  35.0306160  32.4948530  29.2861650
  35.4714250  32.4393630  28.4383250  34.7613750  33.4106540  29.3571830
  36.8944730  32.1263770  27.2970470  36.8333130  31.1824990  27.1501490
  37.6736760  32.2343860  27.8423930  21.8225500  32.0972910  23.7626280
  22.5804860  32.2101790  23.1890310  21.3602670  32.9342110  23.7169710
  28.3639310  34.2112180  26.7528590  27.5513820  33.8369070  26.4124470
  28.8680950  33.4557260  27.0549780  32.8664290  30.8754630  27.9911660
  33.4693660  31.4474840  28.4660180  32.1257280  31.4394070  27.7685560
  36.0098890  31.2776190  23.2651940  36.2049520  32.1759640  23.5319370
  35.2228760  31.0463270  23.7584890  24.1950650  32.6236960  22.3028250
  24.7243410  31.8366760  22.1736200  24.8278970  33.3028150  22.5363780
  26.3888490  32.3612100  25.3573640  25.7591230  31.6599410  25.5243770
  25.8493630  33.1216230  25.1406800  26.5144050  31.6396080  37.7926130
  26.2328320  32.1429680  37.0286950  26.8963750  30.8417830  37.4268260
  32.0217660  39.0742130   8.7341340  31.9411710  38.1596740   8.4633050
  31.6082080  39.5709200   8.0281050  22.5793480  36.1242850   5.2768760
  21.6910180  36.4658820   5.1748640  22.8634670  35.9243170   4.3849590
  20.5426490  38.7248500  11.1608460  21.1142600  37.9570700  11.1612100
  20.5428030  39.0237260  10.2515070  21.7851360  34.1332860  12.9477390
  21.6054200  33.2358610  13.2280150  21.3831440  34.6804730  13.6224340
  30.6249860  36.3348720  10.8489700  31.0014680  35.4620600  10.7363370
  30.5269370  36.6707420   9.9580140  24.7554870  34.7074350   6.3107140
  24.8621620  35.6078080   6.6175900  23.8447230  34.6592320   6.0201790
  34.4073980  33.8299160   7.7818040  35.2283600  33.3395730   7.8243520
  34.4408060  34.4196820   8.5349880  22.4038030  36.6293360  11.5559730
  23.0848140  36.8931730  12.1747130  22.0886080  35.7894230  11.8897740
  26.5962600  37.6760720  10.6432320  27.1040820  38.1741690  11.2837340
  27.1275840  36.8995920  10.4671680  24.8798700  32.3159280  14.9095740
  24.8817140  32.8331670  14.1041640  24.0503010  31.8389460  14.8865670
  34.6435460  35.7699540  10.5545580  33.9391030  36.0584430  11.1348690
  35.0047620  36.5799650  10.1945140  24.5614030  34.0269240  12.9166190
  24.9030840  34.8711290  12.6220060  23.6229840  34.1752980  13.0331530
  37.7122380  35.2154330  10.9454790  36.7647290  35.2493310  11.0770220
  38.0372370  36.0293280  11.3304150  28.2441920  31.5151510   9.2410780
  28.5516900  30.9598400   8.5246280  27.3142620  31.6495970   9.0583770
  30.6322680  39.5800340   5.9770900  29.7051960  39.5137720   6.2059370
  30.7847500  40.5180470   5.8626140  30.6191760  35.8517340   2.9738060
  29.6795430  36.0131300   3.0590520  30.9375020  36.5703020   2.4274050
  34.1046530  37.3205180  13.8971960  33.6917710  38.1458890  14.1511950
  33.3722480  36.7350220  13.7048320  26.2379320  40.1065080   8.7590630
  25.8336320  39.3942330   8.2636530  26.3242440  39.7618320   9.6478670
  24.9507940  36.8808290  12.5389670  25.5022530  36.9903630  11.7642920
  25.4651450  37.2545890  13.2544900  36.4201810  31.6350260   1.8019940
  36.1074470  31.7277090   2.7019010  37.1814280  32.2131290   1.7517370
  22.9383950  39.0010060   6.2597280  22.8181550  39.7272150   5.6478550
  22.6284840  38.2312970   5.7825190  37.6303100  36.3721760  17.7794080
  37.0147370  36.8801430  17.2509540  37.3099520  35.4720090  17.7220020
  25.4047610  32.3445130   9.6420950  24.9615760  33.1254670   9.3105470
  25.9632600  32.6675020  10.3491890  29.6917420  35.2113650  15.2456270
  29.2296790  35.4196670  16.0576210  29.2895530  34.3973000  14.9426940
  34.6921930  36.4322600  16.3752930  33.8415520  36.1328350  16.6962000
  34.5323720  36.6764610  15.4636750  31.7871640  37.9324350  18.4751720
  32.1125050  37.0988100  18.1353950  32.5751970  38.4552870  18.6230050
  28.5206430  31.9655830   4.5226780  27.8960610  31.9615700   5.2480090
  28.4336550  31.0986790   4.1262750  27.4423510  32.8892460  11.5010550
  27.7395840  33.7955290  11.4202570  27.9909070  32.4011240  10.8870120
  25.1961830  37.4678700   7.3702200  24.9702750  37.2515870   8.2748820
  24.4154360  37.9007160   7.0248170  32.4259590  37.4742070   5.9692850
  31.8268480  38.1977870   5.7856470  32.9739200  37.4118850   5.1869300
  27.6361040  38.3664280  18.0362470  27.5404640  37.4259010  17.8862870
  28.4793020  38.5879350  17.6410540  31.0324460  36.1105610   7.9996130
  31.4254030  36.4277810   7.1864820  31.3941310  35.2317490   8.1140650
  22.7671580  34.7777950  16.1896250  22.3734970  35.6253160  16.3969030
  22.0789980  34.1404320  16.3804890  29.3416630  34.8612920  19.2592990
  28.6514950  34.6685120  19.8939080  30.0848930  35.1447560  19.7917290
  20.0688630  32.7006410  10.2226330  19.7801680  33.2709270  10.9351310
  20.8134390  32.2210860  10.5857560  31.6179600  38.7011360  12.0946910
  30.8860720  39.2098170  12.4437010  31.2203940  37.8841340  11.7935690
  28.0556990  35.3765560  10.4999400  28.0593050  34.9355510   9.6503940
  28.9508110  35.6982890  10.6071220  23.9059370  35.2592050   9.4593610
  23.5659420  35.7367280  10.2160660  23.1436690  34.8057170   9.0994710
  28.1177140  36.3777640   3.4906160  28.2389960  36.3364120   4.4391980
  27.7325650  37.2401790   3.3352890  32.0805510  34.1545040  11.5069850
  32.0978250  34.6053690  12.3511700  31.8321090  33.2550680  11.7203290
  27.1298640  38.6878780   2.8889460  26.5615540  38.2397030   2.2625370
  27.8387640  39.0471560   2.3554610  35.5076260  31.5677220  17.3456230
  35.8322030  30.8366880  17.8714210  35.5432770  31.2490860  16.4437220
  28.3564960  39.4367340  12.2464810  28.7235090  38.9625910  12.9926150
  28.1670020  40.3108910  12.5873150  21.2205450  34.1811030   8.3758280
  20.9352370  33.8166700   9.2136900  21.1584310  33.4491490   7.7621420
  26.1464330  38.4775980  14.5649020  25.8421400  39.3567960  14.7899380
  27.1010790  38.5375770  14.6006460  30.8944040  33.0740290   5.0971650
  30.0808650  32.5753460   5.0216960  30.7005990  33.9138540   4.6808000
  33.6092430  37.4459940   3.3933810  34.4972050  37.7577170   3.2185150
  33.5797520  36.5732190   3.0014390  22.2028060  39.3178720  15.7120380
  21.8443000  39.9832570  16.2993720  21.9082620  38.4862270  16.0833000
  25.4041180  39.7762960  18.5959930  25.1041320  39.9220140  17.6987750
  26.1752420  39.2168250  18.5033320  35.8806700  38.7571780   2.8613670
  35.7970420  39.1886000   2.0110110  36.6000890  39.2170130   3.2940490
  20.7136110  39.3169980   2.3354980  21.5830960  39.5994780   2.6190900
  20.2226430  40.1305850   2.2203790  23.7782700  31.0480840   6.9285780
  23.6497330  31.0398740   7.8770700  22.9544720  31.3863930   6.5776790
  20.7776630  32.8071960  16.3892480  20.0635150  33.0068880  16.9945090
  21.1971670  32.0311530  16.7607280  32.2715410  35.2994270  14.1393930
  32.6396230  34.4789480  14.4673500  31.4113610  35.3596160  14.5549580
  35.6377440  34.2551210   4.9481490  35.0090600  34.3596880   4.2339720
  35.1429360  34.4747990   5.7375370  27.6061470  36.5337160   6.3639370
  26.8977620  37.0023500   6.8052980  27.8905950  35.8759170   6.9984560
  29.2317400  37.9533860  14.3631900  29.7302650  38.4279680  15.0283750
  29.3740350  37.0297380  14.5701930  31.6376900  33.2587820   7.8035160
  31.5144680  33.2773950   6.8544670  32.5861460  33.3066760   7.9233560
  25.8096490  34.8422240   3.7390080  26.6587020  35.2792390   3.6730270
  25.4427760  35.1542500   4.5662140  36.4384260  34.1701820  15.2060290
  35.9357860  34.9107220  15.5454100  37.2540920  34.5585820  14.8897080
  34.7306270  39.4135000   8.6521650  33.7896410  39.4285230   8.8269340
  35.0450340  38.6270960   9.0981950  23.4034670  38.5279670   2.8958500
  23.4838260  37.5807180   3.0075900  24.2954420  38.8586550   3.0019160
  20.9305470  40.3494590  18.1314670  21.4344490  39.7701870  18.7030900
  20.1912890  40.6334820  18.6691040  22.9628550  38.4924180  19.0264740
  23.0033890  38.1938050  19.9349970  23.8174050  38.8931790  18.8672260
  24.9034360  37.0716280  16.9939230  24.3730820  36.5807230  16.3662570
  25.5722430  37.5000480  16.4597160  34.2734590  38.8781900  18.7619570
  34.8555360  38.1234220  18.6740050  34.4496360  39.4089340  17.9851050
  25.3906660  34.0378650  17.0736520  25.2963530  33.4199400  16.3487390
  24.8104050  34.7644940  16.8466430  28.1568100  32.5951890  14.1063910
  27.7085400  32.6176150  13.2609460  27.5233300  32.1970910  14.7034210
  30.8991550  39.2222400  16.1114190  31.0187760  38.6263540  16.8509030
  31.7585550  39.2592090  15.6915490  33.2379450  39.7759590  14.6876700
  32.7114670  40.3002210  14.0841840  33.5810790  40.4086980  15.3186430
  27.6660320  35.7643750  17.3690010  28.2560010  35.4559600  18.0567830
  26.8480560  35.2923500  17.5249910  32.4853750  35.3809560  17.6023030
  31.7969270  34.7191100  17.5373020  33.2059770  34.9347830  18.0471490
  33.1154150  31.9761190   3.6613290  33.3956440  31.1329090   4.0172710
  32.3419880  32.2084300   4.1752040  27.6533570  33.2088200   2.1060490
  27.3055570  32.5312190   1.5262940  27.8546340  32.7477710   2.9203880
  20.9939210  39.7375850   8.5024860  20.3388050  39.4687490   7.8584560
  21.8317160  39.6280330   8.0526840  33.9429650  34.5317140   2.7243350
  34.3614530  34.3448120   1.8840010  33.6365710  33.6796190   3.0346280
  37.4419380  39.4441280   6.4219150  37.0662980  38.6769210   5.9900440
  36.7122500  39.8263980   6.9094080  22.0315140  40.1228420  13.0428200
  22.3988180  40.0355820  13.9224220  21.4625960  39.3594970  12.9435060
  36.8319000  38.5912800  16.0558670  36.6005090  38.3625550  15.1556620
  37.0923550  39.5112350  16.0103560  21.5831140  37.0337510  16.9486620
  20.6887190  37.0004270  17.2880330  22.1228690  37.2324300  17.7137870
  35.2707070  33.8169230  18.8338370  36.1477250  33.8252630  19.2172370
  35.2827910  33.0800070  18.2230720  20.2077290  36.9474780   4.4450190
  19.3041370  37.2104980   4.2701850  20.6917910  37.2185950   3.6650150
  36.7170340  37.6698770   9.7226390  37.2407820  37.1761420   9.0916560
  37.3029760  37.8049130  10.4673960  36.8960060  37.7538640  13.2445940
  35.9462770  37.7202180  13.3590930  37.0773070  38.6638750  13.0095710
  22.7504500  36.0040320   2.3544570  23.4596200  35.5823540   1.8691850
  22.0344440  36.0715550   1.7227920  36.2070310  36.9272120   5.6618800
  36.7029430  36.6942990   6.4467680  36.0086380  36.0883960   5.2456440
  22.0870850  31.3085840  11.2969840  22.7347040  30.7583220  10.8565000
  22.5072690  31.5628990  12.1185650  37.6357470  35.5633070   8.1956480
  37.5256750  35.4089110   9.1338750  38.3965060  35.0354010   7.9531890
  35.9823190  31.5027200  14.6539480  36.6195410  32.1161340  15.0198670
  36.1298080  31.5387860  13.7088710  21.8402850  31.4641510  14.0395160
  21.4917670  31.9205330  14.8053340  21.5090550  30.5698640  14.1217590
  29.3527670  32.6553390  17.5614580  29.2916560  33.2475220  18.3109990
  30.2928050  32.5479350  17.4164840  31.9902230  32.3123450  17.2006870
  32.6042640  32.6302740  16.5387950  32.5351790  31.8272040  17.8202730
  22.5123490  30.9917710  17.3145930  23.0606480  30.8105760  16.5512040
  22.5778800  30.2011820  17.8502240  32.7310270  30.8755590  13.5276160
  31.8570110  31.2090700  13.3249090  32.6221020  30.4028770  14.3528030
  33.6382250  33.0826460  14.9117880  33.3095610  32.2678220  14.5319610
  34.5864550  33.0396270  14.7883570  30.4785090  31.7925430  12.4669070
  29.6956880  32.2670930  12.7465830  30.1848020  30.8880260  12.3582250
  35.0306160  32.4948530  10.5118160  35.4714250  32.4393630   9.6639760
  34.7613750  33.4106540  10.5828340  36.8944730  32.1263770   8.5226980
  36.8333130  31.1824990   8.3758000  37.6736760  32.2343860   9.0680440
  21.8225500  32.0972910   4.9882790  22.5804860  32.2101790   4.4146820
  21.3602670  32.9342110   4.9426220  28.3639310  34.2112180   7.9785100
  27.5513820  33.8369070   7.6380980  28.8680950  33.4557260   8.2806290
  32.8664290  30.8754630   9.2168170  33.4693660  31.4474840   9.6916690
  32.1257280  31.4394070   8.9942070  36.0098890  31.2776190   4.4908450
  36.2049520  32.1759640   4.7575880  35.2228760  31.0463270   4.9841400
  24.1950650  32.6236960   3.5284760  24.7243410  31.8366760   3.3992710
  24.8278970  33.3028150   3.7620290  26.3888490  32.3612100   6.5830150
  25.7591230  31.6599410   6.7500280  25.8493630  33.1216230   6.3663310
  26.5144050  31.6396080  19.0182640  26.2328320  32.1429680  18.2543460
  26.8963750  30.8417830  18.6524770  33.1159510  31.0549660  19.5963110
  33.0024960  31.3744270  20.4914630  33.9329250  31.4562170  19.3000390
  32.0217660  20.2998640  27.5084830  31.9411710  19.3853250  27.2376540
  31.6082080  20.7965710  26.8024540  30.1535700  22.0777660  29.3894100
  29.3777800  21.5978100  29.6792670  30.8048630  21.3983310  29.2150260
  24.1701530  22.3897470  30.2669860  23.3386410  22.1346180  30.6666370
  24.7782510  22.4608240  31.0027780  34.1743130  26.4837850  28.1693230
  33.7124660  25.7125090  28.4980400  34.9868680  26.5103920  28.6745680
  24.1502790  26.4237560  30.4627880  24.4530830  25.5335300  30.2838100
  24.8946380  26.9807780  30.2350130  20.5426490  19.9505010  29.9351950
  21.1142600  19.1827210  29.9355590  20.5428030  20.2493770  29.0258560
  30.4006440  28.7695860  27.7897220  29.7817880  29.2253360  27.2191660
  31.2558220  28.9247320  27.3886920  29.5944690  24.7534850  29.3964260
  29.5252970  23.8124790  29.2353390  30.3564550  24.8436260  29.9686830
  21.7851360  15.3589370  31.7220880  21.6054200  14.4615120  32.0023640
  21.3831440  15.9061240  32.3967830  30.6249860  17.5605230  29.6233190
  31.0014680  16.6877110  29.5106860  30.5269370  17.8963930  28.7323630
  34.4073980  15.0555670  26.5561530  35.2283600  14.5652240  26.5987010
  34.4408060  15.6453330  27.3093370  22.4038030  17.8549870  30.3303220
  23.0848140  18.1188240  30.9490620  22.0886080  17.0150740  30.6641230
  26.5962600  18.9017230  29.4175810  27.1040820  19.3998200  30.0580830
  27.1275840  18.1252430  29.2415170  24.8798700  13.5415790  33.6839230
  24.8817140  14.0588180  32.8785130  24.0503010  13.0645970  33.6609160
  31.2669790  23.6535100  25.1829130  30.6487060  24.1184550  24.6191850
  31.7793040  24.3462580  25.5998640  26.1301550  23.1810970  31.8612730
  25.7970930  23.8079890  32.5033800  26.3068230  23.7072850  31.0814400
  34.6435460  16.9956050  29.3289070  33.9391030  17.2840940  29.9092180
  35.0047620  17.8056160  28.9688630  24.5614030  15.2525750  31.6909680
  24.9030840  16.0967800  31.3963550  23.6229840  15.4009490  31.8075020
  25.3420650  25.1491770  33.6761910  25.9594650  25.8242850  33.3946360
  24.4813770  25.5579750  33.5849410  20.6352990  24.3391630  22.5568760
  20.2580970  24.8278730  21.8253660  20.8926060  25.0116910  23.1875290
  36.2598240  26.6131180  31.5916550  35.5761760  27.2830290  31.5833220
  36.7992530  26.8111830  30.8261410  37.7122380  16.4410840  29.7198280
  36.7647290  16.4749820  29.8513710  38.0372370  17.2549790  30.1047640
  28.2441920  12.7408020  28.0154270  28.5516900  12.1854910  27.2989770
  27.3142620  12.8752480  27.8327260  33.7956980  28.4575310  30.3061730
  33.8084140  28.0537600  29.4383990  33.2432200  29.2322600  30.2023160
  35.0902400  25.1791530  25.3951900  34.9798730  24.2365860  25.5201320
  35.0870650  25.5407170  26.2814660  33.1942420  23.3605150  31.6344340
  33.6111210  23.1465260  30.7997800  33.9182240  23.6177940  32.2052960
  30.6322680  20.8056850  24.7514390  29.7051960  20.7394230  24.9802860
  30.7847500  21.7436980  24.6369630  30.6191760  17.0773850  21.7481550
  29.6795430  17.2387810  21.8334010  30.9375020  17.7959530  21.2017540
  37.1404520  21.7592370  31.7260580  36.3123150  21.8285460  31.2510710
  37.7355000  22.3446680  31.2576410  34.6619970  22.3677150  25.2549640
  34.0432390  22.0296700  24.6075940  34.6444420  21.7236910  25.9628830
  34.1046530  18.5461690  32.6715450  33.6917710  19.3715400  32.9255440
  33.3722480  17.9606730  32.4791810  26.2379320  21.3321590  27.5334120
  25.8336320  20.6198840  27.0380020  26.3242440  20.9874830  28.4222160
  26.7061020  25.0189150  29.6973330  26.4089310  24.4134620  29.0181110
  27.6560840  25.0566460  29.5862690  24.9507940  18.1064800  31.3133160
  25.5022530  18.2160140  30.5386410  25.4651450  18.4802400  32.0288390
  34.7946630  28.5921020  33.3596430  34.3177190  29.3993210  33.1669040
  34.1108420  27.9399350  33.5122640  25.7979450  24.7570840  36.3481130
  24.9007980  24.9810810  36.5954530  25.8232320  24.8805780  35.3992530
  32.8384670  21.6063960  22.2622390  33.2777950  20.7686390  22.1160210
  33.5513090  22.2393360  22.3486530  24.6250670  21.6284160  34.9238500
  24.4858440  22.5006960  35.2925900  23.7432030  21.2856970  34.7786440
  30.9480050  26.5460030  26.2303630  31.3875960  27.2884360  25.8159020
  30.8866940  26.7886600  27.1542590  26.4231020  27.5705860  37.1323650
  26.3946450  27.9748810  36.2652080  26.2595990  26.6416220  36.9695250
  36.4201810  12.8606770  20.5763430  36.1074470  12.9533600  21.4762500
  37.1814280  13.4387800  20.5260860  20.5769320  23.3981710  30.8409410
  20.6549740  23.5330480  29.8965130  21.1911000  22.6897600  31.0337530
  21.8216950  25.0981900  27.2515590  21.4145030  25.2396490  26.3969190
  22.7129960  24.8142060  27.0486800  37.7779090  25.5445810  35.5887830
  37.9042150  25.3057690  34.6705010  37.8200470  24.7130350  36.0609910
  31.6395830  29.2473810  34.1582640  32.1540500  29.1581820  34.9605070
  30.7964910  29.5933510  34.4510550  33.6150230  29.5329150  23.5866640
  33.4551370  29.2432090  24.4848470  33.4496940  28.7569280  23.0511870
  26.0938610  29.3127680  25.3638260  25.9181090  28.3963220  25.1506060
  25.2394350  29.6714970  25.6036060  33.3176360  27.0416710  22.1464640
  32.6241520  27.0394000  21.4866920  34.0599220  26.6176030  21.7158810
  32.8826290  28.6679420  26.2213130  33.3383240  27.8868800  26.5351750
  33.2218810  29.3786240  26.7654310  37.6303100  17.5978270  36.5537570
  37.0147370  18.1057940  36.0253030  37.3099520  16.6976600  36.4963510
  20.6328840  24.4395880  33.3803870  20.7959880  23.9701240  32.5623240
  21.0981290  23.9319440  34.0452710  25.4047610  13.5701640  28.4164440
  24.9615760  14.3511180  28.0848960  25.9632600  13.8931530  29.1235380
  29.6917420  16.4370160  34.0199760  29.2296790  16.6453180  34.8319700
  29.2895530  15.6229510  33.7170430  34.6921930  17.6579110  35.1496420
  33.8415520  17.3584860  35.4705490  34.5323720  17.9021120  34.2380240
  31.7871640  19.1580860  37.2495210  32.1125050  18.3244610  36.9097440
  32.5751970  19.6809380  37.3973540  28.5206430  13.1912340  23.2970270
  27.8960610  13.1872210  24.0223580  28.4336550  12.3243300  22.9006240
  27.4423510  14.1148970  30.2754040  27.7395840  15.0211800  30.1946060
  27.9909070  13.6267750  29.6613610  25.1961830  18.6935210  26.1445690
  24.9702750  18.4772380  27.0492310  24.4154360  19.1263670  25.7991660
  32.4259590  18.6998580  24.7436340  31.8268480  19.4234380  24.5599960
  32.9739200  18.6375360  23.9612790  27.6361040  19.5920790  36.8105960
  27.5404640  18.6515520  36.6606360  28.4793020  19.8135860  36.4154030
  31.0324460  17.3362120  26.7739620  31.4254030  17.6534320  25.9608310
  31.3941310  16.4574000  26.8884140  22.7671580  16.0034460  34.9639740
  22.3734970  16.8509670  35.1712520  22.0789980  15.3660830  35.1548380
  20.0688630  13.9262920  28.9969820  19.7801680  14.4965780  29.7094800
  20.8134390  13.4467370  29.3601050  31.6179600  19.9267870  30.8690400
  30.8860720  20.4354680  31.2180500  31.2203940  19.1097850  30.5679180
  28.0556990  16.6022070  29.2742890  28.0593050  16.1612020  28.4247430
  28.9508110  16.9239400  29.3814710  23.9059370  16.4848560  28.2337100
  23.5659420  16.9623790  28.9904150  23.1436690  16.0313680  27.8738200
  28.1177140  17.6034150  22.2649650  28.2389960  17.5620630  23.2135470
  27.7325650  18.4658300  22.1096380  32.0805510  15.3801550  30.2813340
  32.0978250  15.8310200  31.1255190  31.8321090  14.4807190  30.4946780
  27.1298640  19.9135290  21.6632950  26.5615540  19.4653540  21.0368860
  27.8387640  20.2728070  21.1298100  35.5076260  12.7933730  36.1199720
  35.8322030  12.0623390  36.6457700  35.5432770  12.4747370  35.2180710
  22.2067820  23.8147310  35.5399680  21.8222610  23.1740980  36.1382640
  22.5180010  24.5183430  36.1094410  28.3564960  20.6623850  31.0208300
  28.7235090  20.1882420  31.7669640  28.1670020  21.5365420  31.3616640
  26.1464330  19.7032490  33.3392510  25.8421400  20.5824470  33.5642870
  27.1010790  19.7632280  33.3749950  24.6746120  23.9093480  23.9359360
  23.9008380  23.3691100  23.7758080  25.4040750  23.3900090  23.5977120
  35.4334100  22.9058840  29.7285750  36.1533220  23.4014130  29.3381860
  35.2315920  22.2276730  29.0839620  30.8944040  14.2996800  23.8715140
  30.0808650  13.8009970  23.7960450  30.7005990  15.1395050  23.4551490
  30.8152900  22.9767900  35.6154750  30.7490210  22.0563570  35.3612340
  30.1858040  23.0743340  36.3299390  33.6092430  18.6716450  22.1677300
  34.4972050  18.9833680  21.9928640  33.5797520  17.7988700  21.7757880
  24.7183520  23.5773860  27.5738170  25.2362190  22.7742120  27.5195060
  24.2667540  23.5153000  28.4155000  29.6053020  24.8440140  22.8465470
  29.9468720  25.5882370  22.3508790  28.7765730  25.1571260  23.2090300
  22.2028060  20.5435230  34.4863870  21.8443000  21.2089080  35.0737210
  21.9082620  19.7118780  34.8576490  25.4041180  21.0019470  37.3703420
  25.1041320  21.1476650  36.4731240  26.1752420  20.4424760  37.2776810
  30.7469630  25.7988470  35.3658550  30.7614170  24.8669430  35.1477460
  30.0394730  25.8848230  36.0048320  35.8806700  19.9828290  21.6357160
  35.7970420  20.4142510  20.7853600  36.6000890  20.4426640  22.0683980
  36.9580840  22.4395810  34.7127130  36.2329030  23.0324590  34.5156520
  37.4856300  22.4319350  33.9140500  36.9093950  26.8370550  24.3639290
  36.2670110  26.1826170  24.6383010  36.5224610  27.2425640  23.5879960
  32.4880430  24.1655980  28.2110980  32.8404250  23.5684110  27.5512350
  31.6042760  23.8400210  28.3819230  28.5743710  24.9253670  25.6181390
  29.2614840  25.4722880  25.9988980  27.7876130  25.4694400  25.6531000
  27.8770920  21.9299700  25.2306750  28.3333700  22.7404950  25.4566940
  27.5259130  21.6122840  26.0625240  30.1803530  27.4406040  32.4599050
  30.8245750  27.6465420  33.1372470  30.5432970  26.6794440  32.0069900
  23.7782700  12.2737350  25.7029270  23.6497330  12.2655250  26.6514190
  22.9544720  12.6120440  25.3520280  31.4535610  25.4438390  31.1776500
  32.0957840  24.7431550  31.2908670  31.9784960  26.2236830  30.9973390
  35.2991330  25.7287010  20.9015640  35.0728910  25.0117450  21.4940280
  34.9087530  25.4799450  20.0637390  33.2273230  26.2433290  34.3812560
  33.5629470  26.8299980  35.0590480  32.3073570  26.1126000  34.6110350
  21.0807360  29.7553870  21.6760100  21.4405000  30.3543210  21.0217370
  20.9399700  30.3013760  22.4495130  20.7776630  14.0328470  35.1635970
  20.0635150  14.2325390  35.7688580  21.1971670  13.2568040  35.5350770
  34.8807580  23.6458950  22.5629800  34.5929280  24.1071640  23.3507680
  35.6759750  23.1856720  22.8314020  21.0649220  28.0208730  36.1502500
  21.1740340  27.0803470  36.0097890  20.4129780  28.2863480  35.5016230
  27.0975980  27.1385070  22.4933770  27.0886080  27.8714760  21.8778280
  26.1774340  26.8916650  22.5860730  22.6982620  22.3599960  23.2380530
  22.0910570  23.0998860  23.2475830  23.1731970  22.4499320  22.4118730
  32.2715410  16.5250780  32.9137420  32.6396230  15.7045990  33.2416990
  31.4113610  16.5852670  33.3293070  35.6377440  15.4807720  23.7224980
  35.0090600  15.5853390  23.0083210  35.1429360  15.7004500  24.5118860
  30.0835580  27.2013310  21.1558960  30.1847560  26.9977300  20.2260940
  29.1837320  26.9471590  21.3606740  27.6061470  17.7593670  25.1382860
  26.8977620  18.2280010  25.5796470  27.8905950  17.1015680  25.7728050
  29.2317400  19.1790370  33.1375390  29.7302650  19.6536190  33.8027240
  29.3740350  18.2553890  33.3445420  31.6376900  14.4844330  26.5778650
  31.5144680  14.5030460  25.6288160  32.5861460  14.5323270  26.6977050
  28.7253690  29.7199630  25.8506630  28.9795190  29.6821020  24.9286000
  27.7766170  29.5932960  25.8434880  25.8096490  16.0678750  22.5133570
  26.6587020  16.5048900  22.4473760  25.4427760  16.3799010  23.3405630
  36.4384260  15.3958330  33.9803780  35.9357860  16.1363730  34.3197590
  37.2540920  15.7842330  33.6640570  34.7306270  20.6391510  27.4265140
  33.7896410  20.6541740  27.6012830  35.0450340  19.8527470  27.8725440
  36.7331850  27.8100360  29.1019400  36.8579270  28.6331530  29.5743210
  37.5997410  27.5991090  28.7543550  24.2049380  29.9031570  28.7736530
  24.9411860  29.3547030  29.0445100  24.5890300  30.7687580  28.6342520
  21.0894860  25.9705140  24.6478040  20.1634640  26.2126280  24.6383450
  21.5551290  26.7979400  24.5262790  27.3151690  29.0761880  20.5962100
  28.1080300  29.3650710  20.1443890  26.7956040  28.6454050  19.9174580
  33.4772660  28.9237800  36.5206930  34.4294410  28.8395820  36.4707170
  33.3300880  29.5879510  37.1940720  36.3681860  28.3032010  22.0198840
  36.0823370  27.8897150  21.2053020  36.1701410  29.2319720  21.8999360
  20.9305470  21.5751100  36.9058160  21.4344490  20.9958380  37.4774390
  20.1912890  21.8591330  37.4434530  27.8329090  24.2965290  20.4604450
  27.7279730  23.6817640  21.1865830  27.6653310  23.7731180  19.6767460
  27.9843410  22.9822090  36.4393680  27.2189080  23.5507090  36.3548350
  28.1659370  22.6898300  35.5461910  31.0731820  23.3585320  21.0646440
  30.5241920  23.8054620  21.7089180  31.6951080  22.8534570  21.5884110
  35.1266760  24.7127420  36.9968700  35.8676230  25.0503180  36.4936160
  34.3639440  24.8819480  36.4438470  26.7406940  22.3176240  22.9611740
  27.1623360  22.1516110  23.8043130  26.8657780  21.5076470  22.4666880
  24.9034360  18.2972790  35.7682720  24.3730820  17.8063740  35.1406060
  25.5722430  18.7256990  35.2340650  29.2534580  21.3413850  20.2088840
  29.7740240  20.6262870  19.8429990  29.9002980  21.9799720  20.5089350
  33.8012420  22.7642250  35.5323910  34.2153440  22.9187330  36.3814330
  32.8663420  22.8897470  35.6949690  34.2734590  20.1038410  37.5363060
  34.8555360  19.3490730  37.4483540  34.4496360  20.6345850  36.7594540
  25.3906660  15.2635160  35.8480010  25.2963530  14.6455910  35.1230880
  24.8104050  15.9901450  35.6209920  28.1568100  13.8208400  32.8807400
  27.7085400  13.8432660  32.0352950  27.5233300  13.4227420  33.4777700
  28.5627650  22.7162730  33.5019840  28.9815760  23.5595460  33.3296080
  27.6436280  22.8534770  33.2726620  30.8991550  20.4478910  34.8857680
  31.0187760  19.8520050  35.6252520  31.7585550  20.4848600  34.4658980
  33.2379450  21.0016100  33.4620190  32.7114670  21.5258720  32.8585330
  33.5810790  21.6343490  34.0929920  26.4135070  29.0215740  34.6177570
  25.8756160  29.7461800  34.2986270  26.6669030  28.5446080  33.8274910
  27.6660320  16.9900260  36.1433500  28.2560010  16.6816110  36.8311320
  26.8480560  16.5180010  36.2993400  32.4853750  16.6066070  36.3766520
  31.7969270  15.9447610  36.3116510  33.2059770  16.1604340  36.8214980
  33.1154150  13.2017700  22.4356780  33.3956440  12.3585600  22.7916200
  32.3419880  13.4340810  22.9495530  29.2697280  30.2566950  34.8764220
  29.1955980  31.1602090  35.1836590  28.3676120  29.9378850  34.8486290
  27.6533570  14.4344710  20.8803980  27.3055570  13.7568700  20.3006430
  27.8546340  13.9734220  21.6947370  29.8182610  29.4225460  22.4990580
  30.7133400  29.7610430  22.5209340  29.8500240  28.7004870  21.8714860
  20.6724570  27.5841540  28.1797840  21.0027580  26.7162600  27.9476480
  21.1015570  27.7900060  29.0102800  25.2686490  25.9150550  25.8399810
  24.9682030  25.7915520  26.7403720  25.1623980  25.0559140  25.4315540
  21.1614780  28.4512130  30.9179470  20.7245770  28.6312930  31.7503620
  21.7292460  29.2086750  30.7761190  36.7976960  27.9529130  35.2056780
  36.1978950  28.0121690  34.4620700  36.9270860  27.0134110  35.3353630
  38.0378410  25.6946950  20.5426490  37.2071370  25.7623600  21.0133720
  38.2150240  26.5851070  20.2393350  37.4934870  22.4394430  23.0460690
  38.2553780  23.0091080  23.1520380  37.5089240  21.8721630  23.8169000
  20.9939210  20.9632360  27.2768350  20.3388050  20.6944000  26.6328050
  21.8317160  20.8536840  26.8270330  35.4828600  24.6781110  33.3032940
  34.6688440  25.1078270  33.5658730  35.8902800  25.2899520  32.6901990
  37.5454040  22.7328800  20.2033210  37.8202880  23.6407680  20.0752430
  37.3564780  22.6691330  21.1395200  33.9429650  15.7573650  21.4986840
  34.3614530  15.5704630  20.6583500  33.6365710  14.9052700  21.8089770
  37.4419380  20.6697790  25.1962640  37.0662980  19.9025720  24.7643930
  36.7122500  21.0520490  25.6837570  22.0315140  21.3484930  31.8171690
  22.3988180  21.2612330  32.6967710  21.4625960  20.5851480  31.7178550
  36.8319000  19.8169310  34.8302160  36.6005090  19.5882060  33.9300110
  37.0923550  20.7368860  34.7847050  21.5831140  18.2594020  35.7230110
  20.6887190  18.2260780  36.0623820  22.1228690  18.4580810  36.4881360
  35.2707070  15.0425740  37.6081860  36.1477250  15.0509140  37.9915860
  35.2827910  14.3056580  36.9974210  36.7170340  18.8955280  28.4969880
  37.2407820  18.4017930  27.8660050  37.3029760  19.0305640  29.2417450
  36.8960060  18.9795150  32.0189430  35.9462770  18.9458690  32.1334420
  37.0773070  19.8895260  31.7839200  22.3978660  13.2836160  20.1690710
  23.1206790  13.8245100  20.4871930  22.6703180  13.0099580  19.2932250
  36.2070310  18.1528630  24.4362290  36.7029430  17.9199500  25.2211170
  36.0086380  17.3140470  24.0199930  22.0870850  12.5342350  30.0713330
  22.7347040  11.9839730  29.6308490  22.5072690  12.7885500  30.8929140
  37.6357470  16.7889580  26.9699970  37.5256750  16.6345620  27.9082240
  38.3965060  16.2610520  26.7275380  35.9823190  12.7283710  33.4282970
  36.6195410  13.3417850  33.7942160  36.1298080  12.7644370  32.4832200
  35.5404650  29.4299710  26.8301210  36.1363720  29.1084280  26.1535630
  35.7982800  28.9571530  27.6214480  21.8402850  12.6898020  32.8138650
  21.4917670  13.1461840  33.5796830  21.5090550  11.7955150  32.8961080
  23.4467220  25.8617620  36.9791840  23.4036850  25.4910530  37.8606300
  23.5778230  26.7995190  37.1193660  27.1473250  27.4177210  32.5801560
  26.9064610  27.6851770  31.6932080  28.0875890  27.5882940  32.6352420
  29.3527670  13.8809900  36.3358070  29.2916560  14.4731730  37.0853480
  30.2928050  13.7735860  36.1908330  31.9902230  13.5379960  35.9750360
  32.6042640  13.8559250  35.3131440  32.5351790  13.0528550  36.5946220
  22.5123490  12.2174220  36.0889420  23.0606480  12.0362270  35.3255530
  22.5778800  11.4268330  36.6245730  23.2855250  28.8079870  34.0989620
  22.6915570  28.6764570  34.8379660  23.2779090  27.9718010  33.6331720
  32.7310270  12.1012100  32.3019650  31.8570110  12.4347210  32.0992580
  32.6221020  11.6285280  33.1271520  33.6382250  14.3082970  33.6861370
  33.3095610  13.4934730  33.3063100  34.5864550  14.2652780  33.5627060
  36.0916860  30.0795010  30.6598940  35.6319830  30.8310820  30.2856960
  35.4629320  29.3601480  30.6013740  22.9167480  26.1738250  33.0497660
  22.1901540  25.5543540  32.9823610  22.9776630  26.5678860  32.1795740
  26.5212580  28.3883250  29.8347070  27.0377600  27.7770610  29.3095330
  27.1709960  28.8912030  30.3258080  29.2608080  29.2791740  30.6616050
  29.5485890  29.0246040  29.7849060  29.7731300  28.7269100  31.2521620
  30.4785090  13.0181940  31.2412560  29.6956880  13.4927440  31.5209320
  30.1848020  12.1136770  31.1325740  35.0306160  13.7205040  29.2861650
  35.4714250  13.6650140  28.4383250  34.7613750  14.6363050  29.3571830
  36.8944730  13.3520280  27.2970470  36.8333130  12.4081500  27.1501490
  37.6736760  13.4600370  27.8423930  21.1997480  29.4912640  26.2594420
  21.0319520  28.8583320  26.9576310  20.3331990  29.6972040  25.9088610
  28.3639310  15.4368690  26.7528590  27.5513820  15.0625580  26.4124470
  28.8680950  14.6813770  27.0549780  32.8664290  12.1011140  27.9911660
  33.4693660  12.6731350  28.4660180  32.1257280  12.6650580  27.7685560
  36.0098890  12.5032700  23.2651940  36.2049520  13.4016150  23.5319370
  35.2228760  12.2719780  23.7584890  22.8060180  28.1845870  23.7044560
  22.2807800  28.5653900  23.0006520  22.7304760  28.8096640  24.4254270
  26.3888490  13.5868610  25.3573640  25.7591230  12.8855920  25.5243770
  25.8493630  14.3472740  25.1406800  37.5625500  29.7433410  25.0258500
  37.7377690  29.0571150  24.3819420  36.8647070  30.2680460  24.6335170
  26.5144050  12.8652590  37.7926130  26.2328320  13.3686190  37.0286950
  26.8963750  12.0674340  37.4268260  25.4053150  30.1328250  22.5793810
  26.1371970  29.8487530  22.0317700  25.6646820  29.8941530  23.4693190
  32.0217660  20.2998640   8.7341340  31.9411710  19.3853250   8.4633050
  31.6082080  20.7965710   8.0281050  30.1535700  22.0777660  10.6150610
  29.3777800  21.5978100  10.9049180  30.8048630  21.3983310  10.4406770
  24.1701530  22.3897470  11.4926370  23.3386410  22.1346180  11.8922880
  24.7782510  22.4608240  12.2284290  34.1743130  26.4837850   9.3949740
  33.7124660  25.7125090   9.7236910  34.9868680  26.5103920   9.9002190
  24.1502790  26.4237560  11.6884390  24.4530830  25.5335300  11.5094610
  24.8946380  26.9807780  11.4606640  22.5793480  17.3499360   5.2768760
  21.6910180  17.6915330   5.1748640  22.8634670  17.1499680   4.3849590
  20.5426490  19.9505010  11.1608460  21.1142600  19.1827210  11.1612100
  20.5428030  20.2493770  10.2515070  30.4006440  28.7695860   9.0153730
  29.7817880  29.2253360   8.4448170  31.2558220  28.9247320   8.6143430
  29.5944690  24.7534850  10.6220770  29.5252970  23.8124790  10.4609900
  30.3564550  24.8436260  11.1943340  30.6249860  17.5605230  10.8489700
  31.0014680  16.6877110  10.7363370  30.5269370  17.8963930   9.9580140
  24.7554870  15.9330860   6.3107140  24.8621620  16.8334590   6.6175900
  23.8447230  15.8848830   6.0201790  34.4073980  15.0555670   7.7818040
  35.2283600  14.5652240   7.8243520  34.4408060  15.6453330   8.5349880
  22.4038030  17.8549870  11.5559730  23.0848140  18.1188240  12.1747130
  22.0886080  17.0150740  11.8897740  26.5962600  18.9017230  10.6432320
  27.1040820  19.3998200  11.2837340  27.1275840  18.1252430  10.4671680
  24.8798700  13.5415790  14.9095740  24.8817140  14.0588180  14.1041640
  24.0503010  13.0645970  14.8865670  31.2669790  23.6535100   6.4085640
  30.6487060  24.1184550   5.8448360  31.7793040  24.3462580   6.8255150
  26.1301550  23.1810970  13.0869240  25.7970930  23.8079890  13.7290310
  26.3068230  23.7072850  12.3070910  34.6435460  16.9956050  10.5545580
  33.9391030  17.2840940  11.1348690  35.0047620  17.8056160  10.1945140
  20.6352990  24.3391630   3.7825270  20.2580970  24.8278730   3.0510170
  20.8926060  25.0116910   4.4131800  36.2598240  26.6131180  12.8173060
  35.5761760  27.2830290  12.8089730  36.7992530  26.8111830  12.0517920
  37.7122380  16.4410840  10.9454790  36.7647290  16.4749820  11.0770220
  38.0372370  17.2549790  11.3304150  28.2441920  12.7408020   9.2410780
  28.5516900  12.1854910   8.5246280  27.3142620  12.8752480   9.0583770
  33.7956980  28.4575310  11.5318240  33.8084140  28.0537600  10.6640500
  33.2432200  29.2322600  11.4279670  35.0902400  25.1791530   6.6208410
  34.9798730  24.2365860   6.7457830  35.0870650  25.5407170   7.5071170
  33.1942420  23.3605150  12.8600850  33.6111210  23.1465260  12.0254310
  33.9182240  23.6177940  13.4309470  30.6322680  20.8056850   5.9770900
  29.7051960  20.7394230   6.2059370  30.7847500  21.7436980   5.8626140
  30.6191760  17.0773850   2.9738060  29.6795430  17.2387810   3.0590520
  30.9375020  17.7959530   2.4274050  37.1404520  21.7592370  12.9517090
  36.3123150  21.8285460  12.4767220  37.7355000  22.3446680  12.4832920
  34.6619970  22.3677150   6.4806150  34.0432390  22.0296700   5.8332450
  34.6444420  21.7236910   7.1885340  34.1046530  18.5461690  13.8971960
  33.6917710  19.3715400  14.1511950  33.3722480  17.9606730  13.7048320
  26.2379320  21.3321590   8.7590630  25.8336320  20.6198840   8.2636530
  26.3242440  20.9874830   9.6478670  26.7061020  25.0189150  10.9229840
  26.4089310  24.4134620  10.2437620  27.6560840  25.0566460  10.8119200
  34.7946630  28.5921020  14.5852940  34.3177190  29.3993210  14.3925550
  34.1108420  27.9399350  14.7379150  32.8384670  21.6063960   3.4878900
  33.2777950  20.7686390   3.3416720  33.5513090  22.2393360   3.5743040
  30.9480050  26.5460030   7.4560140  31.3875960  27.2884360   7.0415530
  30.8866940  26.7886600   8.3799100  36.4201810  12.8606770   1.8019940
  36.1074470  12.9533600   2.7019010  37.1814280  13.4387800   1.7517370
  22.9383950  20.2266570   6.2597280  22.8181550  20.9528660   5.6478550
  22.6284840  19.4569480   5.7825190  20.5769320  23.3981710  12.0665920
  20.6549740  23.5330480  11.1221640  21.1911000  22.6897600  12.2594040
  21.8216950  25.0981900   8.4772100  21.4145030  25.2396490   7.6225700
  22.7129960  24.8142060   8.2743310  37.7779090  25.5445810  16.8144340
  37.9042150  25.3057690  15.8961520  37.8200470  24.7130350  17.2866420
  31.6395830  29.2473810  15.3839150  32.1540500  29.1581820  16.1861580
  30.7964910  29.5933510  15.6767060  33.6150230  29.5329150   4.8123150
  33.4551370  29.2432090   5.7104980  33.4496940  28.7569280   4.2768380
  26.0938610  29.3127680   6.5894770  25.9181090  28.3963220   6.3762570
  25.2394350  29.6714970   6.8292570  33.3176360  27.0416710   3.3721150
  32.6241520  27.0394000   2.7123430  34.0599220  26.6176030   2.9415320
  32.8826290  28.6679420   7.4469640  33.3383240  27.8868800   7.7608260
  33.2218810  29.3786240   7.9910820  37.6303100  17.5978270  17.7794080
  37.0147370  18.1057940  17.2509540  37.3099520  16.6976600  17.7220020
  25.4047610  13.5701640   9.6420950  24.9615760  14.3511180   9.3105470
  25.9632600  13.8931530  10.3491890  29.6917420  16.4370160  15.2456270
  29.2296790  16.6453180  16.0576210  29.2895530  15.6229510  14.9426940
  34.6921930  17.6579110  16.3752930  33.8415520  17.3584860  16.6962000
  34.5323720  17.9021120  15.4636750  31.7871640  19.1580860  18.4751720
  32.1125050  18.3244610  18.1353950  32.5751970  19.6809380  18.6230050
  28.5206430  13.1912340   4.5226780  27.8960610  13.1872210   5.2480090
  28.4336550  12.3243300   4.1262750  27.4423510  14.1148970  11.5010550
  27.7395840  15.0211800  11.4202570  27.9909070  13.6267750  10.8870120
  25.1961830  18.6935210   7.3702200  24.9702750  18.4772380   8.2748820
  24.4154360  19.1263670   7.0248170  32.4259590  18.6998580   5.9692850
  31.8268480  19.4234380   5.7856470  32.9739200  18.6375360   5.1869300
  31.0324460  17.3362120   7.9996130  31.4254030  17.6534320   7.1864820
  31.3941310  16.4574000   8.1140650  29.3416630  16.0869430  19.2592990
  28.6514950  15.8941630  19.8939080  30.0848930  16.3704070  19.7917290
  20.0688630  13.9262920  10.2226330  19.7801680  14.4965780  10.9351310
  20.8134390  13.4467370  10.5857560  31.6179600  19.9267870  12.0946910
  30.8860720  20.4354680  12.4437010  31.2203940  19.1097850  11.7935690
  28.0556990  16.6022070  10.4999400  28.0593050  16.1612020   9.6503940
  28.9508110  16.9239400  10.6071220  23.9059370  16.4848560   9.4593610
  23.5659420  16.9623790  10.2160660  23.1436690  16.0313680   9.0994710
  28.1177140  17.6034150   3.4906160  28.2389960  17.5620630   4.4391980
  27.7325650  18.4658300   3.3352890  32.0805510  15.3801550  11.5069850
  32.0978250  15.8310200  12.3511700  31.8321090  14.4807190  11.7203290
  27.1298640  19.9135290   2.8889460  26.5615540  19.4653540   2.2625370
  27.8387640  20.2728070   2.3554610  35.5076260  12.7933730  17.3456230
  35.8322030  12.0623390  17.8714210  35.5432770  12.4747370  16.4437220
  28.3564960  20.6623850  12.2464810  28.7235090  20.1882420  12.9926150
  28.1670020  21.5365420  12.5873150  21.2205450  15.4067540   8.3758280
  20.9352370  15.0423210   9.2136900  21.1584310  14.6748000   7.7621420
  24.6746120  23.9093480   5.1615870  23.9008380  23.3691100   5.0014590
  25.4040750  23.3900090   4.8233630  35.4334100  22.9058840  10.9542260
  36.1533220  23.4014130  10.5638370  35.2315920  22.2276730  10.3096130
  30.8944040  14.2996800   5.0971650  30.0808650  13.8009970   5.0216960
  30.7005990  15.1395050   4.6808000  30.8152900  22.9767900  16.8411260
  30.7490210  22.0563570  16.5868850  30.1858040  23.0743340  17.5555900
  33.6092430  18.6716450   3.3933810  34.4972050  18.9833680   3.2185150
  33.5797520  17.7988700   3.0014390  24.7183520  23.5773860   8.7994680
  25.2362190  22.7742120   8.7451570  24.2667540  23.5153000   9.6411510
  29.6053020  24.8440140   4.0721980  29.9468720  25.5882370   3.5765300
  28.7765730  25.1571260   4.4346810  30.7469630  25.7988470  16.5915060
  30.7614170  24.8669430  16.3733970  30.0394730  25.8848230  17.2304830
  35.8806700  19.9828290   2.8613670  35.7970420  20.4142510   2.0110110
  36.6000890  20.4426640   3.2940490  36.9580840  22.4395810  15.9383640
  36.2329030  23.0324590  15.7413030  37.4856300  22.4319350  15.1397010
  36.9093950  26.8370550   5.5895800  36.2670110  26.1826170   5.8639520
  36.5224610  27.2425640   4.8136470  32.4880430  24.1655980   9.4367490
  32.8404250  23.5684110   8.7768860  31.6042760  23.8400210   9.6075740
  28.5743710  24.9253670   6.8437900  29.2614840  25.4722880   7.2245490
  27.7876130  25.4694400   6.8787510  20.7136110  20.5426490   2.3354980
  21.5830960  20.8251290   2.6190900  20.2226430  21.3562360   2.2203790
  27.8770920  21.9299700   6.4563260  28.3333700  22.7404950   6.6823450
  27.5259130  21.6122840   7.2881750  30.1803530  27.4406040  13.6855560
  30.8245750  27.6465420  14.3628980  30.5432970  26.6794440  13.2326410
  23.7782700  12.2737350   6.9285780  23.6497330  12.2655250   7.8770700
  22.9544720  12.6120440   6.5776790  31.4535610  25.4438390  12.4033010
  32.0957840  24.7431550  12.5165180  31.9784960  26.2236830  12.2229900
  33.2273230  26.2433290  15.6069070  33.5629470  26.8299980  16.2846990
  32.3073570  26.1126000  15.8366860  21.0807360  29.7553870   2.9016610
  21.4405000  30.3543210   2.2473880  20.9399700  30.3013760   3.6751640
  20.7776630  14.0328470  16.3892480  20.0635150  14.2325390  16.9945090
  21.1971670  13.2568040  16.7607280  34.8807580  23.6458950   3.7886310
  34.5929280  24.1071640   4.5764190  35.6759750  23.1856720   4.0570530
  29.0561810  26.2924620  18.7757130  28.7358680  25.5733860  19.3202820
  28.3820170  26.9679690  18.8493190  27.0975980  27.1385070   3.7190280
  27.0886080  27.8714760   3.1034790  26.1774340  26.8916650   3.8117240
  22.6982620  22.3599960   4.4637040  22.0910570  23.0998860   4.4732340
  23.1731970  22.4499320   3.6375240  32.2715410  16.5250780  14.1393930
  32.6396230  15.7045990  14.4673500  31.4113610  16.5852670  14.5549580
  35.6377440  15.4807720   4.9481490  35.0090600  15.5853390   4.2339720
  35.1429360  15.7004500   5.7375370  30.0835580  27.2013310   2.3815470
  30.1847560  26.9977300   1.4517450  29.1837320  26.9471590   2.5863250
  27.6061470  17.7593670   6.3639370  26.8977620  18.2280010   6.8052980
  27.8905950  17.1015680   6.9984560  29.2317400  19.1790370  14.3631900
  29.7302650  19.6536190  15.0283750  29.3740350  18.2553890  14.5701930
  31.6376900  14.4844330   7.8035160  31.5144680  14.5030460   6.8544670
  32.5861460  14.5323270   7.9233560  28.7253690  29.7199630   7.0763140
  28.9795190  29.6821020   6.1542510  27.7766170  29.5932960   7.0691390
  25.8096490  16.0678750   3.7390080  26.6587020  16.5048900   3.6730270
  25.4427760  16.3799010   4.5662140  36.4384260  15.3958330  15.2060290
  35.9357860  16.1363730  15.5454100  37.2540920  15.7842330  14.8897080
  34.7306270  20.6391510   8.6521650  33.7896410  20.6541740   8.8269340
  35.0450340  19.8527470   9.0981950  24.7087910  22.3211110   2.2125610
  25.4751180  22.2092470   2.7751040  24.7862600  21.6249080   1.5602380
  23.4034670  19.7536180   2.8958500  23.4838260  18.8063690   3.0075900
  24.2954420  20.0843060   3.0019160  36.7331850  27.8100360  10.3275910
  36.8579270  28.6331530  10.7999720  37.5997410  27.5991090   9.9800060
  24.2049380  29.9031570   9.9993040  24.9411860  29.3547030  10.2701610
  24.5890300  30.7687580   9.8599030  21.0894860  25.9705140   5.8734550
  20.1634640  26.2126280   5.8639960  21.5551290  26.7979400   5.7519300
  32.0472290  25.1957510  19.1354030  31.4410450  25.2189110  18.3949780
  31.7426400  24.4640550  19.6721280  33.4772660  28.9237800  17.7463440
  34.4294410  28.8395820  17.6963680  33.3300880  29.5879510  18.4197230
  36.3681860  28.3032010   3.2455350  36.0823370  27.8897150   2.4309530
  36.1701410  29.2319720   3.1255870  27.9843410  22.9822090  17.6650190
  27.2189080  23.5507090  17.5804860  28.1659370  22.6898300  16.7718420
  31.0731820  23.3585320   2.2902950  30.5241920  23.8054620   2.9345690
  31.6951080  22.8534570   2.8140620  35.1266760  24.7127420  18.2225210
  35.8676230  25.0503180  17.7192670  34.3639440  24.8819480  17.6694980
  26.7406940  22.3176240   4.1868250  27.1623360  22.1516110   5.0299640
  26.8657780  21.5076470   3.6923390  33.8012420  22.7642250  16.7580420
  34.2153440  22.9187330  17.6070840  32.8663420  22.8897470  16.9206200
  34.2734590  20.1038410  18.7619570  34.8555360  19.3490730  18.6740050
  34.4496360  20.6345850  17.9851050  28.1568100  13.8208400  14.1063910
  27.7085400  13.8432660  13.2609460  27.5233300  13.4227420  14.7034210
  28.5627650  22.7162730  14.7276350  28.9815760  23.5595460  14.5552590
  27.6436280  22.8534770  14.4983130  30.8991550  20.4478910  16.1114190
  31.0187760  19.8520050  16.8509030  31.7585550  20.4848600  15.6915490
  33.2379450  21.0016100  14.6876700  32.7114670  21.5258720  14.0841840
  33.5810790  21.6343490  15.3186430  26.4135070  29.0215740  15.8434080
  25.8756160  29.7461800  15.5242780  26.6669030  28.5446080  15.0531420
  32.4853750  16.6066070  17.6023030  31.7969270  15.9447610  17.5373020
  33.2059770  16.1604340  18.0471490  33.1154150  13.2017700   3.6613290
  33.3956440  12.3585600   4.0172710  32.3419880  13.4340810   4.1752040
  29.2697280  30.2566950  16.1020730  29.1955980  31.1602090  16.4093100
  28.3676120  29.9378850  16.0742800  27.6533570  14.4344710   2.1060490
  27.3055570  13.7568700   1.5262940  27.8546340  13.9734220   2.9203880
  29.8182610  29.4225460   3.7247090  30.7133400  29.7610430   3.7465850
  29.8500240  28.7004870   3.0971370  23.4578770  24.7952510   1.9534090
  23.8953640  25.3382180   2.6091670  23.9426500  23.9699460   1.9630430
  20.6724570  27.5841540   9.4054350  21.0027580  26.7162600   9.1732990
  21.1015570  27.7900060  10.2359310  25.2686490  25.9150550   7.0656320
  24.9682030  25.7915520   7.9660230  25.1623980  25.0559140   6.6572050
  21.1614780  28.4512130  12.1435980  20.7245770  28.6312930  12.9760130
  21.7292460  29.2086750  12.0017700  36.7976960  27.9529130  16.4313290
  36.1978950  28.0121690  15.6877210  36.9270860  27.0134110  16.5610140
  38.0378410  25.6946950   1.7683000  37.2071370  25.7623600   2.2390230
  38.2150240  26.5851070   1.4649860  37.4934870  22.4394430   4.2717200
  38.2553780  23.0091080   4.3776890  37.5089240  21.8721630   5.0425510
  20.9939210  20.9632360   8.5024860  20.3388050  20.6944000   7.8584560
  21.8317160  20.8536840   8.0526840  35.4828600  24.6781110  14.5289450
  34.6688440  25.1078270  14.7915240  35.8902800  25.2899520  13.9158500
  33.9429650  15.7573650   2.7243350  34.3614530  15.5704630   1.8840010
  33.6365710  14.9052700   3.0346280  37.4419380  20.6697790   6.4219150
  37.0662980  19.9025720   5.9900440  36.7122500  21.0520490   6.9094080
  36.8319000  19.8169310  16.0558670  36.6005090  19.5882060  15.1556620
  37.0923550  20.7368860  16.0103560  35.2707070  15.0425740  18.8338370
  36.1477250  15.0509140  19.2172370  35.2827910  14.3056580  18.2230720
  20.2077290  18.1731290   4.4450190  19.3041370  18.4361490   4.2701850
  20.6917910  18.4442460   3.6650150  36.7170340  18.8955280   9.7226390
  37.2407820  18.4017930   9.0916560  37.3029760  19.0305640  10.4673960
  36.8960060  18.9795150  13.2445940  35.9462770  18.9458690  13.3590930
  37.0773070  19.8895260  13.0095710  22.7504500  17.2296830   2.3544570
  23.4596200  16.8080050   1.8691850  22.0344440  17.2972060   1.7227920
  36.2070310  18.1528630   5.6618800  36.7029430  17.9199500   6.4467680
  36.0086380  17.3140470   5.2456440  22.0870850  12.5342350  11.2969840
  22.7347040  11.9839730  10.8565000  22.5072690  12.7885500  12.1185650
  37.6357470  16.7889580   8.1956480  37.5256750  16.6345620   9.1338750
  38.3965060  16.2610520   7.9531890  35.9823190  12.7283710  14.6539480
  36.6195410  13.3417850  15.0198670  36.1298080  12.7644370  13.7088710
  35.5404650  29.4299710   8.0557720  36.1363720  29.1084280   7.3792140
  35.7982800  28.9571530   8.8470990  21.8402850  12.6898020  14.0395160
  21.4917670  13.1461840  14.8053340  21.5090550  11.7955150  14.1217590
  27.1473250  27.4177210  13.8058070  26.9064610  27.6851770  12.9188590
  28.0875890  27.5882940  13.8608930  29.3527670  13.8809900  17.5614580
  29.2916560  14.4731730  18.3109990  30.2928050  13.7735860  17.4164840
  31.9902230  13.5379960  17.2006870  32.6042640  13.8559250  16.5387950
  32.5351790  13.0528550  17.8202730  22.5123490  12.2174220  17.3145930
  23.0606480  12.0362270  16.5512040  22.5778800  11.4268330  17.8502240
  32.7310270  12.1012100  13.5276160  31.8570110  12.4347210  13.3249090
  32.6221020  11.6285280  14.3528030  33.6382250  14.3082970  14.9117880
  33.3095610  13.4934730  14.5319610  34.5864550  14.2652780  14.7883570
  36.0916860  30.0795010  11.8855450  35.6319830  30.8310820  11.5113470
  35.4629320  29.3601480  11.8270250  26.5212580  28.3883250  11.0603580
  27.0377600  27.7770610  10.5351840  27.1709960  28.8912030  11.5514590
  29.2608080  29.2791740  11.8872560  29.5485890  29.0246040  11.0105570
  29.7731300  28.7269100  12.4778130  30.4785090  13.0181940  12.4669070
  29.6956880  13.4927440  12.7465830  30.1848020  12.1136770  12.3582250
  35.0306160  13.7205040  10.5118160  35.4714250  13.6650140   9.6639760
  34.7613750  14.6363050  10.5828340  36.8944730  13.3520280   8.5226980
  36.8333130  12.4081500   8.3758000  37.6736760  13.4600370   9.0680440
  21.1997480  29.4912640   7.4850930  21.0319520  28.8583320   8.1832820
  20.3331990  29.6972040   7.1345120  21.8225500  13.3229420   4.9882790
  22.5804860  13.4358300   4.4146820  21.3602670  14.1598620   4.9426220
  28.3639310  15.4368690   7.9785100  27.5513820  15.0625580   7.6380980
  28.8680950  14.6813770   8.2806290  32.8664290  12.1011140   9.2168170
  33.4693660  12.6731350   9.6916690  32.1257280  12.6650580   8.9942070
  36.0098890  12.5032700   4.4908450  36.2049520  13.4016150   4.7575880
  35.2228760  12.2719780   4.9841400  22.8060180  28.1845870   4.9301070
  22.2807800  28.5653900   4.2263030  22.7304760  28.8096640   5.6510780
  24.1950650  13.8493470   3.5284760  24.7243410  13.0623270   3.3992710
  24.8278970  14.5284660   3.7620290  26.3888490  13.5868610   6.5830150
  25.7591230  12.8855920   6.7500280  25.8493630  14.3472740   6.3663310
  29.3280440  30.2007840  19.2540760  30.2547750  29.9652110  19.2976720
  29.3130870  31.0279840  18.7726790  37.5625500  29.7433410   6.2515010
  37.7377690  29.0571150   5.6075930  36.8647070  30.2680460   5.8591680
  26.5144050  12.8652590  19.0182640  26.2328320  13.3686190  18.2543460
  26.8963750  12.0674340  18.6524770  25.4053150  30.1328250   3.8050320
  26.1371970  29.8487530   3.2574210  25.6646820  29.8941530   4.6949700
  24.5667940  26.2492980   3.8096650  23.9376820  26.7178080   4.3582480
  24.6815770  25.4042200   4.2442840  33.1159510  12.2806170  19.5963110
  33.0024960  12.6000780  20.4914630  33.9329250  12.6818680  19.3000390
  35.8958000  29.4277700  19.0781800  36.6883320  28.9326930  18.8707760
  36.1891150  30.1067840  19.6857410  30.1535700   3.3034170  29.3894100
  29.3777800   2.8234610  29.6792670  30.8048630   2.6239820  29.2150260
  24.1701530   3.6153980  30.2669860  23.3386410   3.3602690  30.6666370
  24.7782510   3.6864750  31.0027780  34.1743130   7.7094360  28.1693230
  33.7124660   6.9381600  28.4980400  34.9868680   7.7360430  28.6745680
  24.1502790   7.6494070  30.4627880  24.4530830   6.7591810  30.2838100
  24.8946380   8.2064290  30.2350130  30.4006440   9.9952370  27.7897220
  29.7817880  10.4509870  27.2191660  31.2558220  10.1503830  27.3886920
  29.5944690   5.9791360  29.3964260  29.5252970   5.0381300  29.2353390
  30.3564550   6.0692770  29.9686830  31.2669790   4.8791610  25.1829130
  30.6487060   5.3441060  24.6191850  31.7793040   5.5719090  25.5998640
  26.1301550   4.4067480  31.8612730  25.7970930   5.0336400  32.5033800
  26.3068230   4.9329360  31.0814400  25.3420650   6.3748280  33.6761910
  25.9594650   7.0499360  33.3946360  24.4813770   6.7836260  33.5849410
  20.6352990   5.5648140  22.5568760  20.2580970   6.0535240  21.8253660
  20.8926060   6.2373420  23.1875290  36.2598240   7.8387690  31.5916550
  35.5761760   8.5086800  31.5833220  36.7992530   8.0368340  30.8261410
  33.7956980   9.6831820  30.3061730  33.8084140   9.2794110  29.4383990
  33.2432200  10.4579110  30.2023160  35.0902400   6.4048040  25.3951900
  34.9798730   5.4622370  25.5201320  35.0870650   6.7663680  26.2814660
  33.1942420   4.5861660  31.6344340  33.6111210   4.3721770  30.7997800
  33.9182240   4.8434450  32.2052960  30.6322680   2.0313360  24.7514390
  29.7051960   1.9650740  24.9802860  30.7847500   2.9693490  24.6369630
  37.1404520   2.9848880  31.7260580  36.3123150   3.0541970  31.2510710
  37.7355000   3.5703190  31.2576410  34.6619970   3.5933660  25.2549640
  34.0432390   3.2553210  24.6075940  34.6444420   2.9493420  25.9628830
  26.2379320   2.5578100  27.5334120  25.8336320   1.8455350  27.0380020
  26.3242440   2.2131340  28.4222160  26.7061020   6.2445660  29.6973330
  26.4089310   5.6391130  29.0181110  27.6560840   6.2822970  29.5862690
  34.7946630   9.8177530  33.3596430  34.3177190  10.6249720  33.1669040
  34.1108420   9.1655860  33.5122640  25.7979450   5.9827350  36.3481130
  24.9007980   6.2067320  36.5954530  25.8232320   6.1062290  35.3992530
  32.8384670   2.8320470  22.2622390  33.2777950   1.9942900  22.1160210
  33.5513090   3.4649870  22.3486530  24.6250670   2.8540670  34.9238500
  24.4858440   3.7263470  35.2925900  23.7432030   2.5113480  34.7786440
  30.9480050   7.7716540  26.2303630  31.3875960   8.5140870  25.8159020
  30.8866940   8.0143110  27.1542590  26.4231020   8.7962370  37.1323650
  26.3946450   9.2005320  36.2652080  26.2595990   7.8672730  36.9695250
  20.5769320   4.6238220  30.8409410  20.6549740   4.7586990  29.8965130
  21.1911000   3.9154110  31.0337530  21.8216950   6.3238410  27.2515590
  21.4145030   6.4653000  26.3969190  22.7129960   6.0398570  27.0486800
  37.7779090   6.7702320  35.5887830  37.9042150   6.5314200  34.6705010
  37.8200470   5.9386860  36.0609910  31.6395830  10.4730320  34.1582640
  32.1540500  10.3838330  34.9605070  30.7964910  10.8190020  34.4510550
  33.6150230  10.7585660  23.5866640  33.4551370  10.4688600  24.4848470
  33.4496940   9.9825790  23.0511870  26.0938610  10.5384190  25.3638260
  25.9181090   9.6219730  25.1506060  25.2394350  10.8971480  25.6036060
  33.3176360   8.2673220  22.1464640  32.6241520   8.2650510  21.4866920
  34.0599220   7.8432540  21.7158810  32.8826290   9.8935930  26.2213130
  33.3383240   9.1125310  26.5351750  33.2218810  10.6042750  26.7654310
  20.6328840   5.6652390  33.3803870  20.7959880   5.1957750  32.5623240
  21.0981290   5.1575950  34.0452710  22.2067820   5.0403820  35.5399680
  21.8222610   4.3997490  36.1382640  22.5180010   5.7439940  36.1094410
  24.6746120   5.1349990  23.9359360  23.9008380   4.5947610  23.7758080
  25.4040750   4.6156600  23.5977120  35.4334100   4.1315350  29.7285750
  36.1533220   4.6270640  29.3381860  35.2315920   3.4533240  29.0839620
  30.8152900   4.2024410  35.6154750  30.7490210   3.2820080  35.3612340
  30.1858040   4.2999850  36.3299390  24.7183520   4.8030370  27.5738170
  25.2362190   3.9998630  27.5195060  24.2667540   4.7409510  28.4155000
  29.6053020   6.0696650  22.8465470  29.9468720   6.8138880  22.3508790
  28.7765730   6.3827770  23.2090300  25.4041180   2.2275980  37.3703420
  25.1041320   2.3733160  36.4731240  26.1752420   1.6681270  37.2776810
  30.7469630   7.0244980  35.3658550  30.7614170   6.0925940  35.1477460
  30.0394730   7.1104740  36.0048320  36.9580840   3.6652320  34.7127130
  36.2329030   4.2581100  34.5156520  37.4856300   3.6575860  33.9140500
  36.9093950   8.0627060  24.3639290  36.2670110   7.4082680  24.6383010
  36.5224610   8.4682150  23.5879960  32.4880430   5.3912490  28.2110980
  32.8404250   4.7940620  27.5512350  31.6042760   5.0656720  28.3819230
  28.5743710   6.1510180  25.6181390  29.2614840   6.6979390  25.9988980
  27.7876130   6.6950910  25.6531000  20.7136110   1.7683000  21.1098470
  21.5830960   2.0507800  21.3934390  20.2226430   2.5818870  20.9947280
  27.8770920   3.1556210  25.2306750  28.3333700   3.9661460  25.4566940
  27.5259130   2.8379350  26.0625240  30.1803530   8.6662550  32.4599050
  30.8245750   8.8721930  33.1372470  30.5432970   7.9050950  32.0069900
  31.4535610   6.6694900  31.1776500  32.0957840   5.9688060  31.2908670
  31.9784960   7.4493340  30.9973390  35.2991330   6.9543520  20.9015640
  35.0728910   6.2373960  21.4940280  34.9087530   6.7055960  20.0637390
  33.2273230   7.4689800  34.3812560  33.5629470   8.0556490  35.0590480
  32.3073570   7.3382510  34.6110350  21.0807360  10.9810380  21.6760100
  21.4405000  11.5799720  21.0217370  20.9399700  11.5270270  22.4495130
  34.8807580   4.8715460  22.5629800  34.5929280   5.3328150  23.3507680
  35.6759750   4.4113230  22.8314020  21.0649220   9.2465240  36.1502500
  21.1740340   8.3059980  36.0097890  20.4129780   9.5119990  35.5016230
  27.0975980   8.3641580  22.4933770  27.0886080   9.0971270  21.8778280
  26.1774340   8.1173160  22.5860730  22.6982620   3.5856470  23.2380530
  22.0910570   4.3255370  23.2475830  23.1731970   3.6755830  22.4118730
  30.0835580   8.4269820  21.1558960  30.1847560   8.2233810  20.2260940
  29.1837320   8.1728100  21.3606740  28.7253690  10.9456140  25.8506630
  28.9795190  10.9077530  24.9286000  27.7766170  10.8189470  25.8434880
  24.7087910   3.5467620  20.9869100  25.4751180   3.4348980  21.5494530
  24.7862600   2.8505590  20.3345870  36.7331850   9.0356870  29.1019400
  36.8579270   9.8588040  29.5743210  37.5997410   8.8247600  28.7543550
  24.2049380  11.1288080  28.7736530  24.9411860  10.5803540  29.0445100
  24.5890300  11.9944090  28.6342520  21.0894860   7.1961650  24.6478040
  20.1634640   7.4382790  24.6383450  21.5551290   8.0235910  24.5262790
  27.3151690  10.3018390  20.5962100  28.1080300  10.5907220  20.1443890
  26.7956040   9.8710560  19.9174580  33.4772660  10.1494310  36.5206930
  34.4294410  10.0652330  36.4707170  33.3300880  10.8136020  37.1940720
  36.3681860   9.5288520  22.0198840  36.0823370   9.1153660  21.2053020
  36.1701410  10.4576230  21.8999360  20.9305470   2.8007610  36.9058160
  21.4344490   2.2214890  37.4774390  20.1912890   3.0847840  37.4434530
  27.8329090   5.5221800  20.4604450  27.7279730   4.9074150  21.1865830
  27.6653310   4.9987690  19.6767460  27.9843410   4.2078600  36.4393680
  27.2189080   4.7763600  36.3548350  28.1659370   3.9154810  35.5461910
  31.0731820   4.5841830  21.0646440  30.5241920   5.0311130  21.7089180
  31.6951080   4.0791080  21.5884110  35.1266760   5.9383930  36.9968700
  35.8676230   6.2759690  36.4936160  34.3639440   6.1075990  36.4438470
  26.7406940   3.5432750  22.9611740  27.1623360   3.3772620  23.8043130
  26.8657780   2.7332980  22.4666880  29.2534580   2.5670360  20.2088840
  29.7740240   1.8519380  19.8429990  29.9002980   3.2056230  20.5089350
  33.8012420   3.9898760  35.5323910  34.2153440   4.1443840  36.3814330
  32.8663420   4.1153980  35.6949690  28.5627650   3.9419240  33.5019840
  28.9815760   4.7851970  33.3296080  27.6436280   4.0791280  33.2726620
  33.2379450   2.2272610  33.4620190  32.7114670   2.7515230  32.8585330
  33.5810790   2.8600000  34.0929920  26.4135070  10.2472250  34.6177570
  25.8756160  10.9718310  34.2986270  26.6669030   9.7702590  33.8274910
  29.2697280  11.4823460  34.8764220  29.1955980  12.3858600  35.1836590
  28.3676120  11.1635360  34.8486290  29.8182610  10.6481970  22.4990580
  30.7133400  10.9866940  22.5209340  29.8500240   9.9261380  21.8714860
  23.4578770   6.0209020  20.7277580  23.8953640   6.5638690  21.3835160
  23.9426500   5.1955970  20.7373920  20.6724570   8.8098050  28.1797840
  21.0027580   7.9419110  27.9476480  21.1015570   9.0156570  29.0102800
  25.2686490   7.1407060  25.8399810  24.9682030   7.0172030  26.7403720
  25.1623980   6.2815650  25.4315540  21.1614780   9.6768640  30.9179470
  20.7245770   9.8569440  31.7503620  21.7292460  10.4343260  30.7761190
  36.7976960   9.1785640  35.2056780  36.1978950   9.2378200  34.4620700
  36.9270860   8.2390620  35.3353630  38.0378410   6.9203460  20.5426490
  37.2071370   6.9880110  21.0133720  38.2150240   7.8107580  20.2393350
  37.4934870   3.6650940  23.0460690  38.2553780   4.2347590  23.1520380
  37.5089240   3.0978140  23.8169000  20.9939210   2.1888870  27.2768350
  20.3388050   1.9200510  26.6328050  21.8317160   2.0793350  26.8270330
  35.4828600   5.9037620  33.3032940  34.6688440   6.3334780  33.5658730
  35.8902800   6.5156030  32.6901990  37.5454040   3.9585310  20.2033210
  37.8202880   4.8664190  20.0752430  37.3564780   3.8947840  21.1395200
  22.0315140   2.5741440  31.8171690  22.3988180   2.4868840  32.6967710
  21.4625960   1.8107990  31.7178550  35.5404650  10.6556220  26.8301210
  36.1363720  10.3340790  26.1535630  35.7982800  10.1828040  27.6214480
  23.4467220   7.0874130  36.9791840  23.4036850   6.7167040  37.8606300
  23.5778230   8.0251700  37.1193660  27.1473250   8.6433720  32.5801560
  26.9064610   8.9108280  31.6932080  28.0875890   8.8139450  32.6352420
  23.2855250  10.0336380  34.0989620  22.6915570   9.9021080  34.8379660
  23.2779090   9.1974520  33.6331720  36.0916860  11.3051520  30.6598940
  35.6319830  12.0567330  30.2856960  35.4629320  10.5857990  30.6013740
  22.9167480   7.3994760  33.0497660  22.1901540   6.7800050  32.9823610
  22.9776630   7.7935370  32.1795740  26.5212580   9.6139760  29.8347070
  27.0377600   9.0027120  29.3095330  27.1709960  10.1168540  30.3258080
  29.2608080  10.5048250  30.6616050  29.5485890  10.2502550  29.7849060
  29.7731300   9.9525610  31.2521620  21.1997480  10.7169150  26.2594420
  21.0319520  10.0839830  26.9576310  20.3331990  10.9228550  25.9088610
  22.8060180   9.4102380  23.7044560  22.2807800   9.7910410  23.0006520
  22.7304760  10.0353150  24.4254270  37.5625500  10.9689920  25.0258500
  37.7377690  10.2827660  24.3819420  36.8647070  11.4936970  24.6335170
  25.4053150  11.3584760  22.5793810  26.1371970  11.0744040  22.0317700
  25.6646820  11.1198040  23.4693190  24.5667940   7.4749490  22.5840140
  23.9376820   7.9434590  23.1325970  24.6815770   6.6298710  23.0186330
  30.1535700   3.3034170  10.6150610  29.3777800   2.8234610  10.9049180
  30.8048630   2.6239820  10.4406770  24.1701530   3.6153980  11.4926370
  23.3386410   3.3602690  11.8922880  24.7782510   3.6864750  12.2284290
  34.1743130   7.7094360   9.3949740  33.7124660   6.9381600   9.7236910
  34.9868680   7.7360430   9.9002190  24.1502790   7.6494070  11.6884390
  24.4530830   6.7591810  11.5094610  24.8946380   8.2064290  11.4606640
  30.4006440   9.9952370   9.0153730  29.7817880  10.4509870   8.4448170
  31.2558220  10.1503830   8.6143430  29.5944690   5.9791360  10.6220770
  29.5252970   5.0381300  10.4609900  30.3564550   6.0692770  11.1943340
  31.2669790   4.8791610   6.4085640  30.6487060   5.3441060   5.8448360
  31.7793040   5.5719090   6.8255150  26.1301550   4.4067480  13.0869240
  25.7970930   5.0336400  13.7290310  26.3068230   4.9329360  12.3070910
  25.3420650   6.3748280  14.9018420  25.9594650   7.0499360  14.6202870
  24.4813770   6.7836260  14.8105920  20.6352990   5.5648140   3.7825270
  20.2580970   6.0535240   3.0510170  20.8926060   6.2373420   4.4131800
  36.2598240   7.8387690  12.8173060  35.5761760   8.5086800  12.8089730
  36.7992530   8.0368340  12.0517920  33.7956980   9.6831820  11.5318240
  33.8084140   9.2794110  10.6640500  33.2432200  10.4579110  11.4279670
  35.0902400   6.4048040   6.6208410  34.9798730   5.4622370   6.7457830
  35.0870650   6.7663680   7.5071170  33.1942420   4.5861660  12.8600850
  33.6111210   4.3721770  12.0254310  33.9182240   4.8434450  13.4309470
  30.6322680   2.0313360   5.9770900  29.7051960   1.9650740   6.2059370
  30.7847500   2.9693490   5.8626140  37.1404520   2.9848880  12.9517090
  36.3123150   3.0541970  12.4767220  37.7355000   3.5703190  12.4832920
  34.6619970   3.5933660   6.4806150  34.0432390   3.2553210   5.8332450
  34.6444420   2.9493420   7.1885340  26.2379320   2.5578100   8.7590630
  25.8336320   1.8455350   8.2636530  26.3242440   2.2131340   9.6478670
  26.7061020   6.2445660  10.9229840  26.4089310   5.6391130  10.2437620
  27.6560840   6.2822970  10.8119200  34.7946630   9.8177530  14.5852940
  34.3177190  10.6249720  14.3925550  34.1108420   9.1655860  14.7379150
  25.7979450   5.9827350  17.5737640  24.9007980   6.2067320  17.8211040
  25.8232320   6.1062290  16.6249040  32.8384670   2.8320470   3.4878900
  33.2777950   1.9942900   3.3416720  33.5513090   3.4649870   3.5743040
  24.6250670   2.8540670  16.1495010  24.4858440   3.7263470  16.5182410
  23.7432030   2.5113480  16.0042950  30.9480050   7.7716540   7.4560140
  31.3875960   8.5140870   7.0415530  30.8866940   8.0143110   8.3799100
  26.4231020   8.7962370  18.3580160  26.3946450   9.2005320  17.4908590
  26.2595990   7.8672730  18.1951760  20.5769320   4.6238220  12.0665920
  20.6549740   4.7586990  11.1221640  21.1911000   3.9154110  12.2594040
  21.8216950   6.3238410   8.4772100  21.4145030   6.4653000   7.6225700
  22.7129960   6.0398570   8.2743310  37.7779090   6.7702320  16.8144340
  37.9042150   6.5314200  15.8961520  37.8200470   5.9386860  17.2866420
  31.6395830  10.4730320  15.3839150  32.1540500  10.3838330  16.1861580
  30.7964910  10.8190020  15.6767060  33.6150230  10.7585660   4.8123150
  33.4551370  10.4688600   5.7104980  33.4496940   9.9825790   4.2768380
  26.0938610  10.5384190   6.5894770  25.9181090   9.6219730   6.3762570
  25.2394350  10.8971480   6.8292570  33.3176360   8.2673220   3.3721150
  32.6241520   8.2650510   2.7123430  34.0599220   7.8432540   2.9415320
  32.8826290   9.8935930   7.4469640  33.3383240   9.1125310   7.7608260
  33.2218810  10.6042750   7.9910820  20.6328840   5.6652390  14.6060380
  20.7959880   5.1957750  13.7879750  21.0981290   5.1575950  15.2709220
  22.2067820   5.0403820  16.7656190  21.8222610   4.3997490  17.3639150
  22.5180010   5.7439940  17.3350920  24.6746120   5.1349990   5.1615870
  23.9008380   4.5947610   5.0014590  25.4040750   4.6156600   4.8233630
  35.4334100   4.1315350  10.9542260  36.1533220   4.6270640  10.5638370
  35.2315920   3.4533240  10.3096130  30.8152900   4.2024410  16.8411260
  30.7490210   3.2820080  16.5868850  30.1858040   4.2999850  17.5555900
  24.7183520   4.8030370   8.7994680  25.2362190   3.9998630   8.7451570
  24.2667540   4.7409510   9.6411510  29.6053020   6.0696650   4.0721980
  29.9468720   6.8138880   3.5765300  28.7765730   6.3827770   4.4346810
  25.4041180   2.2275980  18.5959930  25.1041320   2.3733160  17.6987750
  26.1752420   1.6681270  18.5033320  30.7469630   7.0244980  16.5915060
  30.7614170   6.0925940  16.3733970  30.0394730   7.1104740  17.2304830
  36.9580840   3.6652320  15.9383640  36.2329030   4.2581100  15.7413030
  37.4856300   3.6575860  15.1397010  36.9093950   8.0627060   5.5895800
  36.2670110   7.4082680   5.8639520  36.5224610   8.4682150   4.8136470
  32.4880430   5.3912490   9.4367490  32.8404250   4.7940620   8.7768860
  31.6042760   5.0656720   9.6075740  28.5743710   6.1510180   6.8437900
  29.2614840   6.6979390   7.2245490  27.7876130   6.6950910   6.8787510
  20.7136110   1.7683000   2.3354980  21.5830960   2.0507800   2.6190900
  20.2226430   2.5818870   2.2203790  27.8770920   3.1556210   6.4563260
  28.3333700   3.9661460   6.6823450  27.5259130   2.8379350   7.2881750
  30.1803530   8.6662550  13.6855560  30.8245750   8.8721930  14.3628980
  30.5432970   7.9050950  13.2326410  31.4535610   6.6694900  12.4033010
  32.0957840   5.9688060  12.5165180  31.9784960   7.4493340  12.2229900
  33.2273230   7.4689800  15.6069070  33.5629470   8.0556490  16.2846990
  32.3073570   7.3382510  15.8366860  21.0807360  10.9810380   2.9016610
  21.4405000  11.5799720   2.2473880  20.9399700  11.5270270   3.6751640
  34.8807580   4.8715460   3.7886310  34.5929280   5.3328150   4.5764190
  35.6759750   4.4113230   4.0570530  21.0649220   9.2465240  17.3759010
  21.1740340   8.3059980  17.2354400  20.4129780   9.5119990  16.7272740
  29.0561810   7.5181130  18.7757130  28.7358680   6.7990370  19.3202820
  28.3820170   8.1936200  18.8493190  27.0975980   8.3641580   3.7190280
  27.0886080   9.0971270   3.1034790  26.1774340   8.1173160   3.8117240
  22.6982620   3.5856470   4.4637040  22.0910570   4.3255370   4.4732340
  23.1731970   3.6755830   3.6375240  30.0835580   8.4269820   2.3815470
  30.1847560   8.2233810   1.4517450  29.1837320   8.1728100   2.5863250
  28.7253690  10.9456140   7.0763140  28.9795190  10.9077530   6.1542510
  27.7766170  10.8189470   7.0691390  24.7087910   3.5467620   2.2125610
  25.4751180   3.4348980   2.7751040  24.7862600   2.8505590   1.5602380
  36.7331850   9.0356870  10.3275910  36.8579270   9.8588040  10.7999720
  37.5997410   8.8247600   9.9800060  24.2049380  11.1288080   9.9993040
  24.9411860  10.5803540  10.2701610  24.5890300  11.9944090   9.8599030
  21.0894860   7.1961650   5.8734550  20.1634640   7.4382790   5.8639960
  21.5551290   8.0235910   5.7519300  23.2107660  10.3134150  19.1878620
  24.0120390  10.6346200  19.6014020  22.6959480   9.9529730  19.9098530
  32.0472290   6.4214020  19.1354030  31.4410450   6.4445620  18.3949780
  31.7426400   5.6897060  19.6721280  33.4772660  10.1494310  17.7463440
  34.4294410  10.0652330  17.6963680  33.3300880  10.8136020  18.4197230
  36.3681860   9.5288520   3.2455350  36.0823370   9.1153660   2.4309530
  36.1701410  10.4576230   3.1255870  20.9305470   2.8007610  18.1314670
  21.4344490   2.2214890  18.7030900  20.1912890   3.0847840  18.6691040
  27.9843410   4.2078600  17.6650190  27.2189080   4.7763600  17.5804860
  28.1659370   3.9154810  16.7718420  31.0731820   4.5841830   2.2902950
  30.5241920   5.0311130   2.9345690  31.6951080   4.0791080   2.8140620
  35.1266760   5.9383930  18.2225210  35.8676230   6.2759690  17.7192670
  34.3639440   6.1075990  17.6694980  26.7406940   3.5432750   4.1868250
  27.1623360   3.3772620   5.0299640  26.8657780   2.7332980   3.6923390
  33.8012420   3.9898760  16.7580420  34.2153440   4.1443840  17.6070840
  32.8663420   4.1153980  16.9206200  28.5627650   3.9419240  14.7276350
  28.9815760   4.7851970  14.5552590  27.6436280   4.0791280  14.4983130
  33.2379450   2.2272610  14.6876700  32.7114670   2.7515230  14.0841840
  33.5810790   2.8600000  15.3186430  26.4135070  10.2472250  15.8434080
  25.8756160  10.9718310  15.5242780  26.6669030   9.7702590  15.0531420
  29.2697280  11.4823460  16.1020730  29.1955980  12.3858600  16.4093100
  28.3676120  11.1635360  16.0742800  29.8182610  10.6481970   3.7247090
  30.7133400  10.9866940   3.7465850  29.8500240   9.9261380   3.0971370
  23.4578770   6.0209020   1.9534090  23.8953640   6.5638690   2.6091670
  23.9426500   5.1955970   1.9630430  20.6724570   8.8098050   9.4054350
  21.0027580   7.9419110   9.1732990  21.1015570   9.0156570  10.2359310
  25.2686490   7.1407060   7.0656320  24.9682030   7.0172030   7.9660230
  25.1623980   6.2815650   6.6572050  21.1614780   9.6768640  12.1435980
  20.7245770   9.8569440  12.9760130  21.7292460  10.4343260  12.0017700
  36.7976960   9.1785640  16.4313290  36.1978950   9.2378200  15.6877210
  36.9270860   8.2390620  16.5610140  38.0378410   6.9203460   1.7683000
  37.2071370   6.9880110   2.2390230  38.2150240   7.8107580   1.4649860
  37.4934870   3.6650940   4.2717200  38.2553780   4.2347590   4.3776890
  37.5089240   3.0978140   5.0425510  20.9939210   2.1888870   8.5024860
  20.3388050   1.9200510   7.8584560  21.8317160   2.0793350   8.0526840
  35.4828600   5.9037620  14.5289450  34.6688440   6.3334780  14.7915240
  35.8902800   6.5156030  13.9158500  22.0315140   2.5741440  13.0428200
  22.3988180   2.4868840  13.9224220  21.4625960   1.8107990  12.9435060
  35.5404650  10.6556220   8.0557720  36.1363720  10.3340790   7.3792140
  35.7982800  10.1828040   8.8470990  23.4467220   7.0874130  18.2048350
  23.4036850   6.7167040  19.0862810  23.5778230   8.0251700  18.3450170
  27.1473250   8.6433720  13.8058070  26.9064610   8.9108280  12.9188590
  28.0875890   8.8139450  13.8608930  23.2855250  10.0336380  15.3246130
  22.6915570   9.9021080  16.0636170  23.2779090   9.1974520  14.8588230
  36.0916860  11.3051520  11.8855450  35.6319830  12.0567330  11.5113470
  35.4629320  10.5857990  11.8270250  22.9167480   7.3994760  14.2754170
  22.1901540   6.7800050  14.2080120  22.9776630   7.7935370  13.4052250
  26.5212580   9.6139760  11.0603580  27.0377600   9.0027120  10.5351840
  27.1709960  10.1168540  11.5514590  29.2608080  10.5048250  11.8872560
  29.5485890  10.2502550  11.0105570  29.7731300   9.9525610  12.4778130
  21.1997480  10.7169150   7.4850930  21.0319520  10.0839830   8.1832820
  20.3331990  10.9228550   7.1345120  22.8060180   9.4102380   4.9301070
  22.2807800   9.7910410   4.2263030  22.7304760  10.0353150   5.6510780
  29.3280440  11.4264350  19.2540760  30.2547750  11.1908620  19.2976720
  29.3130870  12.2536350  18.7726790  37.5625500  10.9689920   6.2515010
  37.7377690  10.2827660   5.6075930  36.8647070  11.4936970   5.8591680
  25.4053150  11.3584760   3.8050320  26.1371970  11.0744040   3.2574210
  25.6646820  11.1198040   4.6949700  24.5667940   7.4749490   3.8096650
  23.9376820   7.9434590   4.3582480  24.6815770   6.6298710   4.2442840
  35.8958000  10.6534210  19.0781800  36.6883320  10.1583440  18.8707760
  36.1891150  11.3324350  19.6857410  13.2474170  39.0742130  27.5084830
  13.1668220  38.1596740  27.2376540  12.8338590  39.5709200  26.8024540
   3.8049990  36.1242850  24.0512250   2.9166690  36.4658820  23.9492130
   4.0891180  35.9243170  23.1593080   1.7683000  38.7248500  29.9351950
   2.3399110  37.9570700  29.9355590   1.7684540  39.0237260  29.0258560
   3.0107870  34.1332860  31.7220880   2.8310710  33.2358610  32.0023640
   2.6087950  34.6804730  32.3967830  11.8506370  36.3348720  29.6233190
  12.2271190  35.4620600  29.5106860  11.7525880  36.6707420  28.7323630
   5.9811380  34.7074350  25.0850630   6.0878130  35.6078080  25.3919390
   5.0703740  34.6592320  24.7945280  15.6330490  33.8299160  26.5561530
  16.4540110  33.3395730  26.5987010  15.6664570  34.4196820  27.3093370
   3.6294540  36.6293360  30.3303220   4.3104650  36.8931730  30.9490620
   3.3142590  35.7894230  30.6641230   7.8219110  37.6760720  29.4175810
   8.3297330  38.1741690  30.0580830   8.3532350  36.8995920  29.2415170
  19.9230040  35.8465910  33.1205160  19.2182210  36.2347620  32.6020270
  20.1887960  36.5416200  33.7226090   6.1055210  32.3159280  33.6839230
   6.1073650  32.8331670  32.8785130   5.2759520  31.8389460  33.6609160
  15.8691970  35.7699540  29.3289070  15.1647540  36.0584430  29.9092180
  16.2304130  36.5799650  28.9688630   5.7870540  34.0269240  31.6909680
   6.1287350  34.8711290  31.3963550   4.8486350  34.1752980  31.8075020
  18.9378890  35.2154330  29.7198280  17.9903800  35.2493310  29.8513710
  19.2628880  36.0293280  30.1047640   9.4698430  31.5151510  28.0154270
   9.7773410  30.9598400  27.2989770   8.5399130  31.6495970  27.8327260
  11.8579190  39.5800340  24.7514390  10.9308470  39.5137720  24.9802860
  12.0104010  40.5180470  24.6369630  11.8448270  35.8517340  21.7481550
  10.9051940  36.0131300  21.8334010  12.1631530  36.5703020  21.2017540
  15.3303040  37.3205180  32.6715450  14.9174220  38.1458890  32.9255440
  14.5978990  36.7350220  32.4791810   7.4635830  40.1065080  27.5334120
   7.0592830  39.3942330  27.0380020   7.5498950  39.7618320  28.4222160
   6.1764450  36.8808290  31.3133160   6.7279040  36.9903630  30.5386410
   6.6907960  37.2545890  32.0288390  17.6458320  31.6350260  20.5763430
  17.3330980  31.7277090  21.4762500  18.4070790  32.2131290  20.5260860
   4.1640460  39.0010060  25.0340770   4.0438060  39.7272150  24.4222040
   3.8541350  38.2312970  24.5568680  18.8559610  36.3721760  36.5537570
  18.2403880  36.8801430  36.0253030  18.5356030  35.4720090  36.4963510
   6.6304120  32.3445130  28.4164440   6.1872270  33.1254670  28.0848960
   7.1889110  32.6675020  29.1235380  10.9173930  35.2113650  34.0199760
  10.4553300  35.4196670  34.8319700  10.5152040  34.3973000  33.7170430
  15.9178440  36.4322600  35.1496420  15.0672030  36.1328350  35.4705490
  15.7580230  36.6764610  34.2380240  13.0128150  37.9324350  37.2495210
  13.3381560  37.0988100  36.9097440  13.8008480  38.4552870  37.3973540
   9.7462940  31.9655830  23.2970270   9.1217120  31.9615700  24.0223580
   9.6593060  31.0986790  22.9006240   8.6680020  32.8892460  30.2754040
   8.9652350  33.7955290  30.1946060   9.2165580  32.4011240  29.6613610
   6.4218340  37.4678700  26.1445690   6.1959260  37.2515870  27.0492310
   5.6410870  37.9007160  25.7991660  13.6516100  37.4742070  24.7436340
  13.0524990  38.1977870  24.5599960  14.1995710  37.4118850  23.9612790
   8.8617550  38.3664280  36.8105960   8.7661150  37.4259010  36.6606360
   9.7049530  38.5879350  36.4154030  12.2580970  36.1105610  26.7739620
  12.6510540  36.4277810  25.9608310  12.6197820  35.2317490  26.8884140
   3.9928090  34.7777950  34.9639740   3.5991480  35.6253160  35.1712520
   3.3046490  34.1404320  35.1548380  12.8436110  38.7011360  30.8690400
  12.1117230  39.2098170  31.2180500  12.4460450  37.8841340  30.5679180
   9.2813500  35.3765560  29.2742890   9.2849560  34.9355510  28.4247430
  10.1764620  35.6982890  29.3814710   5.1315880  35.2592050  28.2337100
   4.7915930  35.7367280  28.9904150   4.3693200  34.8057170  27.8738200
   9.3433650  36.3777640  22.2649650   9.4646470  36.3364120  23.2135470
   8.9582160  37.2401790  22.1096380  13.3062020  34.1545040  30.2813340
  13.3234760  34.6053690  31.1255190  13.0577600  33.2550680  30.4946780
   8.3555150  38.6878780  21.6632950   7.7872050  38.2397030  21.0368860
   9.0644150  39.0471560  21.1298100  16.7332770  31.5677220  36.1199720
  17.0578540  30.8366880  36.6457700  16.7689280  31.2490860  35.2180710
   9.5821470  39.4367340  31.0208300   9.9491600  38.9625910  31.7669640
   9.3926530  40.3108910  31.3616640   2.4461960  34.1811030  27.1501770
   2.1608880  33.8166700  27.9880390   2.3840820  33.4491490  26.5364910
   7.3720840  38.4775980  33.3392510   7.0677910  39.3567960  33.5642870
   8.3267300  38.5375770  33.3749950  12.1200550  33.0740290  23.8715140
  11.3065160  32.5753460  23.7960450  11.9262500  33.9138540  23.4551490
  14.8348940  37.4459940  22.1677300  15.7228560  37.7577170  21.9928640
  14.8054030  36.5732190  21.7757880   3.4284570  39.3178720  34.4863870
   3.0699510  39.9832570  35.0737210   3.1339130  38.4862270  34.8576490
   6.6297690  39.7762960  37.3703420   6.3297830  39.9220140  36.4731240
   7.4008930  39.2168250  37.2776810  17.1063210  38.7571780  21.6357160
  17.0226930  39.1886000  20.7853600  17.8257400  39.2170130  22.0683980
   1.9392620  39.3169980  21.1098470   2.8087470  39.5994780  21.3934390
   1.4482940  40.1305850  20.9947280   5.0039210  31.0480840  25.7029270
   4.8753840  31.0398740  26.6514190   4.1801230  31.3863930  25.3520280
  13.4971920  35.2994270  32.9137420  13.8652740  34.4789480  33.2416990
  12.6370120  35.3596160  33.3293070  16.8633950  34.2551210  23.7224980
  16.2347110  34.3596880  23.0083210  16.3685870  34.4747990  24.5118860
   8.8317980  36.5337160  25.1382860   8.1234130  37.0023500  25.5796470
   9.1162460  35.8759170  25.7728050  10.4573910  37.9533860  33.1375390
  10.9559160  38.4279680  33.8027240  10.5996860  37.0297380  33.3445420
  12.8633410  33.2587820  26.5778650  12.7401190  33.2773950  25.6288160
  13.8117970  33.3066760  26.6977050   7.0353000  34.8422240  22.5133570
   7.8843530  35.2792390  22.4473760   6.6684270  35.1542500  23.3405630
  17.6640770  34.1701820  33.9803780  17.1614370  34.9107220  34.3197590
  18.4797430  34.5585820  33.6640570  15.9562780  39.4135000  27.4265140
  15.0152920  39.4285230  27.6012830  16.2706850  38.6270960  27.8725440
   4.6291180  38.5279670  21.6701990   4.7094770  37.5807180  21.7819390
   5.5210930  38.8586550  21.7762650   2.1561980  40.3494590  36.9058160
   2.6601000  39.7701870  37.4774390   1.4169400  40.6334820  37.4434530
   6.1290870  37.0716280  35.7682720   5.5987330  36.5807230  35.1406060
   6.7978940  37.5000480  35.2340650  15.4991100  38.8781900  37.5363060
  16.0811870  38.1234220  37.4483540  15.6752870  39.4089340  36.7594540
   6.6163170  34.0378650  35.8480010   6.5220040  33.4199400  35.1230880
   6.0360560  34.7644940  35.6209920   9.3824610  32.5951890  32.8807400
   8.9341910  32.6176150  32.0352950   8.7489810  32.1970910  33.4777700
  12.1248060  39.2222400  34.8857680  12.2444270  38.6263540  35.6252520
  12.9842060  39.2592090  34.4658980  14.4635960  39.7759590  33.4620190
  13.9371180  40.3002210  32.8585330  14.8067300  40.4086980  34.0929920
   6.8622350  37.1652960  19.9069900   6.6611410  36.3020320  20.2683240
   6.6914400  37.0786320  18.9691500   8.8916830  35.7643750  36.1433500
   9.4816520  35.4559600  36.8311320   8.0737070  35.2923500  36.2993400
  13.7110260  35.3809560  36.3766520  13.0225780  34.7191100  36.3116510
  14.4316280  34.9347830  36.8214980  14.3410660  31.9761190  22.4356780
  14.6212950  31.1329090  22.7916200  13.5676390  32.2084300  22.9495530
   5.6605150  34.2653580  19.8947780   5.9631050  34.2721010  18.9866930
   6.3999740  33.9151440  20.3915440   8.8790080  33.2088200  20.8803980
   8.5312080  32.5312190  20.3006430   9.0802850  32.7477710  21.6947370
   2.2195720  39.7375850  27.2768350   1.5644560  39.4687490  26.6328050
   3.0573670  39.6280330  26.8270330  15.1686160  34.5317140  21.4986840
  15.5871040  34.3448120  20.6583500  14.8622220  33.6796190  21.8089770
  18.6675890  39.4441280  25.1962640  18.2919490  38.6769210  24.7643930
  17.9379010  39.8263980  25.6837570   3.2571650  40.1228420  31.8171690
   3.6244690  40.0355820  32.6967710   2.6882470  39.3594970  31.7178550
  18.0575510  38.5912800  34.8302160  17.8261600  38.3625550  33.9300110
  18.3180060  39.5112350  34.7847050   2.8087650  37.0337510  35.7230110
   1.9143700  37.0004270  36.0623820   3.3485200  37.2324300  36.4881360
  16.4963580  33.8169230  37.6081860  17.3733760  33.8252630  37.9915860
  16.5084420  33.0800070  36.9974210  17.9426850  37.6698770  28.4969880
  18.4664330  37.1761420  27.8660050  18.5286270  37.8049130  29.2417450
  18.1216570  37.7538640  32.0189430  17.1719280  37.7202180  32.1334420
  18.3029580  38.6638750  31.7839200   3.9761010  36.0040320  21.1288060
   4.6852710  35.5823540  20.6435340   3.2600950  36.0715550  20.4971410
   3.6235170  32.0579650  20.1690710   4.3463300  32.5988590  20.4871930
   3.8959690  31.7843070  19.2932250  17.4326820  36.9272120  24.4362290
  17.9285940  36.6942990  25.2211170  17.2342890  36.0883960  24.0199930
   3.3127360  31.3085840  30.0713330   3.9603550  30.7583220  29.6308490
   3.7329200  31.5628990  30.8929140  18.8613980  35.5633070  26.9699970
  18.7513260  35.4089110  27.9082240  19.6221570  35.0354010  26.7275380
  17.2079700  31.5027200  33.4282970  17.8451920  32.1161340  33.7942160
  17.3554590  31.5387860  32.4832200  19.7504250  33.3940990  20.2106110
  20.6753560  33.2622170  20.0024400  19.7280040  33.4733810  21.1642560
  19.8242740  34.1651650  22.8362820  19.0294240  34.0996770  23.3655730
  20.0286020  35.1002290  22.8248170   3.0659360  31.4641510  32.8138650
   2.7174180  31.9205330  33.5796830   2.7347060  30.5698640  32.8961080
  10.5784180  32.6553390  36.3358070  10.5173070  33.2475220  37.0853480
  11.5184560  32.5479350  36.1908330  13.2158740  32.3123450  35.9750360
  13.8299150  32.6302740  35.3131440  13.7608300  31.8272040  36.5946220
   3.7380000  30.9917710  36.0889420   4.2862990  30.8105760  35.3255530
   3.8035310  30.2011820  36.6245730  13.9566780  30.8755590  32.3019650
  13.0826620  31.2090700  32.0992580  13.8477530  30.4028770  33.1271520
  14.8638760  33.0826460  33.6861370  14.5352120  32.2678220  33.3063100
  15.8121060  33.0396270  33.5627060  11.7041600  31.7925430  31.2412560
  10.9213390  32.2670930  31.5209320  11.4104530  30.8880260  31.1325740
  16.2562670  32.4948530  29.2861650  16.6970760  32.4393630  28.4383250
  15.9870260  33.4106540  29.3571830  18.1201240  32.1263770  27.2970470
  18.0589640  31.1824990  27.1501490  18.8993270  32.2343860  27.8423930
   3.0482010  32.0972910  23.7626280   3.8061370  32.2101790  23.1890310
   2.5859180  32.9342110  23.7169710   9.5895820  34.2112180  26.7528590
   8.7770330  33.8369070  26.4124470  10.0937460  33.4557260  27.0549780
  14.0920800  30.8754630  27.9911660  14.6950170  31.4474840  28.4660180
  13.3513790  31.4394070  27.7685560  17.2355400  31.2776190  23.2651940
  17.4306030  32.1759640  23.5319370  16.4485270  31.0463270  23.7584890
   5.4207160  32.6236960  22.3028250   5.9499920  31.8366760  22.1736200
   6.0535480  33.3028150  22.5363780   7.6145000  32.3612100  25.3573640
   6.9847740  31.6599410  25.5243770   7.0750140  33.1216230  25.1406800
   7.7400560  31.6396080  37.7926130   7.4584830  32.1429680  37.0286950
   8.1220260  30.8417830  37.4268260  13.2474170  39.0742130   8.7341340
  13.1668220  38.1596740   8.4633050  12.8338590  39.5709200   8.0281050
   3.8049990  36.1242850   5.2768760   2.9166690  36.4658820   5.1748640
   4.0891180  35.9243170   4.3849590   1.7683000  38.7248500  11.1608460
   2.3399110  37.9570700  11.1612100   1.7684540  39.0237260  10.2515070
   3.0107870  34.1332860  12.9477390   2.8310710  33.2358610  13.2280150
   2.6087950  34.6804730  13.6224340  11.8506370  36.3348720  10.8489700
  12.2271190  35.4620600  10.7363370  11.7525880  36.6707420   9.9580140
   5.9811380  34.7074350   6.3107140   6.0878130  35.6078080   6.6175900
   5.0703740  34.6592320   6.0201790  15.6330490  33.8299160   7.7818040
  16.4540110  33.3395730   7.8243520  15.6664570  34.4196820   8.5349880
   3.6294540  36.6293360  11.5559730   4.3104650  36.8931730  12.1747130
   3.3142590  35.7894230  11.8897740   7.8219110  37.6760720  10.6432320
   8.3297330  38.1741690  11.2837340   8.3532350  36.8995920  10.4671680
  19.9230040  35.8465910  14.3461670  19.2182210  36.2347620  13.8276780
  20.1887960  36.5416200  14.9482600   6.1055210  32.3159280  14.9095740
   6.1073650  32.8331670  14.1041640   5.2759520  31.8389460  14.8865670
  15.8691970  35.7699540  10.5545580  15.1647540  36.0584430  11.1348690
  16.2304130  36.5799650  10.1945140   5.7870540  34.0269240  12.9166190
   6.1287350  34.8711290  12.6220060   4.8486350  34.1752980  13.0331530
  18.9378890  35.2154330  10.9454790  17.9903800  35.2493310  11.0770220
  19.2628880  36.0293280  11.3304150   9.4698430  31.5151510   9.2410780
   9.7773410  30.9598400   8.5246280   8.5399130  31.6495970   9.0583770
  11.8579190  39.5800340   5.9770900  10.9308470  39.5137720   6.2059370
  12.0104010  40.5180470   5.8626140  11.8448270  35.8517340   2.9738060
  10.9051940  36.0131300   3.0590520  12.1631530  36.5703020   2.4274050
  15.3303040  37.3205180  13.8971960  14.9174220  38.1458890  14.1511950
  14.5978990  36.7350220  13.7048320   7.4635830  40.1065080   8.7590630
   7.0592830  39.3942330   8.2636530   7.5498950  39.7618320   9.6478670
   6.1764450  36.8808290  12.5389670   6.7279040  36.9903630  11.7642920
   6.6907960  37.2545890  13.2544900  17.6458320  31.6350260   1.8019940
  17.3330980  31.7277090   2.7019010  18.4070790  32.2131290   1.7517370
   4.1640460  39.0010060   6.2597280   4.0438060  39.7272150   5.6478550
   3.8541350  38.2312970   5.7825190  18.8559610  36.3721760  17.7794080
  18.2403880  36.8801430  17.2509540  18.5356030  35.4720090  17.7220020
   6.6304120  32.3445130   9.6420950   6.1872270  33.1254670   9.3105470
   7.1889110  32.6675020  10.3491890  10.9173930  35.2113650  15.2456270
  10.4553300  35.4196670  16.0576210  10.5152040  34.3973000  14.9426940
  15.9178440  36.4322600  16.3752930  15.0672030  36.1328350  16.6962000
  15.7580230  36.6764610  15.4636750  13.0128150  37.9324350  18.4751720
  13.3381560  37.0988100  18.1353950  13.8008480  38.4552870  18.6230050
   9.7462940  31.9655830   4.5226780   9.1217120  31.9615700   5.2480090
   9.6593060  31.0986790   4.1262750   8.6680020  32.8892460  11.5010550
   8.9652350  33.7955290  11.4202570   9.2165580  32.4011240  10.8870120
   6.4218340  37.4678700   7.3702200   6.1959260  37.2515870   8.2748820
   5.6410870  37.9007160   7.0248170  13.6516100  37.4742070   5.9692850
  13.0524990  38.1977870   5.7856470  14.1995710  37.4118850   5.1869300
   8.8617550  38.3664280  18.0362470   8.7661150  37.4259010  17.8862870
   9.7049530  38.5879350  17.6410540  12.2580970  36.1105610   7.9996130
  12.6510540  36.4277810   7.1864820  12.6197820  35.2317490   8.1140650
   3.9928090  34.7777950  16.1896250   3.5991480  35.6253160  16.3969030
   3.3046490  34.1404320  16.3804890  10.5673140  34.8612920  19.2592990
   9.8771460  34.6685120  19.8939080  11.3105440  35.1447560  19.7917290
  12.8436110  38.7011360  12.0946910  12.1117230  39.2098170  12.4437010
  12.4460450  37.8841340  11.7935690   9.2813500  35.3765560  10.4999400
   9.2849560  34.9355510   9.6503940  10.1764620  35.6982890  10.6071220
   5.1315880  35.2592050   9.4593610   4.7915930  35.7367280  10.2160660
   4.3693200  34.8057170   9.0994710   9.3433650  36.3777640   3.4906160
   9.4646470  36.3364120   4.4391980   8.9582160  37.2401790   3.3352890
  13.3062020  34.1545040  11.5069850  13.3234760  34.6053690  12.3511700
  13.0577600  33.2550680  11.7203290   8.3555150  38.6878780   2.8889460
   7.7872050  38.2397030   2.2625370   9.0644150  39.0471560   2.3554610
  16.7332770  31.5677220  17.3456230  17.0578540  30.8366880  17.8714210
  16.7689280  31.2490860  16.4437220   9.5821470  39.4367340  12.2464810
   9.9491600  38.9625910  12.9926150   9.3926530  40.3108910  12.5873150
   2.4461960  34.1811030   8.3758280   2.1608880  33.8166700   9.2136900
   2.3840820  33.4491490   7.7621420   7.3720840  38.4775980  14.5649020
   7.0677910  39.3567960  14.7899380   8.3267300  38.5375770  14.6006460
  12.1200550  33.0740290   5.0971650  11.3065160  32.5753460   5.0216960
  11.9262500  33.9138540   4.6808000  14.8348940  37.4459940   3.3933810
  15.7228560  37.7577170   3.2185150  14.8054030  36.5732190   3.0014390
   3.4284570  39.3178720  15.7120380   3.0699510  39.9832570  16.2993720
   3.1339130  38.4862270  16.0833000   6.6297690  39.7762960  18.5959930
   6.3297830  39.9220140  17.6987750   7.4008930  39.2168250  18.5033320
  17.1063210  38.7571780   2.8613670  17.0226930  39.1886000   2.0110110
  17.8257400  39.2170130   3.2940490   1.9392620  39.3169980   2.3354980
   2.8087470  39.5994780   2.6190900   1.4482940  40.1305850   2.2203790
   5.0039210  31.0480840   6.9285780   4.8753840  31.0398740   7.8770700
   4.1801230  31.3863930   6.5776790  13.4971920  35.2994270  14.1393930
  13.8652740  34.4789480  14.4673500  12.6370120  35.3596160  14.5549580
  16.8633950  34.2551210   4.9481490  16.2347110  34.3596880   4.2339720
  16.3685870  34.4747990   5.7375370   8.8317980  36.5337160   6.3639370
   8.1234130  37.0023500   6.8052980   9.1162460  35.8759170   6.9984560
  10.4573910  37.9533860  14.3631900  10.9559160  38.4279680  15.0283750
  10.5996860  37.0297380  14.5701930  12.8633410  33.2587820   7.8035160
  12.7401190  33.2773950   6.8544670  13.8117970  33.3066760   7.9233560
   7.0353000  34.8422240   3.7390080   7.8843530  35.2792390   3.6730270
   6.6684270  35.1542500   4.5662140  17.6640770  34.1701820  15.2060290
  17.1614370  34.9107220  15.5454100  18.4797430  34.5585820  14.8897080
  15.9562780  39.4135000   8.6521650  15.0152920  39.4285230   8.8269340
  16.2706850  38.6270960   9.0981950   4.6291180  38.5279670   2.8958500
   4.7094770  37.5807180   3.0075900   5.5210930  38.8586550   3.0019160
   2.1561980  40.3494590  18.1314670   2.6601000  39.7701870  18.7030900
   1.4169400  40.6334820  18.6691040   4.1885060  38.4924180  19.0264740
   4.2290400  38.1938050  19.9349970   5.0430560  38.8931790  18.8672260
   6.1290870  37.0716280  16.9939230   5.5987330  36.5807230  16.3662570
   6.7978940  37.5000480  16.4597160  15.4991100  38.8781900  18.7619570
  16.0811870  38.1234220  18.6740050  15.6752870  39.4089340  17.9851050
   6.6163170  34.0378650  17.0736520   6.5220040  33.4199400  16.3487390
   6.0360560  34.7644940  16.8466430   9.3824610  32.5951890  14.1063910
   8.9341910  32.6176150  13.2609460   8.7489810  32.1970910  14.7034210
  12.1248060  39.2222400  16.1114190  12.2444270  38.6263540  16.8509030
  12.9842060  39.2592090  15.6915490  14.4635960  39.7759590  14.6876700
  13.9371180  40.3002210  14.0841840  14.8067300  40.4086980  15.3186430
   8.8916830  35.7643750  17.3690010   9.4816520  35.4559600  18.0567830
   8.0737070  35.2923500  17.5249910  13.7110260  35.3809560  17.6023030
  13.0225780  34.7191100  17.5373020  14.4316280  34.9347830  18.0471490
  14.3410660  31.9761190   3.6613290  14.6212950  31.1329090   4.0172710
  13.5676390  32.2084300   4.1752040   8.8790080  33.2088200   2.1060490
   8.5312080  32.5312190   1.5262940   9.0802850  32.7477710   2.9203880
   2.2195720  39.7375850   8.5024860   1.5644560  39.4687490   7.8584560
   3.0573670  39.6280330   8.0526840  15.1686160  34.5317140   2.7243350
  15.5871040  34.3448120   1.8840010  14.8622220  33.6796190   3.0346280
  18.6675890  39.4441280   6.4219150  18.2919490  38.6769210   5.9900440
  17.9379010  39.8263980   6.9094080   3.2571650  40.1228420  13.0428200
   3.6244690  40.0355820  13.9224220   2.6882470  39.3594970  12.9435060
  18.0575510  38.5912800  16.0558670  17.8261600  38.3625550  15.1556620
  18.3180060  39.5112350  16.0103560   2.8087650  37.0337510  16.9486620
   1.9143700  37.0004270  17.2880330   3.3485200  37.2324300  17.7137870
  16.4963580  33.8169230  18.8338370  17.3733760  33.8252630  19.2172370
  16.5084420  33.0800070  18.2230720  17.9426850  37.6698770   9.7226390
  18.4664330  37.1761420   9.0916560  18.5286270  37.8049130  10.4673960
  18.1216570  37.7538640  13.2445940  17.1719280  37.7202180  13.3590930
  18.3029580  38.6638750  13.0095710   3.9761010  36.0040320   2.3544570
   4.6852710  35.5823540   1.8691850   3.2600950  36.0715550   1.7227920
  17.4326820  36.9272120   5.6618800  17.9285940  36.6942990   6.4467680
  17.2342890  36.0883960   5.2456440   3.3127360  31.3085840  11.2969840
   3.9603550  30.7583220  10.8565000   3.7329200  31.5628990  12.1185650
  18.8613980  35.5633070   8.1956480  18.7513260  35.4089110   9.1338750
  19.6221570  35.0354010   7.9531890  17.2079700  31.5027200  14.6539480
  17.8451920  32.1161340  15.0198670  17.3554590  31.5387860  13.7088710
  19.8242740  34.1651650   4.0619330  19.0294240  34.0996770   4.5912240
  20.0286020  35.1002290   4.0504680   3.0659360  31.4641510  14.0395160
   2.7174180  31.9205330  14.8053340   2.7347060  30.5698640  14.1217590
  10.5784180  32.6553390  17.5614580  10.5173070  33.2475220  18.3109990
  11.5184560  32.5479350  17.4164840  13.2158740  32.3123450  17.2006870
  13.8299150  32.6302740  16.5387950  13.7608300  31.8272040  17.8202730
   3.7380000  30.9917710  17.3145930   4.2862990  30.8105760  16.5512040
   3.8035310  30.2011820  17.8502240  13.9566780  30.8755590  13.5276160
  13.0826620  31.2090700  13.3249090  13.8477530  30.4028770  14.3528030
  14.8638760  33.0826460  14.9117880  14.5352120  32.2678220  14.5319610
  15.8121060  33.0396270  14.7883570  11.7041600  31.7925430  12.4669070
  10.9213390  32.2670930  12.7465830  11.4104530  30.8880260  12.3582250
  16.2562670  32.4948530  10.5118160  16.6970760  32.4393630   9.6639760
  15.9870260  33.4106540  10.5828340  18.1201240  32.1263770   8.5226980
  18.0589640  31.1824990   8.3758000  18.8993270  32.2343860   9.0680440
   3.0482010  32.0972910   4.9882790   3.8061370  32.2101790   4.4146820
   2.5859180  32.9342110   4.9426220   9.5895820  34.2112180   7.9785100
   8.7770330  33.8369070   7.6380980  10.0937460  33.4557260   8.2806290
  14.0920800  30.8754630   9.2168170  14.6950170  31.4474840   9.6916690
  13.3513790  31.4394070   8.9942070  17.2355400  31.2776190   4.4908450
  17.4306030  32.1759640   4.7575880  16.4485270  31.0463270   4.9841400
   5.4207160  32.6236960   3.5284760   5.9499920  31.8366760   3.3992710
   6.0535480  33.3028150   3.7620290   7.6145000  32.3612100   6.5830150
   6.9847740  31.6599410   6.7500280   7.0750140  33.1216230   6.3663310
   7.7400560  31.6396080  19.0182640   7.4584830  32.1429680  18.2543460
   8.1220260  30.8417830  18.6524770  14.3416020  31.0549660  19.5963110
  14.2281470  31.3744270  20.4914630  15.1585760  31.4562170  19.3000390
  13.2474170  20.2998640  27.5084830  13.1668220  19.3853250  27.2376540
  12.8338590  20.7965710  26.8024540  11.3792210  22.0777660  29.3894100
  10.6034310  21.5978100  29.6792670  12.0305140  21.3983310  29.2150260
   5.3958040  22.3897470  30.2669860   4.5642920  22.1346180  30.6666370
   6.0039020  22.4608240  31.0027780  15.3999640  26.4837850  28.1693230
  14.9381170  25.7125090  28.4980400  16.2125190  26.5103920  28.6745680
   5.3759300  26.4237560  30.4627880   5.6787340  25.5335300  30.2838100
   6.1202890  26.9807780  30.2350130   3.8049990  17.3499360  24.0512250
   2.9166690  17.6915330  23.9492130   4.0891180  17.1499680  23.1593080
   1.7683000  19.9505010  29.9351950   2.3399110  19.1827210  29.9355590
   1.7684540  20.2493770  29.0258560  11.6262950  28.7695860  27.7897220
  11.0074390  29.2253360  27.2191660  12.4814730  28.9247320  27.3886920
  10.8201200  24.7534850  29.3964260  10.7509480  23.8124790  29.2353390
  11.5821060  24.8436260  29.9686830   3.0107870  15.3589370  31.7220880
   2.8310710  14.4615120  32.0023640   2.6087950  15.9061240  32.3967830
  11.8506370  17.5605230  29.6233190  12.2271190  16.6877110  29.5106860
  11.7525880  17.8963930  28.7323630   5.9811380  15.9330860  25.0850630
   6.0878130  16.8334590  25.3919390   5.0703740  15.8848830  24.7945280
  15.6330490  15.0555670  26.5561530  16.4540110  14.5652240  26.5987010
  15.6664570  15.6453330  27.3093370   3.6294540  17.8549870  30.3303220
   4.3104650  18.1188240  30.9490620   3.3142590  17.0150740  30.6641230
   7.8219110  18.9017230  29.4175810   8.3297330  19.3998200  30.0580830
   8.3532350  18.1252430  29.2415170  19.9230040  17.0722420  33.1205160
  19.2182210  17.4604130  32.6020270  20.1887960  17.7672710  33.7226090
   6.1055210  13.5415790  33.6839230   6.1073650  14.0588180  32.8785130
   5.2759520  13.0645970  33.6609160  12.4926300  23.6535100  25.1829130
  11.8743570  24.1184550  24.6191850  13.0049550  24.3462580  25.5998640
   7.3558060  23.1810970  31.8612730   7.0227440  23.8079890  32.5033800
   7.5324740  23.7072850  31.0814400  15.8691970  16.9956050  29.3289070
  15.1647540  17.2840940  29.9092180  16.2304130  17.8056160  28.9688630
   5.7870540  15.2525750  31.6909680   6.1287350  16.0967800  31.3963550
   4.8486350  15.4009490  31.8075020   6.5677160  25.1491770  33.6761910
   7.1851160  25.8242850  33.3946360   5.7070280  25.5579750  33.5849410
   1.8609500  24.3391630  22.5568760   1.4837480  24.8278730  21.8253660
   2.1182570  25.0116910  23.1875290  17.4854750  26.6131180  31.5916550
  16.8018270  27.2830290  31.5833220  18.0249040  26.8111830  30.8261410
  18.9378890  16.4410840  29.7198280  17.9903800  16.4749820  29.8513710
  19.2628880  17.2549790  30.1047640   9.4698430  12.7408020  28.0154270
   9.7773410  12.1854910  27.2989770   8.5399130  12.8752480  27.8327260
  15.0213490  28.4575310  30.3061730  15.0340650  28.0537600  29.4383990
  14.4688710  29.2322600  30.2023160  16.3158910  25.1791530  25.3951900
  16.2055240  24.2365860  25.5201320  16.3127160  25.5407170  26.2814660
  14.4198930  23.3605150  31.6344340  14.8367720  23.1465260  30.7997800
  15.1438750  23.6177940  32.2052960  11.8579190  20.8056850  24.7514390
  10.9308470  20.7394230  24.9802860  12.0104010  21.7436980  24.6369630
  11.8448270  17.0773850  21.7481550  10.9051940  17.2387810  21.8334010
  12.1631530  17.7959530  21.2017540  18.3661030  21.7592370  31.7260580
  17.5379660  21.8285460  31.2510710  18.9611510  22.3446680  31.2576410
  15.8876480  22.3677150  25.2549640  15.2688900  22.0296700  24.6075940
  15.8700930  21.7236910  25.9628830  15.3303040  18.5461690  32.6715450
  14.9174220  19.3715400  32.9255440  14.5978990  17.9606730  32.4791810
   7.4635830  21.3321590  27.5334120   7.0592830  20.6198840  27.0380020
   7.5498950  20.9874830  28.4222160   7.9317530  25.0189150  29.6973330
   7.6345820  24.4134620  29.0181110   8.8817350  25.0566460  29.5862690
   6.1764450  18.1064800  31.3133160   6.7279040  18.2160140  30.5386410
   6.6907960  18.4802400  32.0288390  16.0203140  28.5921020  33.3596430
  15.5433700  29.3993210  33.1669040  15.3364930  27.9399350  33.5122640
   7.0235960  24.7570840  36.3481130   6.1264490  24.9810810  36.5954530
   7.0488830  24.8805780  35.3992530  14.0641180  21.6063960  22.2622390
  14.5034460  20.7686390  22.1160210  14.7769600  22.2393360  22.3486530
   5.8507180  21.6284160  34.9238500   5.7114950  22.5006960  35.2925900
   4.9688540  21.2856970  34.7786440  12.1736560  26.5460030  26.2303630
  12.6132470  27.2884360  25.8159020  12.1123450  26.7886600  27.1542590
   7.6487530  27.5705860  37.1323650   7.6202960  27.9748810  36.2652080
   7.4852500  26.6416220  36.9695250  17.6458320  12.8606770  20.5763430
  17.3330980  12.9533600  21.4762500  18.4070790  13.4387800  20.5260860
   4.1640460  20.2266570  25.0340770   4.0438060  20.9528660  24.4222040
   3.8541350  19.4569480  24.5568680   1.8025830  23.3981710  30.8409410
   1.8806250  23.5330480  29.8965130   2.4167510  22.6897600  31.0337530
   3.0473460  25.0981900  27.2515590   2.6401540  25.2396490  26.3969190
   3.9386470  24.8142060  27.0486800  19.0035600  25.5445810  35.5887830
  19.1298660  25.3057690  34.6705010  19.0456980  24.7130350  36.0609910
  12.8652340  29.2473810  34.1582640  13.3797010  29.1581820  34.9605070
  12.0221420  29.5933510  34.4510550  14.8406740  29.5329150  23.5866640
  14.6807880  29.2432090  24.4848470  14.6753450  28.7569280  23.0511870
   7.3195120  29.3127680  25.3638260   7.1437600  28.3963220  25.1506060
   6.4650860  29.6714970  25.6036060  14.5432870  27.0416710  22.1464640
  13.8498030  27.0394000  21.4866920  15.2855730  26.6176030  21.7158810
  14.1082800  28.6679420  26.2213130  14.5639750  27.8868800  26.5351750
  14.4475320  29.3786240  26.7654310  18.8559610  17.5978270  36.5537570
  18.2403880  18.1057940  36.0253030  18.5356030  16.6976600  36.4963510
   1.8585350  24.4395880  33.3803870   2.0216390  23.9701240  32.5623240
   2.3237800  23.9319440  34.0452710   6.6304120  13.5701640  28.4164440
   6.1872270  14.3511180  28.0848960   7.1889110  13.8931530  29.1235380
  10.9173930  16.4370160  34.0199760  10.4553300  16.6453180  34.8319700
  10.5152040  15.6229510  33.7170430  15.9178440  17.6579110  35.1496420
  15.0672030  17.3584860  35.4705490  15.7580230  17.9021120  34.2380240
  13.0128150  19.1580860  37.2495210  13.3381560  18.3244610  36.9097440
  13.8008480  19.6809380  37.3973540   9.7462940  13.1912340  23.2970270
   9.1217120  13.1872210  24.0223580   9.6593060  12.3243300  22.9006240
   8.6680020  14.1148970  30.2754040   8.9652350  15.0211800  30.1946060
   9.2165580  13.6267750  29.6613610   6.4218340  18.6935210  26.1445690
   6.1959260  18.4772380  27.0492310   5.6410870  19.1263670  25.7991660
  13.6516100  18.6998580  24.7436340  13.0524990  19.4234380  24.5599960
  14.1995710  18.6375360  23.9612790   8.8617550  19.5920790  36.8105960
   8.7661150  18.6515520  36.6606360   9.7049530  19.8135860  36.4154030
  12.2580970  17.3362120  26.7739620  12.6510540  17.6534320  25.9608310
  12.6197820  16.4574000  26.8884140   3.9928090  16.0034460  34.9639740
   3.5991480  16.8509670  35.1712520   3.3046490  15.3660830  35.1548380
  12.8436110  19.9267870  30.8690400  12.1117230  20.4354680  31.2180500
  12.4460450  19.1097850  30.5679180   9.2813500  16.6022070  29.2742890
   9.2849560  16.1612020  28.4247430  10.1764620  16.9239400  29.3814710
   5.1315880  16.4848560  28.2337100   4.7915930  16.9623790  28.9904150
   4.3693200  16.0313680  27.8738200   9.3433650  17.6034150  22.2649650
   9.4646470  17.5620630  23.2135470   8.9582160  18.4658300  22.1096380
  13.3062020  15.3801550  30.2813340  13.3234760  15.8310200  31.1255190
  13.0577600  14.4807190  30.4946780   8.3555150  19.9135290  21.6632950
   7.7872050  19.4653540  21.0368860   9.0644150  20.2728070  21.1298100
  16.7332770  12.7933730  36.1199720  17.0578540  12.0623390  36.6457700
  16.7689280  12.4747370  35.2180710   3.4324330  23.8147310  35.5399680
   3.0479120  23.1740980  36.1382640   3.7436520  24.5183430  36.1094410
   9.5821470  20.6623850  31.0208300   9.9491600  20.1882420  31.7669640
   9.3926530  21.5365420  31.3616640   2.4461960  15.4067540  27.1501770
   2.1608880  15.0423210  27.9880390   2.3840820  14.6748000  26.5364910
   7.3720840  19.7032490  33.3392510   7.0677910  20.5824470  33.5642870
   8.3267300  19.7632280  33.3749950   5.9002630  23.9093480  23.9359360
   5.1264890  23.3691100  23.7758080   6.6297260  23.3900090  23.5977120
  16.6590610  22.9058840  29.7285750  17.3789730  23.4014130  29.3381860
  16.4572430  22.2276730  29.0839620  12.1200550  14.2996800  23.8715140
  11.3065160  13.8009970  23.7960450  11.9262500  15.1395050  23.4551490
  12.0409410  22.9767900  35.6154750  11.9746720  22.0563570  35.3612340
  11.4114550  23.0743340  36.3299390   5.9440030  23.5773860  27.5738170
   6.4618700  22.7742120  27.5195060   5.4924050  23.5153000  28.4155000
  10.8309530  24.8440140  22.8465470  11.1725230  25.5882370  22.3508790
  10.0022240  25.1571260  23.2090300   3.4284570  20.5435230  34.4863870
   3.0699510  21.2089080  35.0737210   3.1339130  19.7118780  34.8576490
   6.6297690  21.0019470  37.3703420   6.3297830  21.1476650  36.4731240
   7.4008930  20.4424760  37.2776810  11.9726140  25.7988470  35.3658550
  11.9870680  24.8669430  35.1477460  11.2651240  25.8848230  36.0048320
  18.1837350  22.4395810  34.7127130  17.4585540  23.0324590  34.5156520
  18.7112810  22.4319350  33.9140500  18.1350460  26.8370550  24.3639290
  17.4926620  26.1826170  24.6383010  17.7481120  27.2425640  23.5879960
  13.7136940  24.1655980  28.2110980  14.0660760  23.5684110  27.5512350
  12.8299270  23.8400210  28.3819230   9.8000220  24.9253670  25.6181390
  10.4871350  25.4722880  25.9988980   9.0132640  25.4694400  25.6531000
   1.9392620  20.5426490  21.1098470   2.8087470  20.8251290  21.3934390
   1.4482940  21.3562360  20.9947280   9.1027430  21.9299700  25.2306750
   9.5590210  22.7404950  25.4566940   8.7515640  21.6122840  26.0625240
  11.4060040  27.4406040  32.4599050  12.0502260  27.6465420  33.1372470
  11.7689480  26.6794440  32.0069900   5.0039210  12.2737350  25.7029270
   4.8753840  12.2655250  26.6514190   4.1801230  12.6120440  25.3520280
  12.6792120  25.4438390  31.1776500  13.3214350  24.7431550  31.2908670
  13.2041470  26.2236830  30.9973390  16.5247840  25.7287010  20.9015640
  16.2985420  25.0117450  21.4940280  16.1344040  25.4799450  20.0637390
  14.4529740  26.2433290  34.3812560  14.7885980  26.8299980  35.0590480
  13.5330080  26.1126000  34.6110350   2.3063870  29.7553870  21.6760100
   2.6661510  30.3543210  21.0217370   2.1656210  30.3013760  22.4495130
  16.1064090  23.6458950  22.5629800  15.8185790  24.1071640  23.3507680
  16.9016260  23.1856720  22.8314020   2.2905730  28.0208730  36.1502500
   2.3996850  27.0803470  36.0097890   1.6386290  28.2863480  35.5016230
   8.3232490  27.1385070  22.4933770   8.3142590  27.8714760  21.8778280
   7.4030850  26.8916650  22.5860730   3.9239130  22.3599960  23.2380530
   3.3167080  23.0998860  23.2475830   4.3988480  22.4499320  22.4118730
  13.4971920  16.5250780  32.9137420  13.8652740  15.7045990  33.2416990
  12.6370120  16.5852670  33.3293070  11.3092090  27.2013310  21.1558960
  11.4104070  26.9977300  20.2260940  10.4093830  26.9471590  21.3606740
   8.8317980  17.7593670  25.1382860   8.1234130  18.2280010  25.5796470
   9.1162460  17.1015680  25.7728050  10.4573910  19.1790370  33.1375390
  10.9559160  19.6536190  33.8027240  10.5996860  18.2553890  33.3445420
  12.8633410  14.4844330  26.5778650  12.7401190  14.5030460  25.6288160
  13.8117970  14.5323270  26.6977050   9.9510200  29.7199630  25.8506630
  10.2051700  29.6821020  24.9286000   9.0022680  29.5932960  25.8434880
   7.0353000  16.0678750  22.5133570   7.8843530  16.5048900  22.4473760
   6.6684270  16.3799010  23.3405630  17.6640770  15.3958330  33.9803780
  17.1614370  16.1363730  34.3197590  18.4797430  15.7842330  33.6640570
  15.9562780  20.6391510  27.4265140  15.0152920  20.6541740  27.6012830
  16.2706850  19.8527470  27.8725440   5.9344420  22.3211110  20.9869100
   6.7007690  22.2092470  21.5494530   6.0119110  21.6249080  20.3345870
   4.6291180  19.7536180  21.6701990   4.7094770  18.8063690  21.7819390
   5.5210930  20.0843060  21.7762650  17.9588360  27.8100360  29.1019400
  18.0835780  28.6331530  29.5743210  18.8253920  27.5991090  28.7543550
   5.4305890  29.9031570  28.7736530   6.1668370  29.3547030  29.0445100
   5.8146810  30.7687580  28.6342520   8.5408200  29.0761880  20.5962100
   9.3336810  29.3650710  20.1443890   8.0212550  28.6454050  19.9174580
  14.7029170  28.9237800  36.5206930  15.6550920  28.8395820  36.4707170
  14.5557390  29.5879510  37.1940720  17.5938370  28.3032010  22.0198840
  17.3079880  27.8897150  21.2053020  17.3957920  29.2319720  21.8999360
   2.1561980  21.5751100  36.9058160   2.6601000  20.9958380  37.4774390
   1.4169400  21.8591330  37.4434530   9.0585600  24.2965290  20.4604450
   8.9536240  23.6817640  21.1865830   8.8909820  23.7731180  19.6767460
   9.2099920  22.9822090  36.4393680   8.4445590  23.5507090  36.3548350
   9.3915880  22.6898300  35.5461910  12.2988330  23.3585320  21.0646440
  11.7498430  23.8054620  21.7089180  12.9207590  22.8534570  21.5884110
  16.3523270  24.7127420  36.9968700  17.0932740  25.0503180  36.4936160
  15.5895950  24.8819480  36.4438470   7.9663450  22.3176240  22.9611740
   8.3879870  22.1516110  23.8043130   8.0914290  21.5076470  22.4666880
   6.1290870  18.2972790  35.7682720   5.5987330  17.8063740  35.1406060
   6.7978940  18.7256990  35.2340650  10.4791090  21.3413850  20.2088840
  10.9996750  20.6262870  19.8429990  11.1259490  21.9799720  20.5089350
  15.0268930  22.7642250  35.5323910  15.4409950  22.9187330  36.3814330
  14.0919930  22.8897470  35.6949690  15.4991100  20.1038410  37.5363060
  16.0811870  19.3490730  37.4483540  15.6752870  20.6345850  36.7594540
   6.6163170  15.2635160  35.8480010   6.5220040  14.6455910  35.1230880
   6.0360560  15.9901450  35.6209920   9.3824610  13.8208400  32.8807400
   8.9341910  13.8432660  32.0352950   8.7489810  13.4227420  33.4777700
   9.7884160  22.7162730  33.5019840  10.2072270  23.5595460  33.3296080
   8.8692790  22.8534770  33.2726620  12.1248060  20.4478910  34.8857680
  12.2444270  19.8520050  35.6252520  12.9842060  20.4848600  34.4658980
  14.4635960  21.0016100  33.4620190  13.9371180  21.5258720  32.8585330
  14.8067300  21.6343490  34.0929920   6.8622350  18.3909470  19.9069900
   6.6611410  17.5276830  20.2683240   6.6914400  18.3042830  18.9691500
   7.6391580  29.0215740  34.6177570   7.1012670  29.7461800  34.2986270
   7.8925540  28.5446080  33.8274910   8.8916830  16.9900260  36.1433500
   9.4816520  16.6816110  36.8311320   8.0737070  16.5180010  36.2993400
  13.7110260  16.6066070  36.3766520  13.0225780  15.9447610  36.3116510
  14.4316280  16.1604340  36.8214980  14.3410660  13.2017700  22.4356780
  14.6212950  12.3585600  22.7916200  13.5676390  13.4340810  22.9495530
   5.6605150  15.4910090  19.8947780   5.9631050  15.4977520  18.9866930
   6.3999740  15.1407950  20.3915440  10.4953790  30.2566950  34.8764220
  10.4212490  31.1602090  35.1836590   9.5932630  29.9378850  34.8486290
   8.8790080  14.4344710  20.8803980   8.5312080  13.7568700  20.3006430
   9.0802850  13.9734220  21.6947370  11.0439120  29.4225460  22.4990580
  11.9389910  29.7610430  22.5209340  11.0756750  28.7004870  21.8714860
   4.6835280  24.7952510  20.7277580   5.1210150  25.3382180  21.3835160
   5.1683010  23.9699460  20.7373920   1.8981080  27.5841540  28.1797840
   2.2284090  26.7162600  27.9476480   2.3272080  27.7900060  29.0102800
   6.4943000  25.9150550  25.8399810   6.1938540  25.7915520  26.7403720
   6.3880490  25.0559140  25.4315540   2.3871290  28.4512130  30.9179470
   1.9502280  28.6312930  31.7503620   2.9548970  29.2086750  30.7761190
  18.0233470  27.9529130  35.2056780  17.4235460  28.0121690  34.4620700
  18.1527370  27.0134110  35.3353630  19.2634920  25.6946950  20.5426490
  18.4327880  25.7623600  21.0133720  19.4406750  26.5851070  20.2393350
  18.7191380  22.4394430  23.0460690  19.4810290  23.0091080  23.1520380
  18.7345750  21.8721630  23.8169000   2.2195720  20.9632360  27.2768350
   1.5644560  20.6944000  26.6328050   3.0573670  20.8536840  26.8270330
  19.7251350  23.2944530  27.8902620  20.0960180  22.5111850  27.4838590
  20.3653280  23.9833630  27.7119920  16.7085110  24.6781110  33.3032940
  15.8944950  25.1078270  33.5658730  17.1159310  25.2899520  32.6901990
  18.7710550  22.7328800  20.2033210  19.0459390  23.6407680  20.0752430
  18.5821290  22.6691330  21.1395200  18.6675890  20.6697790  25.1962640
  18.2919490  19.9025720  24.7643930  17.9379010  21.0520490  25.6837570
   3.2571650  21.3484930  31.8171690   3.6244690  21.2612330  32.6967710
   2.6882470  20.5851480  31.7178550  18.0575510  19.8169310  34.8302160
  17.8261600  19.5882060  33.9300110  18.3180060  20.7368860  34.7847050
   2.8087650  18.2594020  35.7230110   1.9143700  18.2260780  36.0623820
   3.3485200  18.4580810  36.4881360  16.4963580  15.0425740  37.6081860
  17.3733760  15.0509140  37.9915860  16.5084420  14.3056580  36.9974210
  17.9426850  18.8955280  28.4969880  18.4664330  18.4017930  27.8660050
  18.5286270  19.0305640  29.2417450  18.1216570  18.9795150  32.0189430
  17.1719280  18.9458690  32.1334420  18.3029580  19.8895260  31.7839200
   3.9761010  17.2296830  21.1288060   4.6852710  16.8080050  20.6435340
   3.2600950  17.2972060  20.4971410   3.6235170  13.2836160  20.1690710
   4.3463300  13.8245100  20.4871930   3.8959690  13.0099580  19.2932250
   3.3127360  12.5342350  30.0713330   3.9603550  11.9839730  29.6308490
   3.7329200  12.7885500  30.8929140  17.2079700  12.7283710  33.4282970
  17.8451920  13.3417850  33.7942160  17.3554590  12.7644370  32.4832200
  16.7661160  29.4299710  26.8301210  17.3620230  29.1084280  26.1535630
  17.0239310  28.9571530  27.6214480   3.0659360  12.6898020  32.8138650
   2.7174180  13.1461840  33.5796830   2.7347060  11.7955150  32.8961080
   4.6723730  25.8617620  36.9791840   4.6293360  25.4910530  37.8606300
   4.8034740  26.7995190  37.1193660   8.3729760  27.4177210  32.5801560
   8.1321120  27.6851770  31.6932080   9.3132400  27.5882940  32.6352420
  10.5784180  13.8809900  36.3358070  10.5173070  14.4731730  37.0853480
  11.5184560  13.7735860  36.1908330  13.2158740  13.5379960  35.9750360
  13.8299150  13.8559250  35.3131440  13.7608300  13.0528550  36.5946220
  19.6333920  29.4371590  33.3812200  19.1392200  29.8340460  32.6639330
  19.0247210  28.8120800  33.7749480   3.7380000  12.2174220  36.0889420
   4.2862990  12.0362270  35.3255530   3.8035310  11.4268330  36.6245730
   4.5111760  28.8079870  34.0989620   3.9172080  28.6764570  34.8379660
   4.5035600  27.9718010  33.6331720  13.9566780  12.1012100  32.3019650
  13.0826620  12.4347210  32.0992580  13.8477530  11.6285280  33.1271520
  14.8638760  14.3082970  33.6861370  14.5352120  13.4934730  33.3063100
  15.8121060  14.2652780  33.5627060  17.3173370  30.0795010  30.6598940
  16.8576340  30.8310820  30.2856960  16.6885830  29.3601480  30.6013740
   4.1423990  26.1738250  33.0497660   3.4158050  25.5543540  32.9823610
   4.2033140  26.5678860  32.1795740   7.7469090  28.3883250  29.8347070
   8.2634110  27.7770610  29.3095330   8.3966470  28.8912030  30.3258080
  10.4864590  29.2791740  30.6616050  10.7742400  29.0246040  29.7849060
  10.9987810  28.7269100  31.2521620  11.7041600  13.0181940  31.2412560
  10.9213390  13.4927440  31.5209320  11.4104530  12.1136770  31.1325740
  16.2562670  13.7205040  29.2861650  16.6970760  13.6650140  28.4383250
  15.9870260  14.6363050  29.3571830  18.1201240  13.3520280  27.2970470
  18.0589640  12.4081500  27.1501490  18.8993270  13.4600370  27.8423930
   2.4253990  29.4912640  26.2594420   2.2576030  28.8583320  26.9576310
   1.5588500  29.6972040  25.9088610   3.0482010  13.3229420  23.7626280
   3.8061370  13.4358300  23.1890310   2.5859180  14.1598620  23.7169710
   9.5895820  15.4368690  26.7528590   8.7770330  15.0625580  26.4124470
  10.0937460  14.6813770  27.0549780  14.0920800  12.1011140  27.9911660
  14.6950170  12.6731350  28.4660180  13.3513790  12.6650580  27.7685560
  17.2355400  12.5032700  23.2651940  17.4306030  13.4016150  23.5319370
  16.4485270  12.2719780  23.7584890   4.0316690  28.1845870  23.7044560
   3.5064310  28.5653900  23.0006520   3.9561270  28.8096640  24.4254270
   5.4207160  13.8493470  22.3028250   5.9499920  13.0623270  22.1736200
   6.0535480  14.5284660  22.5363780   7.6145000  13.5868610  25.3573640
   6.9847740  12.8855920  25.5243770   7.0750140  14.3472740  25.1406800
  18.7882010  29.7433410  25.0258500  18.9634200  29.0571150  24.3819420
  18.0903580  30.2680460  24.6335170   7.7400560  12.8652590  37.7926130
   7.4584830  13.3686190  37.0286950   8.1220260  12.0674340  37.4268260
   6.6309660  30.1328250  22.5793810   7.3628480  29.8487530  22.0317700
   6.8903330  29.8941530  23.4693190   5.7924450  26.2492980  22.5840140
   5.1633330  26.7178080  23.1325970   5.9072280  25.4042200  23.0186330
  13.2474170  20.2998640   8.7341340  13.1668220  19.3853250   8.4633050
  12.8338590  20.7965710   8.0281050  11.3792210  22.0777660  10.6150610
  10.6034310  21.5978100  10.9049180  12.0305140  21.3983310  10.4406770
   5.3958040  22.3897470  11.4926370   4.5642920  22.1346180  11.8922880
   6.0039020  22.4608240  12.2284290  15.3999640  26.4837850   9.3949740
  14.9381170  25.7125090   9.7236910  16.2125190  26.5103920   9.9002190
   5.3759300  26.4237560  11.6884390   5.6787340  25.5335300  11.5094610
   6.1202890  26.9807780  11.4606640   3.8049990  17.3499360   5.2768760
   2.9166690  17.6915330   5.1748640   4.0891180  17.1499680   4.3849590
   1.7683000  19.9505010  11.1608460   2.3399110  19.1827210  11.1612100
   1.7684540  20.2493770  10.2515070  11.6262950  28.7695860   9.0153730
  11.0074390  29.2253360   8.4448170  12.4814730  28.9247320   8.6143430
  10.8201200  24.7534850  10.6220770  10.7509480  23.8124790  10.4609900
  11.5821060  24.8436260  11.1943340   3.0107870  15.3589370  12.9477390
   2.8310710  14.4615120  13.2280150   2.6087950  15.9061240  13.6224340
  11.8506370  17.5605230  10.8489700  12.2271190  16.6877110  10.7363370
  11.7525880  17.8963930   9.9580140   5.9811380  15.9330860   6.3107140
   6.0878130  16.8334590   6.6175900   5.0703740  15.8848830   6.0201790
  15.6330490  15.0555670   7.7818040  16.4540110  14.5652240   7.8243520
  15.6664570  15.6453330   8.5349880   3.6294540  17.8549870  11.5559730
   4.3104650  18.1188240  12.1747130   3.3142590  17.0150740  11.8897740
   7.8219110  18.9017230  10.6432320   8.3297330  19.3998200  11.2837340
   8.3532350  18.1252430  10.4671680   6.1055210  13.5415790  14.9095740
   6.1073650  14.0588180  14.1041640   5.2759520  13.0645970  14.8865670
  12.4926300  23.6535100   6.4085640  11.8743570  24.1184550   5.8448360
  13.0049550  24.3462580   6.8255150   7.3558060  23.1810970  13.0869240
   7.0227440  23.8079890  13.7290310   7.5324740  23.7072850  12.3070910
  15.8691970  16.9956050  10.5545580  15.1647540  17.2840940  11.1348690
  16.2304130  17.8056160  10.1945140   5.7870540  15.2525750  12.9166190
   6.1287350  16.0967800  12.6220060   4.8486350  15.4009490  13.0331530
   6.5677160  25.1491770  14.9018420   7.1851160  25.8242850  14.6202870
   5.7070280  25.5579750  14.8105920   1.8609500  24.3391630   3.7825270
   1.4837480  24.8278730   3.0510170   2.1182570  25.0116910   4.4131800
  17.4854750  26.6131180  12.8173060  16.8018270  27.2830290  12.8089730
  18.0249040  26.8111830  12.0517920  18.9378890  16.4410840  10.9454790
  17.9903800  16.4749820  11.0770220  19.2628880  17.2549790  11.3304150
   9.4698430  12.7408020   9.2410780   9.7773410  12.1854910   8.5246280
   8.5399130  12.8752480   9.0583770  15.0213490  28.4575310  11.5318240
  15.0340650  28.0537600  10.6640500  14.4688710  29.2322600  11.4279670
  16.3158910  25.1791530   6.6208410  16.2055240  24.2365860   6.7457830
  16.3127160  25.5407170   7.5071170  14.4198930  23.3605150  12.8600850
  14.8367720  23.1465260  12.0254310  15.1438750  23.6177940  13.4309470
  11.8579190  20.8056850   5.9770900  10.9308470  20.7394230   6.2059370
  12.0104010  21.7436980   5.8626140  11.8448270  17.0773850   2.9738060
  10.9051940  17.2387810   3.0590520  12.1631530  17.7959530   2.4274050
  18.3661030  21.7592370  12.9517090  17.5379660  21.8285460  12.4767220
  18.9611510  22.3446680  12.4832920  15.8876480  22.3677150   6.4806150
  15.2688900  22.0296700   5.8332450  15.8700930  21.7236910   7.1885340
  15.3303040  18.5461690  13.8971960  14.9174220  19.3715400  14.1511950
  14.5978990  17.9606730  13.7048320   7.4635830  21.3321590   8.7590630
   7.0592830  20.6198840   8.2636530   7.5498950  20.9874830   9.6478670
   7.9317530  25.0189150  10.9229840   7.6345820  24.4134620  10.2437620
   8.8817350  25.0566460  10.8119200   6.1764450  18.1064800  12.5389670
   6.7279040  18.2160140  11.7642920   6.6907960  18.4802400  13.2544900
  16.0203140  28.5921020  14.5852940  15.5433700  29.3993210  14.3925550
  15.3364930  27.9399350  14.7379150   7.0235960  24.7570840  17.5737640
   6.1264490  24.9810810  17.8211040   7.0488830  24.8805780  16.6249040
  14.0641180  21.6063960   3.4878900  14.5034460  20.7686390   3.3416720
  14.7769600  22.2393360   3.5743040   5.8507180  21.6284160  16.1495010
   5.7114950  22.5006960  16.5182410   4.9688540  21.2856970  16.0042950
  12.1736560  26.5460030   7.4560140  12.6132470  27.2884360   7.0415530
  12.1123450  26.7886600   8.3799100   7.6487530  27.5705860  18.3580160
   7.6202960  27.9748810  17.4908590   7.4852500  26.6416220  18.1951760
  17.6458320  12.8606770   1.8019940  17.3330980  12.9533600   2.7019010
  18.4070790  13.4387800   1.7517370   4.1640460  20.2266570   6.2597280
   4.0438060  20.9528660   5.6478550   3.8541350  19.4569480   5.7825190
  19.6002350  28.3532960  19.6544330  20.0762070  28.8315850  20.3333410
  20.2209510  28.2850450  18.9289830   1.8025830  23.3981710  12.0665920
   1.8806250  23.5330480  11.1221640   2.4167510  22.6897600  12.2594040
   3.0473460  25.0981900   8.4772100   2.6401540  25.2396490   7.6225700
   3.9386470  24.8142060   8.2743310  19.0035600  25.5445810  16.8144340
  19.1298660  25.3057690  15.8961520  19.0456980  24.7130350  17.2866420
  12.8652340  29.2473810  15.3839150  13.3797010  29.1581820  16.1861580
  12.0221420  29.5933510  15.6767060  14.8406740  29.5329150   4.8123150
  14.6807880  29.2432090   5.7104980  14.6753450  28.7569280   4.2768380
   7.3195120  29.3127680   6.5894770   7.1437600  28.3963220   6.3762570
   6.4650860  29.6714970   6.8292570  14.5432870  27.0416710   3.3721150
  13.8498030  27.0394000   2.7123430  15.2855730  26.6176030   2.9415320
  14.1082800  28.6679420   7.4469640  14.5639750  27.8868800   7.7608260
  14.4475320  29.3786240   7.9910820   1.8585350  24.4395880  14.6060380
   2.0216390  23.9701240  13.7879750   2.3237800  23.9319440  15.2709220
   6.6304120  13.5701640   9.6420950   6.1872270  14.3511180   9.3105470
   7.1889110  13.8931530  10.3491890  10.9173930  16.4370160  15.2456270
  10.4553300  16.6453180  16.0576210  10.5152040  15.6229510  14.9426940
   9.7462940  13.1912340   4.5226780   9.1217120  13.1872210   5.2480090
   9.6593060  12.3243300   4.1262750   8.6680020  14.1148970  11.5010550
   8.9652350  15.0211800  11.4202570   9.2165580  13.6267750  10.8870120
   6.4218340  18.6935210   7.3702200   6.1959260  18.4772380   8.2748820
   5.6410870  19.1263670   7.0248170  13.6516100  18.6998580   5.9692850
  13.0524990  19.4234380   5.7856470  14.1995710  18.6375360   5.1869300
   8.8617550  19.5920790  18.0362470   8.7661150  18.6515520  17.8862870
   9.7049530  19.8135860  17.6410540  12.2580970  17.3362120   7.9996130
  12.6510540  17.6534320   7.1864820  12.6197820  16.4574000   8.1140650
   3.9928090  16.0034460  16.1896250   3.5991480  16.8509670  16.3969030
   3.3046490  15.3660830  16.3804890  10.5673140  16.0869430  19.2592990
   9.8771460  15.8941630  19.8939080  11.3105440  16.3704070  19.7917290
  12.8436110  19.9267870  12.0946910  12.1117230  20.4354680  12.4437010
  12.4460450  19.1097850  11.7935690   9.2813500  16.6022070  10.4999400
   9.2849560  16.1612020   9.6503940  10.1764620  16.9239400  10.6071220
   5.1315880  16.4848560   9.4593610   4.7915930  16.9623790  10.2160660
   4.3693200  16.0313680   9.0994710   9.3433650  17.6034150   3.4906160
   9.4646470  17.5620630   4.4391980   8.9582160  18.4658300   3.3352890
  13.3062020  15.3801550  11.5069850  13.3234760  15.8310200  12.3511700
  13.0577600  14.4807190  11.7203290   8.3555150  19.9135290   2.8889460
   7.7872050  19.4653540   2.2625370   9.0644150  20.2728070   2.3554610
   3.4324330  23.8147310  16.7656190   3.0479120  23.1740980  17.3639150
   3.7436520  24.5183430  17.3350920   9.5821470  20.6623850  12.2464810
   9.9491600  20.1882420  12.9926150   9.3926530  21.5365420  12.5873150
   2.4461960  15.4067540   8.3758280   2.1608880  15.0423210   9.2136900
   2.3840820  14.6748000   7.7621420   7.3720840  19.7032490  14.5649020
   7.0677910  20.5824470  14.7899380   8.3267300  19.7632280  14.6006460
   5.9002630  23.9093480   5.1615870   5.1264890  23.3691100   5.0014590
   6.6297260  23.3900090   4.8233630  16.6590610  22.9058840  10.9542260
  17.3789730  23.4014130  10.5638370  16.4572430  22.2276730  10.3096130
  12.1200550  14.2996800   5.0971650  11.3065160  13.8009970   5.0216960
  11.9262500  15.1395050   4.6808000  12.0409410  22.9767900  16.8411260
  11.9746720  22.0563570  16.5868850  11.4114550  23.0743340  17.5555900
  14.8348940  18.6716450   3.3933810  15.7228560  18.9833680   3.2185150
  14.8054030  17.7988700   3.0014390   5.9440030  23.5773860   8.7994680
   6.4618700  22.7742120   8.7451570   5.4924050  23.5153000   9.6411510
  10.8309530  24.8440140   4.0721980  11.1725230  25.5882370   3.5765300
  10.0022240  25.1571260   4.4346810   3.4284570  20.5435230  15.7120380
   3.0699510  21.2089080  16.2993720   3.1339130  19.7118780  16.0833000
   6.6297690  21.0019470  18.5959930   6.3297830  21.1476650  17.6987750
   7.4008930  20.4424760  18.5033320  11.9726140  25.7988470  16.5915060
  11.9870680  24.8669430  16.3733970  11.2651240  25.8848230  17.2304830
  17.1063210  19.9828290   2.8613670  17.0226930  20.4142510   2.0110110
  17.8257400  20.4426640   3.2940490  18.1837350  22.4395810  15.9383640
  17.4585540  23.0324590  15.7413030  18.7112810  22.4319350  15.1397010
  18.1350460  26.8370550   5.5895800  17.4926620  26.1826170   5.8639520
  17.7481120  27.2425640   4.8136470  13.7136940  24.1655980   9.4367490
  14.0660760  23.5684110   8.7768860  12.8299270  23.8400210   9.6075740
   9.8000220  24.9253670   6.8437900  10.4871350  25.4722880   7.2245490
   9.0132640  25.4694400   6.8787510   1.9392620  20.5426490   2.3354980
   2.8087470  20.8251290   2.6190900   1.4482940  21.3562360   2.2203790
   9.1027430  21.9299700   6.4563260   9.5590210  22.7404950   6.6823450
   8.7515640  21.6122840   7.2881750  11.4060040  27.4406040  13.6855560
  12.0502260  27.6465420  14.3628980  11.7689480  26.6794440  13.2326410
   5.0039210  12.2737350   6.9285780   4.8753840  12.2655250   7.8770700
   4.1801230  12.6120440   6.5776790  12.6792120  25.4438390  12.4033010
  13.3214350  24.7431550  12.5165180  13.2041470  26.2236830  12.2229900
  14.4529740  26.2433290  15.6069070  14.7885980  26.8299980  16.2846990
  13.5330080  26.1126000  15.8366860   2.3063870  29.7553870   2.9016610
   2.6661510  30.3543210   2.2473880   2.1656210  30.3013760   3.6751640
  16.1064090  23.6458950   3.7886310  15.8185790  24.1071640   4.5764190
  16.9016260  23.1856720   4.0570530   2.2905730  28.0208730  17.3759010
   2.3996850  27.0803470  17.2354400   1.6386290  28.2863480  16.7272740
  10.2818320  26.2924620  18.7757130   9.9615190  25.5733860  19.3202820
   9.6076680  26.9679690  18.8493190   8.3232490  27.1385070   3.7190280
   8.3142590  27.8714760   3.1034790   7.4030850  26.8916650   3.8117240
   3.9239130  22.3599960   4.4637040   3.3167080  23.0998860   4.4732340
   4.3988480  22.4499320   3.6375240  13.4971920  16.5250780  14.1393930
  13.8652740  15.7045990  14.4673500  12.6370120  16.5852670  14.5549580
  16.8633950  15.4807720   4.9481490  16.2347110  15.5853390   4.2339720
  16.3685870  15.7004500   5.7375370  11.3092090  27.2013310   2.3815470
  11.4104070  26.9977300   1.4517450  10.4093830  26.9471590   2.5863250
   8.8317980  17.7593670   6.3639370   8.1234130  18.2280010   6.8052980
   9.1162460  17.1015680   6.9984560  10.4573910  19.1790370  14.3631900
  10.9559160  19.6536190  15.0283750  10.5996860  18.2553890  14.5701930
  12.8633410  14.4844330   7.8035160  12.7401190  14.5030460   6.8544670
  13.8117970  14.5323270   7.9233560   9.9510200  29.7199630   7.0763140
  10.2051700  29.6821020   6.1542510   9.0022680  29.5932960   7.0691390
   7.0353000  16.0678750   3.7390080   7.8843530  16.5048900   3.6730270
   6.6684270  16.3799010   4.5662140  15.9562780  20.6391510   8.6521650
  15.0152920  20.6541740   8.8269340  16.2706850  19.8527470   9.0981950
   5.9344420  22.3211110   2.2125610   6.7007690  22.2092470   2.7751040
   6.0119110  21.6249080   1.5602380   4.6291180  19.7536180   2.8958500
   4.7094770  18.8063690   3.0075900   5.5210930  20.0843060   3.0019160
  17.9588360  27.8100360  10.3275910  18.0835780  28.6331530  10.7999720
  18.8253920  27.5991090   9.9800060   5.4305890  29.9031570   9.9993040
   6.1668370  29.3547030  10.2701610   5.8146810  30.7687580   9.8599030
   4.4364170  29.0877640  19.1878620   5.2376900  29.4089690  19.6014020
   3.9215990  28.7273220  19.9098530  13.2728800  25.1957510  19.1354030
  12.6666960  25.2189110  18.3949780  12.9682910  24.4640550  19.6721280
  14.7029170  28.9237800  17.7463440  15.6550920  28.8395820  17.6963680
  14.5557390  29.5879510  18.4197230  17.5938370  28.3032010   3.2455350
  17.3079880  27.8897150   2.4309530  17.3957920  29.2319720   3.1255870
   2.1561980  21.5751100  18.1314670   2.6601000  20.9958380  18.7030900
   1.4169400  21.8591330  18.6691040   9.2099920  22.9822090  17.6650190
   8.4445590  23.5507090  17.5804860   9.3915880  22.6898300  16.7718420
  12.2988330  23.3585320   2.2902950  11.7498430  23.8054620   2.9345690
  12.9207590  22.8534570   2.8140620  16.3523270  24.7127420  18.2225210
  17.0932740  25.0503180  17.7192670  15.5895950  24.8819480  17.6694980
   4.1885060  19.7180690  19.0264740   4.2290400  19.4194560  19.9349970
   5.0430560  20.1188300  18.8672260   7.9663450  22.3176240   4.1868250
   8.3879870  22.1516110   5.0299640   8.0914290  21.5076470   3.6923390
   6.1290870  18.2972790  16.9939230   5.5987330  17.8063740  16.3662570
   6.7978940  18.7256990  16.4597160  15.0268930  22.7642250  16.7580420
  15.4409950  22.9187330  17.6070840  14.0919930  22.8897470  16.9206200
   6.6163170  15.2635160  17.0736520   6.5220040  14.6455910  16.3487390
   6.0360560  15.9901450  16.8466430   9.3824610  13.8208400  14.1063910
   8.9341910  13.8432660  13.2609460   8.7489810  13.4227420  14.7034210
   9.7884160  22.7162730  14.7276350  10.2072270  23.5595460  14.5552590
   8.8692790  22.8534770  14.4983130  12.1248060  20.4478910  16.1114190
  12.2444270  19.8520050  16.8509030  12.9842060  20.4848600  15.6915490
  14.4635960  21.0016100  14.6876700  13.9371180  21.5258720  14.0841840
  14.8067300  21.6343490  15.3186430   7.6391580  29.0215740  15.8434080
   7.1012670  29.7461800  15.5242780   7.8925540  28.5446080  15.0531420
   8.8916830  16.9900260  17.3690010   9.4816520  16.6816110  18.0567830
   8.0737070  16.5180010  17.5249910  14.3410660  13.2017700   3.6613290
  14.6212950  12.3585600   4.0172710  13.5676390  13.4340810   4.1752040
  10.4953790  30.2566950  16.1020730  10.4212490  31.1602090  16.4093100
   9.5932630  29.9378850  16.0742800   8.8790080  14.4344710   2.1060490
   8.5312080  13.7568700   1.5262940   9.0802850  13.9734220   2.9203880
  11.0439120  29.4225460   3.7247090  11.9389910  29.7610430   3.7465850
  11.0756750  28.7004870   3.0971370   4.6835280  24.7952510   1.9534090
   5.1210150  25.3382180   2.6091670   5.1683010  23.9699460   1.9630430
   1.8981080  27.5841540   9.4054350   2.2284090  26.7162600   9.1732990
   2.3272080  27.7900060  10.2359310   6.4943000  25.9150550   7.0656320
   6.1938540  25.7915520   7.9660230   6.3880490  25.0559140   6.6572050
   2.3871290  28.4512130  12.1435980   1.9502280  28.6312930  12.9760130
   2.9548970  29.2086750  12.0017700  18.0233470  27.9529130  16.4313290
  17.4235460  28.0121690  15.6877210  18.1527370  27.0134110  16.5610140
  19.2634920  25.6946950   1.7683000  18.4327880  25.7623600   2.2390230
  19.4406750  26.5851070   1.4649860  18.7191380  22.4394430   4.2717200
  19.4810290  23.0091080   4.3776890  18.7345750  21.8721630   5.0425510
   2.2195720  20.9632360   8.5024860   1.5644560  20.6944000   7.8584560
   3.0573670  20.8536840   8.0526840  19.7251350  23.2944530   9.1159130
  20.0960180  22.5111850   8.7095100  20.3653280  23.9833630   8.9376430
  16.7085110  24.6781110  14.5289450  15.8944950  25.1078270  14.7915240
  17.1159310  25.2899520  13.9158500  15.1686160  15.7573650   2.7243350
  15.5871040  15.5704630   1.8840010  14.8622220  14.9052700   3.0346280
  18.6675890  20.6697790   6.4219150  18.2919490  19.9025720   5.9900440
  17.9379010  21.0520490   6.9094080   3.2571650  21.3484930  13.0428200
   3.6244690  21.2612330  13.9224220   2.6882470  20.5851480  12.9435060
   2.8087650  18.2594020  16.9486620   1.9143700  18.2260780  17.2880330
   3.3485200  18.4580810  17.7137870  17.9426850  18.8955280   9.7226390
  18.4664330  18.4017930   9.0916560  18.5286270  19.0305640  10.4673960
  18.1216570  18.9795150  13.2445940  17.1719280  18.9458690  13.3590930
  18.3029580  19.8895260  13.0095710   3.9761010  17.2296830   2.3544570
   4.6852710  16.8080050   1.8691850   3.2600950  17.2972060   1.7227920
  17.4326820  18.1528630   5.6618800  17.9285940  17.9199500   6.4467680
  17.2342890  17.3140470   5.2456440   3.3127360  12.5342350  11.2969840
   3.9603550  11.9839730  10.8565000   3.7329200  12.7885500  12.1185650
  18.8613980  16.7889580   8.1956480  18.7513260  16.6345620   9.1338750
  19.6221570  16.2610520   7.9531890  17.2079700  12.7283710  14.6539480
  17.8451920  13.3417850  15.0198670  17.3554590  12.7644370  13.7088710
  19.8242740  15.3908160   4.0619330  19.0294240  15.3253280   4.5912240
  20.0286020  16.3258800   4.0504680  16.7661160  29.4299710   8.0557720
  17.3620230  29.1084280   7.3792140  17.0239310  28.9571530   8.8470990
   3.0659360  12.6898020  14.0395160   2.7174180  13.1461840  14.8053340
   2.7347060  11.7955150  14.1217590   4.6723730  25.8617620  18.2048350
   4.6293360  25.4910530  19.0862810   4.8034740  26.7995190  18.3450170
   8.3729760  27.4177210  13.8058070   8.1321120  27.6851770  12.9188590
   9.3132400  27.5882940  13.8608930  10.5784180  13.8809900  17.5614580
  10.5173070  14.4731730  18.3109990  11.5184560  13.7735860  17.4164840
  13.2158740  13.5379960  17.2006870  13.8299150  13.8559250  16.5387950
  13.7608300  13.0528550  17.8202730  19.6333920  29.4371590  14.6068710
  19.1392200  29.8340460  13.8895840  19.0247210  28.8120800  15.0005990
   3.7380000  12.2174220  17.3145930   4.2862990  12.0362270  16.5512040
   3.8035310  11.4268330  17.8502240   4.5111760  28.8079870  15.3246130
   3.9172080  28.6764570  16.0636170   4.5035600  27.9718010  14.8588230
  13.9566780  12.1012100  13.5276160  13.0826620  12.4347210  13.3249090
  13.8477530  11.6285280  14.3528030  17.3173370  30.0795010  11.8855450
  16.8576340  30.8310820  11.5113470  16.6885830  29.3601480  11.8270250
   4.1423990  26.1738250  14.2754170   3.4158050  25.5543540  14.2080120
   4.2033140  26.5678860  13.4052250   7.7469090  28.3883250  11.0603580
   8.2634110  27.7770610  10.5351840   8.3966470  28.8912030  11.5514590
  10.4864590  29.2791740  11.8872560  10.7742400  29.0246040  11.0105570
  10.9987810  28.7269100  12.4778130  11.7041600  13.0181940  12.4669070
  10.9213390  13.4927440  12.7465830  11.4104530  12.1136770  12.3582250
  16.2562670  13.7205040  10.5118160  16.6970760  13.6650140   9.6639760
  15.9870260  14.6363050  10.5828340  18.1201240  13.3520280   8.5226980
  18.0589640  12.4081500   8.3758000  18.8993270  13.4600370   9.0680440
   2.4253990  29.4912640   7.4850930   2.2576030  28.8583320   8.1832820
   1.5588500  29.6972040   7.1345120   3.0482010  13.3229420   4.9882790
   3.8061370  13.4358300   4.4146820   2.5859180  14.1598620   4.9426220
   9.5895820  15.4368690   7.9785100   8.7770330  15.0625580   7.6380980
  10.0937460  14.6813770   8.2806290  14.0920800  12.1011140   9.2168170
  14.6950170  12.6731350   9.6916690  13.3513790  12.6650580   8.9942070
  17.2355400  12.5032700   4.4908450  17.4306030  13.4016150   4.7575880
  16.4485270  12.2719780   4.9841400   4.0316690  28.1845870   4.9301070
   3.5064310  28.5653900   4.2263030   3.9561270  28.8096640   5.6510780
   5.4207160  13.8493470   3.5284760   5.9499920  13.0623270   3.3992710
   6.0535480  14.5284660   3.7620290   7.6145000  13.5868610   6.5830150
   6.9847740  12.8855920   6.7500280   7.0750140  14.3472740   6.3663310
  10.5536950  30.2007840  19.2540760  11.4804260  29.9652110  19.2976720
  10.5387380  31.0279840  18.7726790  18.7882010  29.7433410   6.2515010
  18.9634200  29.0571150   5.6075930  18.0903580  30.2680460   5.8591680
   7.7400560  12.8652590  19.0182640   7.4584830  13.3686190  18.2543460
   8.1220260  12.0674340  18.6524770   6.6309660  30.1328250   3.8050320
   7.3628480  29.8487530   3.2574210   6.8903330  29.8941530   4.6949700
   5.7924450  26.2492980   3.8096650   5.1633330  26.7178080   4.3582480
   5.9072280  25.4042200   4.2442840  14.3416020  12.2806170  19.5963110
  14.2281470  12.6000780  20.4914630  15.1585760  12.6818680  19.3000390
  17.1214510  29.4277700  19.0781800  17.9139830  28.9326930  18.8707760
  17.4147660  30.1067840  19.6857410  11.3792210   3.3034170  29.3894100
  10.6034310   2.8234610  29.6792670  12.0305140   2.6239820  29.2150260
   5.3958040   3.6153980  30.2669860   4.5642920   3.3602690  30.6666370
   6.0039020   3.6864750  31.0027780  15.3999640   7.7094360  28.1693230
  14.9381170   6.9381600  28.4980400  16.2125190   7.7360430  28.6745680
   5.3759300   7.6494070  30.4627880   5.6787340   6.7591810  30.2838100
   6.1202890   8.2064290  30.2350130  11.6262950   9.9952370  27.7897220
  11.0074390  10.4509870  27.2191660  12.4814730  10.1503830  27.3886920
  10.8201200   5.9791360  29.3964260  10.7509480   5.0381300  29.2353390
  11.5821060   6.0692770  29.9686830  12.4926300   4.8791610  25.1829130
  11.8743570   5.3441060  24.6191850  13.0049550   5.5719090  25.5998640
   7.3558060   4.4067480  31.8612730   7.0227440   5.0336400  32.5033800
   7.5324740   4.9329360  31.0814400   6.5677160   6.3748280  33.6761910
   7.1851160   7.0499360  33.3946360   5.7070280   6.7836260  33.5849410
   1.8609500   5.5648140  22.5568760   1.4837480   6.0535240  21.8253660
   2.1182570   6.2373420  23.1875290  17.4854750   7.8387690  31.5916550
  16.8018270   8.5086800  31.5833220  18.0249040   8.0368340  30.8261410
  15.0213490   9.6831820  30.3061730  15.0340650   9.2794110  29.4383990
  14.4688710  10.4579110  30.2023160  16.3158910   6.4048040  25.3951900
  16.2055240   5.4622370  25.5201320  16.3127160   6.7663680  26.2814660
  14.4198930   4.5861660  31.6344340  14.8367720   4.3721770  30.7997800
  15.1438750   4.8434450  32.2052960  11.8579190   2.0313360  24.7514390
  10.9308470   1.9650740  24.9802860  12.0104010   2.9693490  24.6369630
  18.3661030   2.9848880  31.7260580  17.5379660   3.0541970  31.2510710
  18.9611510   3.5703190  31.2576410  15.8876480   3.5933660  25.2549640
  15.2688900   3.2553210  24.6075940  15.8700930   2.9493420  25.9628830
   7.4635830   2.5578100  27.5334120   7.0592830   1.8455350  27.0380020
   7.5498950   2.2131340  28.4222160   7.9317530   6.2445660  29.6973330
   7.6345820   5.6391130  29.0181110   8.8817350   6.2822970  29.5862690
  16.0203140   9.8177530  33.3596430  15.5433700  10.6249720  33.1669040
  15.3364930   9.1655860  33.5122640   7.0235960   5.9827350  36.3481130
   6.1264490   6.2067320  36.5954530   7.0488830   6.1062290  35.3992530
  14.0641180   2.8320470  22.2622390  14.5034460   1.9942900  22.1160210
  14.7769600   3.4649870  22.3486530   5.8507180   2.8540670  34.9238500
   5.7114950   3.7263470  35.2925900   4.9688540   2.5113480  34.7786440
  12.1736560   7.7716540  26.2303630  12.6132470   8.5140870  25.8159020
  12.1123450   8.0143110  27.1542590   7.6487530   8.7962370  37.1323650
   7.6202960   9.2005320  36.2652080   7.4852500   7.8672730  36.9695250
   1.8025830   4.6238220  30.8409410   1.8806250   4.7586990  29.8965130
   2.4167510   3.9154110  31.0337530   3.0473460   6.3238410  27.2515590
   2.6401540   6.4653000  26.3969190   3.9386470   6.0398570  27.0486800
  19.0035600   6.7702320  35.5887830  19.1298660   6.5314200  34.6705010
  19.0456980   5.9386860  36.0609910  12.8652340  10.4730320  34.1582640
  13.3797010  10.3838330  34.9605070  12.0221420  10.8190020  34.4510550
  14.8406740  10.7585660  23.5866640  14.6807880  10.4688600  24.4848470
  14.6753450   9.9825790  23.0511870   7.3195120  10.5384190  25.3638260
   7.1437600   9.6219730  25.1506060   6.4650860  10.8971480  25.6036060
  14.5432870   8.2673220  22.1464640  13.8498030   8.2650510  21.4866920
  15.2855730   7.8432540  21.7158810  14.1082800   9.8935930  26.2213130
  14.5639750   9.1125310  26.5351750  14.4475320  10.6042750  26.7654310
   1.8585350   5.6652390  33.3803870   2.0216390   5.1957750  32.5623240
   2.3237800   5.1575950  34.0452710   3.4324330   5.0403820  35.5399680
   3.0479120   4.3997490  36.1382640   3.7436520   5.7439940  36.1094410
   5.9002630   5.1349990  23.9359360   5.1264890   4.5947610  23.7758080
   6.6297260   4.6156600  23.5977120  16.6590610   4.1315350  29.7285750
  17.3789730   4.6270640  29.3381860  16.4572430   3.4533240  29.0839620
  12.0409410   4.2024410  35.6154750  11.9746720   3.2820080  35.3612340
  11.4114550   4.2999850  36.3299390   5.9440030   4.8030370  27.5738170
   6.4618700   3.9998630  27.5195060   5.4924050   4.7409510  28.4155000
  10.8309530   6.0696650  22.8465470  11.1725230   6.8138880  22.3508790
  10.0022240   6.3827770  23.2090300   6.6297690   2.2275980  37.3703420
   6.3297830   2.3733160  36.4731240   7.4008930   1.6681270  37.2776810
  11.9726140   7.0244980  35.3658550  11.9870680   6.0925940  35.1477460
  11.2651240   7.1104740  36.0048320  18.1837350   3.6652320  34.7127130
  17.4585540   4.2581100  34.5156520  18.7112810   3.6575860  33.9140500
  18.1350460   8.0627060  24.3639290  17.4926620   7.4082680  24.6383010
  17.7481120   8.4682150  23.5879960  13.7136940   5.3912490  28.2110980
  14.0660760   4.7940620  27.5512350  12.8299270   5.0656720  28.3819230
   9.8000220   6.1510180  25.6181390  10.4871350   6.6979390  25.9988980
   9.0132640   6.6950910  25.6531000   1.9392620   1.7683000  21.1098470
   2.8087470   2.0507800  21.3934390   1.4482940   2.5818870  20.9947280
   9.1027430   3.1556210  25.2306750   9.5590210   3.9661460  25.4566940
   8.7515640   2.8379350  26.0625240  11.4060040   8.6662550  32.4599050
  12.0502260   8.8721930  33.1372470  11.7689480   7.9050950  32.0069900
  12.6792120   6.6694900  31.1776500  13.3214350   5.9688060  31.2908670
  13.2041470   7.4493340  30.9973390  16.5247840   6.9543520  20.9015640
  16.2985420   6.2373960  21.4940280  16.1344040   6.7055960  20.0637390
  14.4529740   7.4689800  34.3812560  14.7885980   8.0556490  35.0590480
  13.5330080   7.3382510  34.6110350   2.3063870  10.9810380  21.6760100
   2.6661510  11.5799720  21.0217370   2.1656210  11.5270270  22.4495130
  16.1064090   4.8715460  22.5629800  15.8185790   5.3328150  23.3507680
  16.9016260   4.4113230  22.8314020   2.2905730   9.2465240  36.1502500
   2.3996850   8.3059980  36.0097890   1.6386290   9.5119990  35.5016230
   8.3232490   8.3641580  22.4933770   8.3142590   9.0971270  21.8778280
   7.4030850   8.1173160  22.5860730   3.9239130   3.5856470  23.2380530
   3.3167080   4.3255370  23.2475830   4.3988480   3.6755830  22.4118730
  11.3092090   8.4269820  21.1558960  11.4104070   8.2233810  20.2260940
  10.4093830   8.1728100  21.3606740   9.9510200  10.9456140  25.8506630
  10.2051700  10.9077530  24.9286000   9.0022680  10.8189470  25.8434880
   5.9344420   3.5467620  20.9869100   6.7007690   3.4348980  21.5494530
   6.0119110   2.8505590  20.3345870  17.9588360   9.0356870  29.1019400
  18.0835780   9.8588040  29.5743210  18.8253920   8.8247600  28.7543550
   5.4305890  11.1288080  28.7736530   6.1668370  10.5803540  29.0445100
   5.8146810  11.9944090  28.6342520   8.5408200  10.3018390  20.5962100
   9.3336810  10.5907220  20.1443890   8.0212550   9.8710560  19.9174580
  14.7029170  10.1494310  36.5206930  15.6550920  10.0652330  36.4707170
  14.5557390  10.8136020  37.1940720  17.5938370   9.5288520  22.0198840
  17.3079880   9.1153660  21.2053020  17.3957920  10.4576230  21.8999360
   2.1561980   2.8007610  36.9058160   2.6601000   2.2214890  37.4774390
   1.4169400   3.0847840  37.4434530   9.0585600   5.5221800  20.4604450
   8.9536240   4.9074150  21.1865830   8.8909820   4.9987690  19.6767460
   9.2099920   4.2078600  36.4393680   8.4445590   4.7763600  36.3548350
   9.3915880   3.9154810  35.5461910  12.2988330   4.5841830  21.0646440
  11.7498430   5.0311130  21.7089180  12.9207590   4.0791080  21.5884110
  16.3523270   5.9383930  36.9968700  17.0932740   6.2759690  36.4936160
  15.5895950   6.1075990  36.4438470   7.9663450   3.5432750  22.9611740
   8.3879870   3.3772620  23.8043130   8.0914290   2.7332980  22.4666880
  10.4791090   2.5670360  20.2088840  10.9996750   1.8519380  19.8429990
  11.1259490   3.2056230  20.5089350  15.0268930   3.9898760  35.5323910
  15.4409950   4.1443840  36.3814330  14.0919930   4.1153980  35.6949690
   9.7884160   3.9419240  33.5019840  10.2072270   4.7851970  33.3296080
   8.8692790   4.0791280  33.2726620  14.4635960   2.2272610  33.4620190
  13.9371180   2.7515230  32.8585330  14.8067300   2.8600000  34.0929920
   7.6391580  10.2472250  34.6177570   7.1012670  10.9718310  34.2986270
   7.8925540   9.7702590  33.8274910  10.4953790  11.4823460  34.8764220
  10.4212490  12.3858600  35.1836590   9.5932630  11.1635360  34.8486290
  11.0439120  10.6481970  22.4990580  11.9389910  10.9866940  22.5209340
  11.0756750   9.9261380  21.8714860   4.6835280   6.0209020  20.7277580
   5.1210150   6.5638690  21.3835160   5.1683010   5.1955970  20.7373920
   1.8981080   8.8098050  28.1797840   2.2284090   7.9419110  27.9476480
   2.3272080   9.0156570  29.0102800   6.4943000   7.1407060  25.8399810
   6.1938540   7.0172030  26.7403720   6.3880490   6.2815650  25.4315540
   2.3871290   9.6768640  30.9179470   1.9502280   9.8569440  31.7503620
   2.9548970  10.4343260  30.7761190  18.0233470   9.1785640  35.2056780
  17.4235460   9.2378200  34.4620700  18.1527370   8.2390620  35.3353630
  19.2634920   6.9203460  20.5426490  18.4327880   6.9880110  21.0133720
  19.4406750   7.8107580  20.2393350  18.7191380   3.6650940  23.0460690
  19.4810290   4.2347590  23.1520380  18.7345750   3.0978140  23.8169000
   2.2195720   2.1888870  27.2768350   1.5644560   1.9200510  26.6328050
   3.0573670   2.0793350  26.8270330  19.7251350   4.5201040  27.8902620
  20.0960180   3.7368360  27.4838590  20.3653280   5.2090140  27.7119920
  16.7085110   5.9037620  33.3032940  15.8944950   6.3334780  33.5658730
  17.1159310   6.5156030  32.6901990  18.7710550   3.9585310  20.2033210
  19.0459390   4.8664190  20.0752430  18.5821290   3.8947840  21.1395200
   3.2571650   2.5741440  31.8171690   3.6244690   2.4868840  32.6967710
   2.6882470   1.8107990  31.7178550  16.7661160  10.6556220  26.8301210
  17.3620230  10.3340790  26.1535630  17.0239310  10.1828040  27.6214480
   4.6723730   7.0874130  36.9791840   4.6293360   6.7167040  37.8606300
   4.8034740   8.0251700  37.1193660   8.3729760   8.6433720  32.5801560
   8.1321120   8.9108280  31.6932080   9.3132400   8.8139450  32.6352420
  19.6333920  10.6628100  33.3812200  19.1392200  11.0596970  32.6639330
  19.0247210  10.0377310  33.7749480   4.5111760  10.0336380  34.0989620
   3.9172080   9.9021080  34.8379660   4.5035600   9.1974520  33.6331720
  17.3173370  11.3051520  30.6598940  16.8576340  12.0567330  30.2856960
  16.6885830  10.5857990  30.6013740   4.1423990   7.3994760  33.0497660
   3.4158050   6.7800050  32.9823610   4.2033140   7.7935370  32.1795740
   7.7469090   9.6139760  29.8347070   8.2634110   9.0027120  29.3095330
   8.3966470  10.1168540  30.3258080  10.4864590  10.5048250  30.6616050
  10.7742400  10.2502550  29.7849060  10.9987810   9.9525610  31.2521620
   2.4253990  10.7169150  26.2594420   2.2576030  10.0839830  26.9576310
   1.5588500  10.9228550  25.9088610   4.0316690   9.4102380  23.7044560
   3.5064310   9.7910410  23.0006520   3.9561270  10.0353150  24.4254270
  18.7882010  10.9689920  25.0258500  18.9634200  10.2827660  24.3819420
  18.0903580  11.4936970  24.6335170   6.6309660  11.3584760  22.5793810
   7.3628480  11.0744040  22.0317700   6.8903330  11.1198040  23.4693190
   5.7924450   7.4749490  22.5840140   5.1633330   7.9434590  23.1325970
   5.9072280   6.6298710  23.0186330  11.3792210   3.3034170  10.6150610
  10.6034310   2.8234610  10.9049180  12.0305140   2.6239820  10.4406770
   5.3958040   3.6153980  11.4926370   4.5642920   3.3602690  11.8922880
   6.0039020   3.6864750  12.2284290  15.3999640   7.7094360   9.3949740
  14.9381170   6.9381600   9.7236910  16.2125190   7.7360430   9.9002190
   5.3759300   7.6494070  11.6884390   5.6787340   6.7591810  11.5094610
   6.1202890   8.2064290  11.4606640  11.6262950   9.9952370   9.0153730
  11.0074390  10.4509870   8.4448170  12.4814730  10.1503830   8.6143430
  10.8201200   5.9791360  10.6220770  10.7509480   5.0381300  10.4609900
  11.5821060   6.0692770  11.1943340  12.4926300   4.8791610   6.4085640
  11.8743570   5.3441060   5.8448360  13.0049550   5.5719090   6.8255150
   7.3558060   4.4067480  13.0869240   7.0227440   5.0336400  13.7290310
   7.5324740   4.9329360  12.3070910   6.5677160   6.3748280  14.9018420
   7.1851160   7.0499360  14.6202870   5.7070280   6.7836260  14.8105920
   1.8609500   5.5648140   3.7825270   1.4837480   6.0535240   3.0510170
   2.1182570   6.2373420   4.4131800  17.4854750   7.8387690  12.8173060
  16.8018270   8.5086800  12.8089730  18.0249040   8.0368340  12.0517920
  15.0213490   9.6831820  11.5318240  15.0340650   9.2794110  10.6640500
  14.4688710  10.4579110  11.4279670  16.3158910   6.4048040   6.6208410
  16.2055240   5.4622370   6.7457830  16.3127160   6.7663680   7.5071170
  14.4198930   4.5861660  12.8600850  14.8367720   4.3721770  12.0254310
  15.1438750   4.8434450  13.4309470  11.8579190   2.0313360   5.9770900
  10.9308470   1.9650740   6.2059370  12.0104010   2.9693490   5.8626140
  18.3661030   2.9848880  12.9517090  17.5379660   3.0541970  12.4767220
  18.9611510   3.5703190  12.4832920  15.8876480   3.5933660   6.4806150
  15.2688900   3.2553210   5.8332450  15.8700930   2.9493420   7.1885340
   7.4635830   2.5578100   8.7590630   7.0592830   1.8455350   8.2636530
   7.5498950   2.2131340   9.6478670   7.9317530   6.2445660  10.9229840
   7.6345820   5.6391130  10.2437620   8.8817350   6.2822970  10.8119200
  16.0203140   9.8177530  14.5852940  15.5433700  10.6249720  14.3925550
  15.3364930   9.1655860  14.7379150   7.0235960   5.9827350  17.5737640
   6.1264490   6.2067320  17.8211040   7.0488830   6.1062290  16.6249040
  14.0641180   2.8320470   3.4878900  14.5034460   1.9942900   3.3416720
  14.7769600   3.4649870   3.5743040   5.8507180   2.8540670  16.1495010
   5.7114950   3.7263470  16.5182410   4.9688540   2.5113480  16.0042950
  12.1736560   7.7716540   7.4560140  12.6132470   8.5140870   7.0415530
  12.1123450   8.0143110   8.3799100   7.6487530   8.7962370  18.3580160
   7.6202960   9.2005320  17.4908590   7.4852500   7.8672730  18.1951760
  19.6002350   9.5789470  19.6544330  20.0762070  10.0572360  20.3333410
  20.2209510   9.5106960  18.9289830   1.8025830   4.6238220  12.0665920
   1.8806250   4.7586990  11.1221640   2.4167510   3.9154110  12.2594040
   3.0473460   6.3238410   8.4772100   2.6401540   6.4653000   7.6225700
   3.9386470   6.0398570   8.2743310  19.0035600   6.7702320  16.8144340
  19.1298660   6.5314200  15.8961520  19.0456980   5.9386860  17.2866420
  12.8652340  10.4730320  15.3839150  13.3797010  10.3838330  16.1861580
  12.0221420  10.8190020  15.6767060  14.8406740  10.7585660   4.8123150
  14.6807880  10.4688600   5.7104980  14.6753450   9.9825790   4.2768380
   7.3195120  10.5384190   6.5894770   7.1437600   9.6219730   6.3762570
   6.4650860  10.8971480   6.8292570  14.5432870   8.2673220   3.3721150
  13.8498030   8.2650510   2.7123430  15.2855730   7.8432540   2.9415320
  14.1082800   9.8935930   7.4469640  14.5639750   9.1125310   7.7608260
  14.4475320  10.6042750   7.9910820   1.8585350   5.6652390  14.6060380
   2.0216390   5.1957750  13.7879750   2.3237800   5.1575950  15.2709220
   3.4324330   5.0403820  16.7656190   3.0479120   4.3997490  17.3639150
   3.7436520   5.7439940  17.3350920   5.9002630   5.1349990   5.1615870
   5.1264890   4.5947610   5.0014590   6.6297260   4.6156600   4.8233630
  16.6590610   4.1315350  10.9542260  17.3789730   4.6270640  10.5638370
  16.4572430   3.4533240  10.3096130  12.0409410   4.2024410  16.8411260
  11.9746720   3.2820080  16.5868850  11.4114550   4.2999850  17.5555900
   5.9440030   4.8030370   8.7994680   6.4618700   3.9998630   8.7451570
   5.4924050   4.7409510   9.6411510  10.8309530   6.0696650   4.0721980
  11.1725230   6.8138880   3.5765300  10.0022240   6.3827770   4.4346810
   6.6297690   2.2275980  18.5959930   6.3297830   2.3733160  17.6987750
   7.4008930   1.6681270  18.5033320  11.9726140   7.0244980  16.5915060
  11.9870680   6.0925940  16.3733970  11.2651240   7.1104740  17.2304830
  18.1837350   3.6652320  15.9383640  17.4585540   4.2581100  15.7413030
  18.7112810   3.6575860  15.1397010  18.1350460   8.0627060   5.5895800
  17.4926620   7.4082680   5.8639520  17.7481120   8.4682150   4.8136470
  13.7136940   5.3912490   9.4367490  14.0660760   4.7940620   8.7768860
  12.8299270   5.0656720   9.6075740   9.8000220   6.1510180   6.8437900
  10.4871350   6.6979390   7.2245490   9.0132640   6.6950910   6.8787510
   1.9392620   1.7683000   2.3354980   2.8087470   2.0507800   2.6190900
   1.4482940   2.5818870   2.2203790   9.1027430   3.1556210   6.4563260
   9.5590210   3.9661460   6.6823450   8.7515640   2.8379350   7.2881750
  11.4060040   8.6662550  13.6855560  12.0502260   8.8721930  14.3628980
  11.7689480   7.9050950  13.2326410  12.6792120   6.6694900  12.4033010
  13.3214350   5.9688060  12.5165180  13.2041470   7.4493340  12.2229900
  14.4529740   7.4689800  15.6069070  14.7885980   8.0556490  16.2846990
  13.5330080   7.3382510  15.8366860   2.3063870  10.9810380   2.9016610
   2.6661510  11.5799720   2.2473880   2.1656210  11.5270270   3.6751640
  16.1064090   4.8715460   3.7886310  15.8185790   5.3328150   4.5764190
  16.9016260   4.4113230   4.0570530   2.2905730   9.2465240  17.3759010
   2.3996850   8.3059980  17.2354400   1.6386290   9.5119990  16.7272740
  10.2818320   7.5181130  18.7757130   9.9615190   6.7990370  19.3202820
   9.6076680   8.1936200  18.8493190   8.3232490   8.3641580   3.7190280
   8.3142590   9.0971270   3.1034790   7.4030850   8.1173160   3.8117240
   3.9239130   3.5856470   4.4637040   3.3167080   4.3255370   4.4732340
   4.3988480   3.6755830   3.6375240  11.3092090   8.4269820   2.3815470
  11.4104070   8.2233810   1.4517450  10.4093830   8.1728100   2.5863250
   9.9510200  10.9456140   7.0763140  10.2051700  10.9077530   6.1542510
   9.0022680  10.8189470   7.0691390   5.9344420   3.5467620   2.2125610
   6.7007690   3.4348980   2.7751040   6.0119110   2.8505590   1.5602380
  17.9588360   9.0356870  10.3275910  18.0835780   9.8588040  10.7999720
  18.8253920   8.8247600   9.9800060   5.4305890  11.1288080   9.9993040
   6.1668370  10.5803540  10.2701610   5.8146810  11.9944090   9.8599030
   4.4364170  10.3134150  19.1878620   5.2376900  10.6346200  19.6014020
   3.9215990   9.9529730  19.9098530  13.2728800   6.4214020  19.1354030
  12.6666960   6.4445620  18.3949780  12.9682910   5.6897060  19.6721280
  14.7029170  10.1494310  17.7463440  15.6550920  10.0652330  17.6963680
  14.5557390  10.8136020  18.4197230  17.5938370   9.5288520   3.2455350
  17.3079880   9.1153660   2.4309530  17.3957920  10.4576230   3.1255870
   2.1561980   2.8007610  18.1314670   2.6601000   2.2214890  18.7030900
   1.4169400   3.0847840  18.6691040   9.2099920   4.2078600  17.6650190
   8.4445590   4.7763600  17.5804860   9.3915880   3.9154810  16.7718420
  12.2988330   4.5841830   2.2902950  11.7498430   5.0311130   2.9345690
  12.9207590   4.0791080   2.8140620  16.3523270   5.9383930  18.2225210
  17.0932740   6.2759690  17.7192670  15.5895950   6.1075990  17.6694980
   7.9663450   3.5432750   4.1868250   8.3879870   3.3772620   5.0299640
   8.0914290   2.7332980   3.6923390  15.0268930   3.9898760  16.7580420
  15.4409950   4.1443840  17.6070840  14.0919930   4.1153980  16.9206200
   9.7884160   3.9419240  14.7276350  10.2072270   4.7851970  14.5552590
   8.8692790   4.0791280  14.4983130  14.4635960   2.2272610  14.6876700
  13.9371180   2.7515230  14.0841840  14.8067300   2.8600000  15.3186430
   7.6391580  10.2472250  15.8434080   7.1012670  10.9718310  15.5242780
   7.8925540   9.7702590  15.0531420  10.4953790  11.4823460  16.1020730
  10.4212490  12.3858600  16.4093100   9.5932630  11.1635360  16.0742800
  11.0439120  10.6481970   3.7247090  11.9389910  10.9866940   3.7465850
  11.0756750   9.9261380   3.0971370   4.6835280   6.0209020   1.9534090
   5.1210150   6.5638690   2.6091670   5.1683010   5.1955970   1.9630430
   1.8981080   8.8098050   9.4054350   2.2284090   7.9419110   9.1732990
   2.3272080   9.0156570  10.2359310   6.4943000   7.1407060   7.0656320
   6.1938540   7.0172030   7.9660230   6.3880490   6.2815650   6.6572050
   2.3871290   9.6768640  12.1435980   1.9502280   9.8569440  12.9760130
   2.9548970  10.4343260  12.0017700  18.0233470   9.1785640  16.4313290
  17.4235460   9.2378200  15.6877210  18.1527370   8.2390620  16.5610140
  19.2634920   6.9203460   1.7683000  18.4327880   6.9880110   2.2390230
  19.4406750   7.8107580   1.4649860  18.7191380   3.6650940   4.2717200
  19.4810290   4.2347590   4.3776890  18.7345750   3.0978140   5.0425510
   2.2195720   2.1888870   8.5024860   1.5644560   1.9200510   7.8584560
   3.0573670   2.0793350   8.0526840  19.7251350   4.5201040   9.1159130
  20.0960180   3.7368360   8.7095100  20.3653280   5.2090140   8.9376430
  16.7085110   5.9037620  14.5289450  15.8944950   6.3334780  14.7915240
  17.1159310   6.5156030  13.9158500   3.2571650   2.5741440  13.0428200
   3.6244690   2.4868840  13.9224220   2.6882470   1.8107990  12.9435060
  16.7661160  10.6556220   8.0557720  17.3620230  10.3340790   7.3792140
  17.0239310  10.1828040   8.8470990   4.6723730   7.0874130  18.2048350
   4.6293360   6.7167040  19.0862810   4.8034740   8.0251700  18.3450170
   8.3729760   8.6433720  13.8058070   8.1321120   8.9108280  12.9188590
   9.3132400   8.8139450  13.8608930  19.6333920  10.6628100  14.6068710
  19.1392200  11.0596970  13.8895840  19.0247210  10.0377310  15.0005990
   4.5111760  10.0336380  15.3246130   3.9172080   9.9021080  16.0636170
   4.5035600   9.1974520  14.8588230  17.3173370  11.3051520  11.8855450
  16.8576340  12.0567330  11.5113470  16.6885830  10.5857990  11.8270250
   4.1423990   7.3994760  14.2754170   3.4158050   6.7800050  14.2080120
   4.2033140   7.7935370  13.4052250   7.7469090   9.6139760  11.0603580
   8.2634110   9.0027120  10.5351840   8.3966470  10.1168540  11.5514590
  10.4864590  10.5048250  11.8872560  10.7742400  10.2502550  11.0105570
  10.9987810   9.9525610  12.4778130   2.4253990  10.7169150   7.4850930
   2.2576030  10.0839830   8.1832820   1.5588500  10.9228550   7.1345120
   4.0316690   9.4102380   4.9301070   3.5064310   9.7910410   4.2263030
   3.9561270  10.0353150   5.6510780  10.5536950  11.4264350  19.2540760
  11.4804260  11.1908620  19.2976720  10.5387380  12.2536350  18.7726790
  18.7882010  10.9689920   6.2515010  18.9634200  10.2827660   5.6075930
  18.0903580  11.4936970   5.8591680   6.6309660  11.3584760   3.8050320
   7.3628480  11.0744040   3.2574210   6.8903330  11.1198040   4.6949700
   5.7924450   7.4749490   3.8096650   5.1633330   7.9434590   4.3582480
   5.9072280   6.6298710   4.2442840  17.1214510  10.6534210  19.0781800
  17.9139830  10.1583440  18.8707760  17.4147660  11.3324350  19.6857410
  39.8061410  42.1177590  39.5609130  90.0000000  90.0000000  90.0000000
