LIG
  4846
  20.1537617  21.6256138  18.3860634  20.1377617  20.2296138  17.8390634
  18.9267617  22.4016138  18.0470634  18.8317617  19.4976138  18.2520634
  17.6357617  21.6176138  18.3940634  17.6647617  20.2756138  17.7920634
  18.7817617  19.3576138  19.7560634  17.4037617  21.4756138  19.9100634
  16.4847617  19.7306138  17.3170634  19.4627617  18.3616138  20.4370634
  18.1697617  20.3316138  20.5360634  15.4487617  20.3876138  17.2270634
  16.5137617  18.2886138  16.8820634  19.4947617  18.3226138  21.7770634
  18.1897617  20.2966138  21.8820634  18.8717617  19.2956138  22.4690634
  21.6327617  22.4526138  18.3460634  22.5707617  21.6646138  17.5760634
  21.9417617  22.8756138  19.6960634  21.2727617  23.9036138  17.4140634
  20.9327617  23.7856138  16.0790634  21.3877617  25.1736138  17.9760634
  20.6417617  24.8516138  15.2940634  21.1097617  26.2836138  17.1840634
  20.7397617  26.0746138  15.8630634  18.9287617  19.2536138  23.9760634
  18.1697617  18.1896138  24.7370634  19.6657617  18.1336138  24.6740634
  20.1047617  17.3506138  19.6940634  19.8907617  16.4636138  20.1430634
  21.5517617  17.5006138  19.5430634  22.2317617  17.2436138  20.8560634
  23.7277617  17.0576138  20.9270634  22.8147617  15.8896138  21.1780634
  20.1987617  20.2696138  16.7420634  20.9977617  19.6786138  18.2470634
  18.9337617  23.3436138  18.6150634  18.9307617  22.5916138  16.9640634
  18.8117617  18.4986138  17.7910634  16.8057617  22.2076138  17.9780634
  17.7147617  22.4106138  20.3990634  16.3337617  21.2626138  20.0540634
  16.5267617  17.6376138  17.7690634  15.6197617  18.0696138  16.2800634
  17.4157617  18.1056138  16.2800634  20.8957617  22.7806138  15.6330634
  21.6917617  25.2966138  19.0260634  21.1817617  27.3016138  17.5940634
  20.5137617  26.9536138  15.2430634  18.9687617  20.3526138  24.0020634
  17.6687617  18.4426138  25.6830634  17.3557617  17.4906138  24.4920634
  20.1617617  17.3496138  24.0820634  20.4727617  18.0816138  25.4200634
  21.9167617  16.7796138  18.7970634  21.7777617  18.5246138  19.2130634
  21.5047617  17.9126138  21.3400634  24.3307617  17.0966138  20.0070634
  24.5457617  17.5396138  21.4830634  22.7177617  15.4766138  22.1930634
  22.7117617  14.8796138  20.7570634  31.9874830  39.0742130  37.4360710
  31.9068880  38.1596740  37.1652420  31.5739250  39.5709200  36.7300420
  22.5450650  36.1242850  33.9788130  21.6567350  36.4658820  33.8768010
  22.8291840  35.9243170  33.0868960  24.7212040  34.7074350  35.0126510
  24.8278790  35.6078080  35.3195270  23.8104400  34.6592320  34.7221160
  34.3731150  33.8299160  36.4837410  35.1940770  33.3395730  36.5262890
  34.4065230  34.4196820  37.2369250  28.2099090  31.5151510  37.9430150
  28.5174070  30.9598400  37.2265650  27.2799790  31.6495970  37.7603140
  30.5979850  39.5800340  34.6790270  29.6709130  39.5137720  34.9078740
  30.7504670  40.5180470  34.5645510  30.5848930  35.8517340  31.6757430
  29.6452600  36.0131300  31.7609890  30.9032190  36.5703020  31.1293420
  26.2036490  40.1065080  37.4610000  25.7993490  39.3942330  36.9655900
  26.2899610  39.7618320  38.3498040  36.3858980  31.6350260  30.5039310
  36.0731640  31.7277090  31.4038380  37.1471450  32.2131290  30.4536740
  22.9041120  39.0010060  34.9616650  22.7838720  39.7272150  34.3497920
  22.5942010  38.2312970  34.4844560  25.3704780  32.3445130  38.3440320
  24.9272930  33.1254670  38.0124840  25.9289770  32.6675020  39.0511260
  28.4863600  31.9655830  33.2246150  27.8617780  31.9615700  33.9499460
  28.3993720  31.0986790  32.8282120  25.1619000  37.4678700  36.0721570
  24.9359920  37.2515870  36.9768190  24.3811530  37.9007160  35.7267540
  32.3916760  37.4742070  34.6712220  31.7925650  38.1977870  34.4875840
  32.9396370  37.4118850  33.8888670  30.9981630  36.1105610  36.7015500
  31.3911200  36.4277810  35.8884190  31.3598480  35.2317490  36.8160020
  20.2216030  36.6426530  30.1348420  20.1390700  37.5857290  30.2763410
  19.8699090  36.5001440  29.2560770  23.8716540  35.2592050  38.1612980
  23.5316590  35.7367280  38.9180030  23.1093860  34.8057170  37.8014080
  28.0834310  36.3777640  32.1925530  28.2047130  36.3364120  33.1411350
  27.6982820  37.2401790  32.0372260  27.0955810  38.6878780  31.5908830
  26.5272710  38.2397030  30.9644740  27.8044810  39.0471560  31.0573980
  21.1862620  34.1811030  37.0777650  20.9009540  33.8166700  37.9156270
  21.1241480  33.4491490  36.4640790  30.8601210  33.0740290  33.7991020
  30.0465820  32.5753460  33.7236330  30.6663160  33.9138540  33.3827370
  33.5749600  37.4459940  32.0953180  34.4629220  37.7577170  31.9204520
  33.5454690  36.5732190  31.7033760  35.8463870  38.7571780  31.5633040
  35.7627590  39.1886000  30.7129480  36.5658060  39.2170130  31.9959860
  20.6793280  39.3169980  31.0374350  21.5488130  39.5994780  31.3210270
  20.1883600  40.1305850  30.9223160  23.7439870  31.0480840  35.6305150
  23.6154500  31.0398740  36.5790070  22.9201890  31.3863930  35.2796160
  35.6034610  34.2551210  33.6500860  34.9747770  34.3596880  32.9359090
  35.1086530  34.4747990  34.4394740  27.5718640  36.5337160  35.0658740
  26.8634790  37.0023500  35.5072350  27.8563120  35.8759170  35.7003930
  31.6034070  33.2587820  36.5054530  31.4801850  33.2773950  35.5564040
  32.5518630  33.3066760  36.6252930  25.7753660  34.8422240  32.4409450
  26.6244190  35.2792390  32.3749640  25.4084930  35.1542500  33.2681510
  34.6963440  39.4135000  37.3541020  33.7553580  39.4285230  37.5288710
  35.0107510  38.6270960  37.8001320  23.3691840  38.5279670  31.5977870
  23.4495430  37.5807180  31.7095270  24.2611590  38.8586550  31.7038530
  29.2191750  40.1157340  30.1364720  29.7397410  39.4006360  29.7705870
  29.8660150  40.7543210  30.4365230  25.6023010  37.1652960  29.8345780
  25.4012070  36.3020320  30.1959120  25.4315060  37.0786320  28.8967380
  33.0811320  31.9761190  32.3632660  33.3613610  31.1329090  32.7192080
  32.3077050  32.2084300  32.8771410  24.4005810  34.2653580  29.8223660
  24.7031710  34.2721010  28.9142810  25.1400400  33.9151440  30.3191320
  27.6190740  33.2088200  30.8079860  27.2712740  32.5312190  30.2282310
  27.8203510  32.7477710  31.6223250  20.9596380  39.7375850  37.2044230
  20.3045220  39.4687490  36.5603930  21.7974330  39.6280330  36.7546210
  33.9086820  34.5317140  31.4262720  34.3271700  34.3448120  30.5859380
  33.6022880  33.6796190  31.7365650  37.4076550  39.4441280  35.1238520
  37.0320150  38.6769210  34.6919810  36.6779670  39.8263980  35.6113450
  20.1734460  36.9474780  33.1469560  19.2698540  37.2104980  32.9721220
  20.6575080  37.2185950  32.3669520  22.7161670  36.0040320  31.0563940
  23.4253370  35.5823540  30.5711220  22.0001610  36.0715550  30.4247290
  22.3635830  32.0579650  30.0966590  23.0863960  32.5988590  30.4147810
  22.6360350  31.7843070  29.2208130  36.1727480  36.9272120  34.3638170
  36.6686600  36.6942990  35.1487050  35.9743550  36.0883960  33.9475810
  36.8601900  32.1263770  37.2246350  36.7990300  31.1824990  37.0777370
  37.6393930  32.2343860  37.7699810  21.7882670  32.0972910  33.6902160
  22.5462030  32.2101790  33.1166190  21.3259840  32.9342110  33.6445590
  28.3296480  34.2112180  36.6804470  27.5170990  33.8369070  36.3400350
  28.8338120  33.4557260  36.9825660  32.8321460  30.8754630  37.9187540
  33.4350830  31.4474840  38.3936060  32.0914450  31.4394070  37.6961440
  35.9756060  31.2776190  33.1927820  36.1706690  32.1759640  33.4595250
  35.1885930  31.0463270  33.6860770  24.1607820  32.6236960  32.2304130
  24.6900580  31.8366760  32.1012080  24.7936140  33.3028150  32.4639660
  26.3545660  32.3612100  35.2849520  25.7248400  31.6599410  35.4519650
  25.8150800  33.1216230  35.0682680  31.9874830  39.0742130  18.6617220
  31.9068880  38.1596740  18.3908930  31.5739250  39.5709200  17.9556930
  22.5450650  36.1242850  15.2044640  21.6567350  36.4658820  15.1024520
  22.8291840  35.9243170  14.3125470  20.5083660  38.7248500  21.0884340
  21.0799770  37.9570700  21.0887980  20.5085200  39.0237260  20.1790950
  21.7508530  34.1332860  22.8753270  21.5711370  33.2358610  23.1556030
  21.3488610  34.6804730  23.5500220  30.5907030  36.3348720  20.7765580
  30.9671850  35.4620600  20.6639250  30.4926540  36.6707420  19.8856020
  24.7212040  34.7074350  16.2383020  24.8278790  35.6078080  16.5451780
  23.8104400  34.6592320  15.9477670  34.3731150  33.8299160  17.7093920
  35.1940770  33.3395730  17.7519400  34.4065230  34.4196820  18.4625760
  22.3695200  36.6293360  21.4835610  23.0505310  36.8931730  22.1023010
  22.0543250  35.7894230  21.8173620  26.5619770  37.6760720  20.5708200
  27.0697990  38.1741690  21.2113220  27.0933010  36.8995920  20.3947560
  24.8455870  32.3159280  24.8371620  24.8474310  32.8331670  24.0317520
  24.0160180  31.8389460  24.8141550  34.6092630  35.7699540  20.4821460
  33.9048200  36.0584430  21.0624570  34.9704790  36.5799650  20.1221020
  24.5271200  34.0269240  22.8442070  24.8688010  34.8711290  22.5495940
  23.5887010  34.1752980  22.9607410  37.6779550  35.2154330  20.8730670
  36.7304460  35.2493310  21.0046100  38.0029540  36.0293280  21.2580030
  28.2099090  31.5151510  19.1686660  28.5174070  30.9598400  18.4522160
  27.2799790  31.6495970  18.9859650  30.5979850  39.5800340  15.9046780
  29.6709130  39.5137720  16.1335250  30.7504670  40.5180470  15.7902020
  30.5848930  35.8517340  12.9013940  29.6452600  36.0131300  12.9866400
  30.9032190  36.5703020  12.3549930  34.0703700  37.3205180  23.8247840
  33.6574880  38.1458890  24.0787830  33.3379650  36.7350220  23.6324200
  26.2036490  40.1065080  18.6866510  25.7993490  39.3942330  18.1912410
  26.2899610  39.7618320  19.5754550  24.9165110  36.8808290  22.4665550
  25.4679700  36.9903630  21.6918800  25.4308620  37.2545890  23.1820780
  36.3858980  31.6350260  11.7295820  36.0731640  31.7277090  12.6294890
  37.1471450  32.2131290  11.6793250  22.9041120  39.0010060  16.1873160
  22.7838720  39.7272150  15.5754430  22.5942010  38.2312970  15.7101070
  37.5960270  36.3721760  27.7069960  36.9804540  36.8801430  27.1785420
  37.2756690  35.4720090  27.6495900  25.3704780  32.3445130  19.5696830
  24.9272930  33.1254670  19.2381350  25.9289770  32.6675020  20.2767770
  29.6574590  35.2113650  25.1732150  29.1953960  35.4196670  25.9852090
  29.2552700  34.3973000  24.8702820  34.6579100  36.4322600  26.3028810
  33.8072690  36.1328350  26.6237880  34.4980890  36.6764610  25.3912630
  31.7528810  37.9324350  28.4027600  32.0782220  37.0988100  28.0629830
  32.5409140  38.4552870  28.5505930  28.4863600  31.9655830  14.4502660
  27.8617780  31.9615700  15.1755970  28.3993720  31.0986790  14.0538630
  27.4080680  32.8892460  21.4286430  27.7053010  33.7955290  21.3478450
  27.9566240  32.4011240  20.8146000  25.1619000  37.4678700  17.2978080
  24.9359920  37.2515870  18.2024700  24.3811530  37.9007160  16.9524050
  32.3916760  37.4742070  15.8968730  31.7925650  38.1977870  15.7132350
  32.9396370  37.4118850  15.1145180  27.6018210  38.3664280  27.9638350
  27.5061810  37.4259010  27.8138750  28.4450190  38.5879350  27.5686420
  30.9981630  36.1105610  17.9272010  31.3911200  36.4277810  17.1140700
  31.3598480  35.2317490  18.0416530  22.7328750  34.7777950  26.1172130
  22.3392140  35.6253160  26.3244910  22.0447150  34.1404320  26.3080770
  29.3073800  34.8612920  29.1868870  28.6172120  34.6685120  29.8214960
  30.0506100  35.1447560  29.7193170  20.0345800  32.7006410  20.1502210
  19.7458850  33.2709270  20.8627190  20.7791560  32.2210860  20.5133440
  20.2216030  36.6426530  11.3604930  20.1390700  37.5857290  11.5019920
  19.8699090  36.5001440  10.4817280  31.5836770  38.7011360  22.0222790
  30.8517890  39.2098170  22.3712890  31.1861110  37.8841340  21.7211570
  28.0214160  35.3765560  20.4275280  28.0250220  34.9355510  19.5779820
  28.9165280  35.6982890  20.5347100  23.8716540  35.2592050  19.3869490
  23.5316590  35.7367280  20.1436540  23.1093860  34.8057170  19.0270590
  28.0834310  36.3777640  13.4182040  28.2047130  36.3364120  14.3667860
  27.6982820  37.2401790  13.2628770  32.0462680  34.1545040  21.4345730
  32.0635420  34.6053690  22.2787580  31.7978260  33.2550680  21.6479170
  27.0955810  38.6878780  12.8165340  26.5272710  38.2397030  12.1901250
  27.8044810  39.0471560  12.2830490  35.4733430  31.5677220  27.2732110
  35.7979200  30.8366880  27.7990090  35.5089940  31.2490860  26.3713100
  28.3222130  39.4367340  22.1740690  28.6892260  38.9625910  22.9202030
  28.1327190  40.3108910  22.5149030  21.1862620  34.1811030  18.3034160
  20.9009540  33.8166700  19.1412780  21.1241480  33.4491490  17.6897300
  26.1121500  38.4775980  24.4924900  25.8078570  39.3567960  24.7175260
  27.0667960  38.5375770  24.5282340  30.8601210  33.0740290  15.0247530
  30.0465820  32.5753460  14.9492840  30.6663160  33.9138540  14.6083880
  33.5749600  37.4459940  13.3209690  34.4629220  37.7577170  13.1461030
  33.5454690  36.5732190  12.9290270  22.1685230  39.3178720  25.6396260
  21.8100170  39.9832570  26.2269600  21.8739790  38.4862270  26.0108880
  25.3698350  39.7762960  28.5235810  25.0698490  39.9220140  27.6263630
  26.1409590  39.2168250  28.4309200  35.8463870  38.7571780  12.7889550
  35.7627590  39.1886000  11.9385990  36.5658060  39.2170130  13.2216370
  20.6793280  39.3169980  12.2630860  21.5488130  39.5994780  12.5466780
  20.1883600  40.1305850  12.1479670  23.7439870  31.0480840  16.8561660
  23.6154500  31.0398740  17.8046580  22.9201890  31.3863930  16.5052670
  20.7433800  32.8071960  26.3168360  20.0292320  33.0068880  26.9220970
  21.1628840  32.0311530  26.6883160  32.2372580  35.2994270  24.0669810
  32.6053400  34.4789480  24.3949380  31.3770780  35.3596160  24.4825460
  35.6034610  34.2551210  14.8757370  34.9747770  34.3596880  14.1615600
  35.1086530  34.4747990  15.6651250  27.5718640  36.5337160  16.2915250
  26.8634790  37.0023500  16.7328860  27.8563120  35.8759170  16.9260440
  29.1974570  37.9533860  24.2907780  29.6959820  38.4279680  24.9559630
  29.3397520  37.0297380  24.4977810  31.6034070  33.2587820  17.7311040
  31.4801850  33.2773950  16.7820550  32.5518630  33.3066760  17.8509440
  25.7753660  34.8422240  13.6665960  26.6244190  35.2792390  13.6006150
  25.4084930  35.1542500  14.4938020  36.4041430  34.1701820  25.1336170
  35.9015030  34.9107220  25.4729980  37.2198090  34.5585820  24.8172960
  34.6963440  39.4135000  18.5797530  33.7553580  39.4285230  18.7545220
  35.0107510  38.6270960  19.0257830  23.3691840  38.5279670  12.8234380
  23.4495430  37.5807180  12.9351780  24.2611590  38.8586550  12.9295040
  20.8962640  40.3494590  28.0590550  21.4001660  39.7701870  28.6306780
  20.1570060  40.6334820  28.5966920  22.9285720  38.4924180  28.9540620
  22.9691060  38.1938050  29.8625850  23.7831220  38.8931790  28.7948140
  24.8691530  37.0716280  26.9215110  24.3387990  36.5807230  26.2938450
  25.5379600  37.5000480  26.3873040  29.2191750  40.1157340  11.3621230
  29.7397410  39.4006360  10.9962380  29.8660150  40.7543210  11.6621740
  34.2391760  38.8781900  28.6895450  34.8212530  38.1234220  28.6015930
  34.4153530  39.4089340  27.9126930  25.3563830  34.0378650  27.0012400
  25.2620700  33.4199400  26.2763270  24.7761220  34.7644940  26.7742310
  28.1225270  32.5951890  24.0339790  27.6742570  32.6176150  23.1885340
  27.4890470  32.1970910  24.6310090  30.8648720  39.2222400  26.0390070
  30.9844930  38.6263540  26.7784910  31.7242720  39.2592090  25.6191370
  33.2036620  39.7759590  24.6152580  32.6771840  40.3002210  24.0117720
  33.5467960  40.4086980  25.2462310  25.6023010  37.1652960  11.0602290
  25.4012070  36.3020320  11.4215630  25.4315060  37.0786320  10.1223890
  27.6317490  35.7643750  27.2965890  28.2217180  35.4559600  27.9843710
  26.8137730  35.2923500  27.4525790  32.4510920  35.3809560  27.5298910
  31.7626440  34.7191100  27.4648900  33.1716940  34.9347830  27.9747370
  33.0811320  31.9761190  13.5889170  33.3613610  31.1329090  13.9448590
  32.3077050  32.2084300  14.1027920  24.4005810  34.2653580  11.0480170
  24.7031710  34.2721010  10.1399320  25.1400400  33.9151440  11.5447830
  27.6190740  33.2088200  12.0336370  27.2712740  32.5312190  11.4538820
  27.8203510  32.7477710  12.8479760  20.9596380  39.7375850  18.4300740
  20.3045220  39.4687490  17.7860440  21.7974330  39.6280330  17.9802720
  33.9086820  34.5317140  12.6519230  34.3271700  34.3448120  11.8115890
  33.6022880  33.6796190  12.9622160  37.4076550  39.4441280  16.3495030
  37.0320150  38.6769210  15.9176320  36.6779670  39.8263980  16.8369960
  21.9972310  40.1228420  22.9704080  22.3645350  40.0355820  23.8500100
  21.4283130  39.3594970  22.8710940  36.7976170  38.5912800  25.9834550
  36.5662260  38.3625550  25.0832500  37.0580720  39.5112350  25.9379440
  21.5488310  37.0337510  26.8762500  20.6544360  37.0004270  27.2156210
  22.0885860  37.2324300  27.6413750  35.2364240  33.8169230  28.7614250
  36.1134420  33.8252630  29.1448250  35.2485080  33.0800070  28.1506600
  20.1734460  36.9474780  14.3726070  19.2698540  37.2104980  14.1977730
  20.6575080  37.2185950  13.5926030  36.6827510  37.6698770  19.6502270
  37.2064990  37.1761420  19.0192440  37.2686930  37.8049130  20.3949840
  36.8617230  37.7538640  23.1721820  35.9119940  37.7202180  23.2866810
  37.0430240  38.6638750  22.9371590  22.7161670  36.0040320  12.2820450
  23.4253370  35.5823540  11.7967730  22.0001610  36.0715550  11.6503800
  22.3635830  32.0579650  11.3223100  23.0863960  32.5988590  11.6404320
  22.6360350  31.7843070  10.4464640  36.1727480  36.9272120  15.5894680
  36.6686600  36.6942990  16.3743560  35.9743550  36.0883960  15.1732320
  22.0528020  31.3085840  21.2245720  22.7004210  30.7583220  20.7840880
  22.4729860  31.5628990  22.0461530  35.9480360  31.5027200  24.5815360
  36.5852580  32.1161340  24.9474550  36.0955250  31.5387860  23.6364590
  21.8060020  31.4641510  23.9671040  21.4574840  31.9205330  24.7329220
  21.4747720  30.5698640  24.0493470  29.3184840  32.6553390  27.4890460
  29.2573730  33.2475220  28.2385870  30.2585220  32.5479350  27.3440720
  31.9559400  32.3123450  27.1282750  32.5699810  32.6302740  26.4663830
  32.5008960  31.8272040  27.7478610  22.4780660  30.9917710  27.2421810
  23.0263650  30.8105760  26.4787920  22.5435970  30.2011820  27.7778120
  32.6967440  30.8755590  23.4552040  31.8227280  31.2090700  23.2524970
  32.5878190  30.4028770  24.2803910  33.6039420  33.0826460  24.8393760
  33.2752780  32.2678220  24.4595490  34.5521720  33.0396270  24.7159450
  30.4442260  31.7925430  22.3944950  29.6614050  32.2670930  22.6741710
  30.1505190  30.8880260  22.2858130  34.9963330  32.4948530  20.4394040
  35.4371420  32.4393630  19.5915640  34.7270920  33.4106540  20.5104220
  36.8601900  32.1263770  18.4502860  36.7990300  31.1824990  18.3033880
  37.6393930  32.2343860  18.9956320  21.7882670  32.0972910  14.9158670
  22.5462030  32.2101790  14.3422700  21.3259840  32.9342110  14.8702100
  28.3296480  34.2112180  17.9060980  27.5170990  33.8369070  17.5656860
  28.8338120  33.4557260  18.2082170  32.8321460  30.8754630  19.1444050
  33.4350830  31.4474840  19.6192570  32.0914450  31.4394070  18.9217950
  35.9756060  31.2776190  14.4184330  36.1706690  32.1759640  14.6851760
  35.1885930  31.0463270  14.9117280  24.1607820  32.6236960  13.4560640
  24.6900580  31.8366760  13.3268590  24.7936140  33.3028150  13.6896170
  26.3545660  32.3612100  16.5106030  25.7248400  31.6599410  16.6776160
  25.8150800  33.1216230  16.2939190  26.4801220  31.6396080  28.9458520
  26.1985490  32.1429680  28.1819340  26.8620920  30.8417830  28.5800650
  33.0816680  31.0549660  29.5238990  32.9682130  31.3744270  30.4190510
  33.8986420  31.4562170  29.2276270  20.5083660  38.7248500   2.3140850
  21.0799770  37.9570700   2.3144490  20.5085200  39.0237260   1.4047460
  21.7508530  34.1332860   4.1009780  21.5711370  33.2358610   4.3812540
  21.3488610  34.6804730   4.7756730  22.3695200  36.6293360   2.7092120
  23.0505310  36.8931730   3.3279520  22.0543250  35.7894230   3.0430130
  26.5619770  37.6760720   1.7964710  27.0697990  38.1741690   2.4369730
  27.0933010  36.8995920   1.6204070  24.8455870  32.3159280   6.0628130
  24.8474310  32.8331670   5.2574030  24.0160180  31.8389460   6.0398060
  24.5271200  34.0269240   4.0698580  24.8688010  34.8711290   3.7752450
  23.5887010  34.1752980   4.1863920  37.6779550  35.2154330   2.0987180
  36.7304460  35.2493310   2.2302610  38.0029540  36.0293280   2.4836540
  34.0703700  37.3205180   5.0504350  33.6574880  38.1458890   5.3044340
  33.3379650  36.7350220   4.8580710  24.9165110  36.8808290   3.6922060
  25.4679700  36.9903630   2.9175310  25.4308620  37.2545890   4.4077290
  37.5960270  36.3721760   8.9326470  36.9804540  36.8801430   8.4041930
  37.2756690  35.4720090   8.8752410  29.6574590  35.2113650   6.3988660
  29.1953960  35.4196670   7.2108600  29.2552700  34.3973000   6.0959330
  34.6579100  36.4322600   7.5285320  33.8072690  36.1328350   7.8494390
  34.4980890  36.6764610   6.6169140  31.7528810  37.9324350   9.6284110
  32.0782220  37.0988100   9.2886340  32.5409140  38.4552870   9.7762440
  27.4080680  32.8892460   2.6542940  27.7053010  33.7955290   2.5734960
  27.9566240  32.4011240   2.0402510  27.6018210  38.3664280   9.1894860
  27.5061810  37.4259010   9.0395260  28.4450190  38.5879350   8.7942930
  22.7328750  34.7777950   7.3428640  22.3392140  35.6253160   7.5501420
  22.0447150  34.1404320   7.5337280  29.3073800  34.8612920  10.4125380
  28.6172120  34.6685120  11.0471470  30.0506100  35.1447560  10.9449680
  31.5836770  38.7011360   3.2479300  30.8517890  39.2098170   3.5969400
  31.1861110  37.8841340   2.9468080  32.0462680  34.1545040   2.6602240
  32.0635420  34.6053690   3.5044090  31.7978260  33.2550680   2.8735680
  35.4733430  31.5677220   8.4988620  35.7979200  30.8366880   9.0246600
  35.5089940  31.2490860   7.5969610  28.3222130  39.4367340   3.3997200
  28.6892260  38.9625910   4.1458540  28.1327190  40.3108910   3.7405540
  26.1121500  38.4775980   5.7181410  25.8078570  39.3567960   5.9431770
  27.0667960  38.5375770   5.7538850  22.1685230  39.3178720   6.8652770
  21.8100170  39.9832570   7.4526110  21.8739790  38.4862270   7.2365390
  25.3698350  39.7762960   9.7492320  25.0698490  39.9220140   8.8520140
  26.1409590  39.2168250   9.6565710  20.7433800  32.8071960   7.5424870
  20.0292320  33.0068880   8.1477480  21.1628840  32.0311530   7.9139670
  32.2372580  35.2994270   5.2926320  32.6053400  34.4789480   5.6205890
  31.3770780  35.3596160   5.7081970  29.1974570  37.9533860   5.5164290
  29.6959820  38.4279680   6.1816140  29.3397520  37.0297380   5.7234320
  36.4041430  34.1701820   6.3592680  35.9015030  34.9107220   6.6986490
  37.2198090  34.5585820   6.0429470  20.8962640  40.3494590   9.2847060
  21.4001660  39.7701870   9.8563290  20.1570060  40.6334820   9.8223430
  22.9285720  38.4924180  10.1797130  22.9691060  38.1938050  11.0882360
  23.7831220  38.8931790  10.0204650  24.8691530  37.0716280   8.1471620
  24.3387990  36.5807230   7.5194960  25.5379600  37.5000480   7.6129550
  34.2391760  38.8781900   9.9151960  34.8212530  38.1234220   9.8272440
  34.4153530  39.4089340   9.1383440  25.3563830  34.0378650   8.2268910
  25.2620700  33.4199400   7.5019780  24.7761220  34.7644940   7.9998820
  28.1225270  32.5951890   5.2596300  27.6742570  32.6176150   4.4141850
  27.4890470  32.1970910   5.8566600  30.8648720  39.2222400   7.2646580
  30.9844930  38.6263540   8.0041420  31.7242720  39.2592090   6.8447880
  33.2036620  39.7759590   5.8409090  32.6771840  40.3002210   5.2374230
  33.5467960  40.4086980   6.4718820  27.6317490  35.7643750   8.5222400
  28.2217180  35.4559600   9.2100220  26.8137730  35.2923500   8.6782300
  32.4510920  35.3809560   8.7555420  31.7626440  34.7191100   8.6905410
  33.1716940  34.9347830   9.2003880  21.9972310  40.1228420   4.1960590
  22.3645350  40.0355820   5.0756610  21.4283130  39.3594970   4.0967450
  36.7976170  38.5912800   7.2091060  36.5662260  38.3625550   6.3089010
  37.0580720  39.5112350   7.1635950  21.5488310  37.0337510   8.1019010
  20.6544360  37.0004270   8.4412720  22.0885860  37.2324300   8.8670260
  35.2364240  33.8169230   9.9870760  36.1134420  33.8252630  10.3704760
  35.2485080  33.0800070   9.3763110  36.8617230  37.7538640   4.3978330
  35.9119940  37.7202180   4.5123320  37.0430240  38.6638750   4.1628100
  22.0528020  31.3085840   2.4502230  22.7004210  30.7583220   2.0097390
  22.4729860  31.5628990   3.2718040  35.9480360  31.5027200   5.8071870
  36.5852580  32.1161340   6.1731060  36.0955250  31.5387860   4.8621100
  21.8060020  31.4641510   5.1927550  21.4574840  31.9205330   5.9585730
  21.4747720  30.5698640   5.2749980  29.3184840  32.6553390   8.7146970
  29.2573730  33.2475220   9.4642380  30.2585220  32.5479350   8.5697230
  31.9559400  32.3123450   8.3539260  32.5699810  32.6302740   7.6920340
  32.5008960  31.8272040   8.9735120  22.4780660  30.9917710   8.4678320
  23.0263650  30.8105760   7.7044430  22.5435970  30.2011820   9.0034630
  32.6967440  30.8755590   4.6808550  31.8227280  31.2090700   4.4781480
  32.5878190  30.4028770   5.5060420  33.6039420  33.0826460   6.0650270
  33.2752780  32.2678220   5.6852000  34.5521720  33.0396270   5.9415960
  30.4442260  31.7925430   3.6201460  29.6614050  32.2670930   3.8998220
  30.1505190  30.8880260   3.5114640  26.4801220  31.6396080  10.1715030
  26.1985490  32.1429680   9.4075850  26.8620920  30.8417830   9.8057160
  33.0816680  31.0549660  10.7495500  32.9682130  31.3744270  11.6447020
  33.8986420  31.4562170  10.4532780  31.9874830  20.2998640  37.4360710
  31.9068880  19.3853250  37.1652420  31.5739250  20.7965710  36.7300420
  34.1400300  26.4837850  38.0969110  33.6781830  25.7125090  38.4256280
  34.9525850  26.5103920  38.6021560  22.5450650  17.3499360  33.9788130
  21.6567350  17.6915330  33.8768010  22.8291840  17.1499680  33.0868960
  30.3663610  28.7695860  37.7173100  29.7475050  29.2253360  37.1467540
  31.2215390  28.9247320  37.3162800  24.7212040  15.9330860  35.0126510
  24.8278790  16.8334590  35.3195270  23.8104400  15.8848830  34.7221160
  34.3731150  15.0555670  36.4837410  35.1940770  14.5652240  36.5262890
  34.4065230  15.6453330  37.2369250  31.2326960  23.6535100  35.1105010
  30.6144230  24.1184550  34.5467730  31.7450210  24.3462580  35.5274520
  20.6010160  24.3391630  32.4844640  20.2238140  24.8278730  31.7529540
  20.8583230  25.0116910  33.1151170  28.2099090  12.7408020  37.9430150
  28.5174070  12.1854910  37.2265650  27.2799790  12.8752480  37.7603140
  35.0559570  25.1791530  35.3227780  34.9455900  24.2365860  35.4477200
  35.0527820  25.5407170  36.2090540  30.5979850  20.8056850  34.6790270
  29.6709130  20.7394230  34.9078740  30.7504670  21.7436980  34.5645510
  30.5848930  17.0773850  31.6757430  29.6452600  17.2387810  31.7609890
  30.9032190  17.7959530  31.1293420  34.6277140  22.3677150  35.1825520
  34.0089560  22.0296700  34.5351820  34.6101590  21.7236910  35.8904710
  26.2036490  21.3321590  37.4610000  25.7993490  20.6198840  36.9655900
  26.2899610  20.9874830  38.3498040  32.8041840  21.6063960  32.1898270
  33.2435120  20.7686390  32.0436090  33.5170260  22.2393360  32.2762410
  30.9137220  26.5460030  36.1579510  31.3533130  27.2884360  35.7434900
  30.8524110  26.7886600  37.0818470  36.3858980  12.8606770  30.5039310
  36.0731640  12.9533600  31.4038380  37.1471450  13.4387800  30.4536740
  22.9041120  20.2266570  34.9616650  22.7838720  20.9528660  34.3497920
  22.5942010  19.4569480  34.4844560  21.7874120  25.0981900  37.1791470
  21.3802200  25.2396490  36.3245070  22.6787130  24.8142060  36.9762680
  33.5807400  29.5329150  33.5142520  33.4208540  29.2432090  34.4124350
  33.4154110  28.7569280  32.9787750  26.0595780  29.3127680  35.2914140
  25.8838260  28.3963220  35.0781940  25.2051520  29.6714970  35.5311940
  33.2833530  27.0416710  32.0740520  32.5898690  27.0394000  31.4142800
  34.0256390  26.6176030  31.6434690  32.8483460  28.6679420  36.1489010
  33.3040410  27.8868800  36.4627630  33.1875980  29.3786240  36.6930190
  25.3704780  13.5701640  38.3440320  24.9272930  14.3511180  38.0124840
  25.9289770  13.8931530  39.0511260  28.4863600  13.1912340  33.2246150
  27.8617780  13.1872210  33.9499460  28.3993720  12.3243300  32.8282120
  25.1619000  18.6935210  36.0721570  24.9359920  18.4772380  36.9768190
  24.3811530  19.1263670  35.7267540  32.3916760  18.6998580  34.6712220
  31.7925650  19.4234380  34.4875840  32.9396370  18.6375360  33.8888670
  30.9981630  17.3362120  36.7015500  31.3911200  17.6534320  35.8884190
  31.3598480  16.4574000  36.8160020  20.2216030  17.8683040  30.1348420
  20.1390700  18.8113800  30.2763410  19.8699090  17.7257950  29.2560770
  23.8716540  16.4848560  38.1612980  23.5316590  16.9623790  38.9180030
  23.1093860  16.0313680  37.8014080  28.0834310  17.6034150  32.1925530
  28.2047130  17.5620630  33.1411350  27.6982820  18.4658300  32.0372260
  27.0955810  19.9135290  31.5908830  26.5272710  19.4653540  30.9644740
  27.8044810  20.2728070  31.0573980  21.1862620  15.4067540  37.0777650
  20.9009540  15.0423210  37.9156270  21.1241480  14.6748000  36.4640790
  24.6403290  23.9093480  33.8635240  23.8665550  23.3691100  33.7033960
  25.3697920  23.3900090  33.5253000  30.8601210  14.2996800  33.7991020
  30.0465820  13.8009970  33.7236330  30.6663160  15.1395050  33.3827370
  33.5749600  18.6716450  32.0953180  34.4629220  18.9833680  31.9204520
  33.5454690  17.7988700  31.7033760  24.6840690  23.5773860  37.5014050
  25.2019360  22.7742120  37.4470940  24.2324710  23.5153000  38.3430880
  29.5710190  24.8440140  32.7741350  29.9125890  25.5882370  32.2784670
  28.7422900  25.1571260  33.1366180  35.8463870  19.9828290  31.5633040
  35.7627590  20.4142510  30.7129480  36.5658060  20.4426640  31.9959860
  36.8751120  26.8370550  34.2915170  36.2327280  26.1826170  34.5658890
  36.4881780  27.2425640  33.5155840  32.4537600  24.1655980  38.1386860
  32.8061420  23.5684110  37.4788230  31.5699930  23.8400210  38.3095110
  28.5400880  24.9253670  35.5457270  29.2272010  25.4722880  35.9264860
  27.7533300  25.4694400  35.5806880  20.6793280  20.5426490  31.0374350
  21.5488130  20.8251290  31.3210270  20.1883600  21.3562360  30.9223160
  27.8428090  21.9299700  35.1582630  28.2990870  22.7404950  35.3842820
  27.4916300  21.6122840  35.9901120  23.7439870  12.2737350  35.6305150
  23.6154500  12.2655250  36.5790070  22.9201890  12.6120440  35.2796160
  35.2648500  25.7287010  30.8291520  35.0386080  25.0117450  31.4216160
  34.8744700  25.4799450  29.9913270  21.0464530  29.7553870  31.6035980
  21.4062170  30.3543210  30.9493250  20.9056870  30.3013760  32.3771010
  34.8464750  23.6458950  32.4905680  34.5586450  24.1071640  33.2783560
  35.6416920  23.1856720  32.7589900  27.0633150  27.1385070  32.4209650
  27.0543250  27.8714760  31.8054160  26.1431510  26.8916650  32.5136610
  22.6639790  22.3599960  33.1656410  22.0567740  23.0998860  33.1751710
  23.1389140  22.4499320  32.3394610  35.6034610  15.4807720  33.6500860
  34.9747770  15.5853390  32.9359090  35.1086530  15.7004500  34.4394740
  30.0492750  27.2013310  31.0834840  30.1504730  26.9977300  30.1536820
  29.1494490  26.9471590  31.2882620  27.5718640  17.7593670  35.0658740
  26.8634790  18.2280010  35.5072350  27.8563120  17.1015680  35.7003930
  31.6034070  14.4844330  36.5054530  31.4801850  14.5030460  35.5564040
  32.5518630  14.5323270  36.6252930  28.6910860  29.7199630  35.7782510
  28.9452360  29.6821020  34.8561880  27.7423340  29.5932960  35.7710760
  25.7753660  16.0678750  32.4409450  26.6244190  16.5048900  32.3749640
  25.4084930  16.3799010  33.2681510  34.6963440  20.6391510  37.3541020
  33.7553580  20.6541740  37.5288710  35.0107510  19.8527470  37.8001320
  24.6745080  22.3211110  30.9144980  25.4408350  22.2092470  31.4770410
  24.7519770  21.6249080  30.2621750  23.3691840  19.7536180  31.5977870
  23.4495430  18.8063690  31.7095270  24.2611590  20.0843060  31.7038530
  24.1706550  29.9031570  38.7012410  24.9069030  29.3547030  38.9720980
  24.5547470  30.7687580  38.5618400  21.0552030  25.9705140  34.5753920
  20.1291810  26.2126280  34.5659330  21.5208460  26.7979400  34.4538670
  27.2808860  29.0761880  30.5237980  28.0737470  29.3650710  30.0719770
  26.7613210  28.6454050  29.8450460  36.3339030  28.3032010  31.9474720
  36.0480540  27.8897150  31.1328900  36.1358580  29.2319720  31.8275240
  27.7986260  24.2965290  30.3880330  27.6936900  23.6817640  31.1141710
  27.6310480  23.7731180  29.6043340  31.0388990  23.3585320  30.9922320
  30.4899090  23.8054620  31.6365060  31.6608250  22.8534570  31.5159990
  26.7064110  22.3176240  32.8887620  27.1280530  22.1516110  33.7319010
  26.8314950  21.5076470  32.3942760  29.2191750  21.3413850  30.1364720
  29.7397410  20.6262870  29.7705870  29.8660150  21.9799720  30.4365230
  25.6023010  18.3909470  29.8345780  25.4012070  17.5276830  30.1959120
  25.4315060  18.3042830  28.8967380  33.0811320  13.2017700  32.3632660
  33.3613610  12.3585600  32.7192080  32.3077050  13.4340810  32.8771410
  24.4005810  15.4910090  29.8223660  24.7031710  15.4977520  28.9142810
  25.1400400  15.1407950  30.3191320  27.6190740  14.4344710  30.8079860
  27.2712740  13.7568700  30.2282310  27.8203510  13.9734220  31.6223250
  29.7839780  29.4225460  32.4266460  30.6790570  29.7610430  32.4485220
  29.8157410  28.7004870  31.7990740  23.4235940  24.7952510  30.6553460
  23.8610810  25.3382180  31.3111040  23.9083670  23.9699460  30.6649800
  20.6381740  27.5841540  38.1073720  20.9684750  26.7162600  37.8752360
  21.0672740  27.7900060  38.9378680  25.2343660  25.9150550  35.7675690
  24.9339200  25.7915520  36.6679600  25.1281150  25.0559140  35.3591420
  20.9596380  20.9632360  37.2044230  20.3045220  20.6944000  36.5603930
  21.7974330  20.8536840  36.7546210  37.5111210  22.7328800  30.1309090
  37.7860050  23.6407680  30.0028310  37.3221950  22.6691330  31.0671080
  33.9086820  15.7573650  31.4262720  34.3271700  15.5704630  30.5859380
  33.6022880  14.9052700  31.7365650  37.4076550  20.6697790  35.1238520
  37.0320150  19.9025720  34.6919810  36.6779670  21.0520490  35.6113450
  20.1734460  18.1731290  33.1469560  19.2698540  18.4361490  32.9721220
  20.6575080  18.4442460  32.3669520  22.7161670  17.2296830  31.0563940
  23.4253370  16.8080050  30.5711220  22.0001610  17.2972060  30.4247290
  22.3635830  13.2836160  30.0966590  23.0863960  13.8245100  30.4147810
  22.6360350  13.0099580  29.2208130  36.1727480  18.1528630  34.3638170
  36.6686600  17.9199500  35.1487050  35.9743550  17.3140470  33.9475810
  35.5061820  29.4299710  36.7577090  36.1020890  29.1084280  36.0811510
  35.7639970  28.9571530  37.5490360  36.8601900  13.3520280  37.2246350
  36.7990300  12.4081500  37.0777370  37.6393930  13.4600370  37.7699810
  21.1654650  29.4912640  36.1870300  20.9976690  28.8583320  36.8852190
  20.2989160  29.6972040  35.8364490  21.7882670  13.3229420  33.6902160
  22.5462030  13.4358300  33.1166190  21.3259840  14.1598620  33.6445590
  28.3296480  15.4368690  36.6804470  27.5170990  15.0625580  36.3400350
  28.8338120  14.6813770  36.9825660  32.8321460  12.1011140  37.9187540
  33.4350830  12.6731350  38.3936060  32.0914450  12.6650580  37.6961440
  35.9756060  12.5032700  33.1927820  36.1706690  13.4016150  33.4595250
  35.1885930  12.2719780  33.6860770  22.7717350  28.1845870  33.6320440
  22.2464970  28.5653900  32.9282400  22.6961930  28.8096640  34.3530150
  24.1607820  13.8493470  32.2304130  24.6900580  13.0623270  32.1012080
  24.7936140  14.5284660  32.4639660  26.3545660  13.5868610  35.2849520
  25.7248400  12.8855920  35.4519650  25.8150800  14.3472740  35.0682680
  37.5282670  29.7433410  34.9534380  37.7034860  29.0571150  34.3095300
  36.8304240  30.2680460  34.5611050  25.3710320  30.1328250  32.5069690
  26.1029140  29.8487530  31.9593580  25.6303990  29.8941530  33.3969070
  24.5325110  26.2492980  32.5116020  23.9033990  26.7178080  33.0601850
  24.6472940  25.4042200  32.9462210  31.9874830  20.2998640  18.6617220
  31.9068880  19.3853250  18.3908930  31.5739250  20.7965710  17.9556930
  30.1192870  22.0777660  20.5426490  29.3434970  21.5978100  20.8325060
  30.7705800  21.3983310  20.3682650  34.1400300  26.4837850  19.3225620
  33.6781830  25.7125090  19.6512790  34.9525850  26.5103920  19.8278070
  24.1159960  26.4237560  21.6160270  24.4188000  25.5335300  21.4370490
  24.8603550  26.9807780  21.3882520  22.5450650  17.3499360  15.2044640
  21.6567350  17.6915330  15.1024520  22.8291840  17.1499680  14.3125470
  30.3663610  28.7695860  18.9429610  29.7475050  29.2253360  18.3724050
  31.2215390  28.9247320  18.5419310  29.5601860  24.7534850  20.5496650
  29.4910140  23.8124790  20.3885780  30.3221720  24.8436260  21.1219220
  30.5907030  17.5605230  20.7765580  30.9671850  16.6877110  20.6639250
  30.4926540  17.8963930  19.8856020  24.7212040  15.9330860  16.2383020
  24.8278790  16.8334590  16.5451780  23.8104400  15.8848830  15.9477670
  34.3731150  15.0555670  17.7093920  35.1940770  14.5652240  17.7519400
  34.4065230  15.6453330  18.4625760  24.8455870  13.5415790  24.8371620
  24.8474310  14.0588180  24.0317520  24.0160180  13.0645970  24.8141550
  31.2326960  23.6535100  16.3361520  30.6144230  24.1184550  15.7724240
  31.7450210  24.3462580  16.7531030  26.0958720  23.1810970  23.0145120
  25.7628100  23.8079890  23.6566190  26.2725400  23.7072850  22.2346790
  34.6092630  16.9956050  20.4821460  33.9048200  17.2840940  21.0624570
  34.9704790  17.8056160  20.1221020  25.3077820  25.1491770  24.8294300
  25.9251820  25.8242850  24.5478750  24.4470940  25.5579750  24.7381800
  36.2255410  26.6131180  22.7448940  35.5418930  27.2830290  22.7365610
  36.7649700  26.8111830  21.9793800  37.6779550  16.4410840  20.8730670
  36.7304460  16.4749820  21.0046100  38.0029540  17.2549790  21.2580030
  28.2099090  12.7408020  19.1686660  28.5174070  12.1854910  18.4522160
  27.2799790  12.8752480  18.9859650  33.7614150  28.4575310  21.4594120
  33.7741310  28.0537600  20.5916380  33.2089370  29.2322600  21.3555550
  35.0559570  25.1791530  16.5484290  34.9455900  24.2365860  16.6733710
  35.0527820  25.5407170  17.4347050  33.1599590  23.3605150  22.7876730
  33.5768380  23.1465260  21.9530190  33.8839410  23.6177940  23.3585350
  30.5979850  20.8056850  15.9046780  29.6709130  20.7394230  16.1335250
  30.7504670  21.7436980  15.7902020  30.5848930  17.0773850  12.9013940
  29.6452600  17.2387810  12.9866400  30.9032190  17.7959530  12.3549930
  37.1061690  21.7592370  22.8792970  36.2780320  21.8285460  22.4043100
  37.7012170  22.3446680  22.4108800  34.6277140  22.3677150  16.4082030
  34.0089560  22.0296700  15.7608330  34.6101590  21.7236910  17.1161220
  34.0703700  18.5461690  23.8247840  33.6574880  19.3715400  24.0787830
  33.3379650  17.9606730  23.6324200  26.2036490  21.3321590  18.6866510
  25.7993490  20.6198840  18.1912410  26.2899610  20.9874830  19.5754550
  26.6718190  25.0189150  20.8505720  26.3746480  24.4134620  20.1713500
  27.6218010  25.0566460  20.7395080  34.7603800  28.5921020  24.5128820
  34.2834360  29.3993210  24.3201430  34.0765590  27.9399350  24.6655030
  25.7636620  24.7570840  27.5013520  24.8665150  24.9810810  27.7486920
  25.7889490  24.8805780  26.5524920  32.8041840  21.6063960  13.4154780
  33.2435120  20.7686390  13.2692600  33.5170260  22.2393360  13.5018920
  24.5907840  21.6284160  26.0770890  24.4515610  22.5006960  26.4458290
  23.7089200  21.2856970  25.9318830  30.9137220  26.5460030  17.3836020
  31.3533130  27.2884360  16.9691410  30.8524110  26.7886600  18.3074980
  26.3888190  27.5705860  28.2856040  26.3603620  27.9748810  27.4184470
  26.2253160  26.6416220  28.1227640  36.3858980  12.8606770  11.7295820
  36.0731640  12.9533600  12.6294890  37.1471450  13.4387800  11.6793250
  37.7436260  25.5445810  26.7420220  37.8699320  25.3057690  25.8237400
  37.7857640  24.7130350  27.2142300  31.6053000  29.2473810  25.3115030
  32.1197670  29.1581820  26.1137460  30.7622080  29.5933510  25.6042940
  33.5807400  29.5329150  14.7399030  33.4208540  29.2432090  15.6380860
  33.4154110  28.7569280  14.2044260  26.0595780  29.3127680  16.5170650
  25.8838260  28.3963220  16.3038450  25.2051520  29.6714970  16.7568450
  33.2833530  27.0416710  13.2997030  32.5898690  27.0394000  12.6399310
  34.0256390  26.6176030  12.8691200  32.8483460  28.6679420  17.3745520
  33.3040410  27.8868800  17.6884140  33.1875980  29.3786240  17.9186700
  37.5960270  17.5978270  27.7069960  36.9804540  18.1057940  27.1785420
  37.2756690  16.6976600  27.6495900  20.5986010  24.4395880  24.5336260
  20.7617050  23.9701240  23.7155630  21.0638460  23.9319440  25.1985100
  29.6574590  16.4370160  25.1732150  29.1953960  16.6453180  25.9852090
  29.2552700  15.6229510  24.8702820  34.6579100  17.6579110  26.3028810
  33.8072690  17.3584860  26.6237880  34.4980890  17.9021120  25.3912630
  31.7528810  19.1580860  28.4027600  32.0782220  18.3244610  28.0629830
  32.5409140  19.6809380  28.5505930  28.4863600  13.1912340  14.4502660
  27.8617780  13.1872210  15.1755970  28.3993720  12.3243300  14.0538630
  27.4080680  14.1148970  21.4286430  27.7053010  15.0211800  21.3478450
  27.9566240  13.6267750  20.8146000  32.3916760  18.6998580  15.8968730
  31.7925650  19.4234380  15.7132350  32.9396370  18.6375360  15.1145180
  27.6018210  19.5920790  27.9638350  27.5061810  18.6515520  27.8138750
  28.4450190  19.8135860  27.5686420  30.9981630  17.3362120  17.9272010
  31.3911200  17.6534320  17.1140700  31.3598480  16.4574000  18.0416530
  29.3073800  16.0869430  29.1868870  28.6172120  15.8941630  29.8214960
  30.0506100  16.3704070  29.7193170  20.2216030  17.8683040  11.3604930
  20.1390700  18.8113800  11.5019920  19.8699090  17.7257950  10.4817280
  31.5836770  19.9267870  22.0222790  30.8517890  20.4354680  22.3712890
  31.1861110  19.1097850  21.7211570  28.0214160  16.6022070  20.4275280
  28.0250220  16.1612020  19.5779820  28.9165280  16.9239400  20.5347100
  28.0834310  17.6034150  13.4182040  28.2047130  17.5620630  14.3667860
  27.6982820  18.4658300  13.2628770  32.0462680  15.3801550  21.4345730
  32.0635420  15.8310200  22.2787580  31.7978260  14.4807190  21.6479170
  27.0955810  19.9135290  12.8165340  26.5272710  19.4653540  12.1901250
  27.8044810  20.2728070  12.2830490  35.4733430  12.7933730  27.2732110
  35.7979200  12.0623390  27.7990090  35.5089940  12.4747370  26.3713100
  22.1724990  23.8147310  26.6932070  21.7879780  23.1740980  27.2915030
  22.4837180  24.5183430  27.2626800  28.3222130  20.6623850  22.1740690
  28.6892260  20.1882420  22.9202030  28.1327190  21.5365420  22.5149030
  26.1121500  19.7032490  24.4924900  25.8078570  20.5824470  24.7175260
  27.0667960  19.7632280  24.5282340  24.6403290  23.9093480  15.0891750
  23.8665550  23.3691100  14.9290470  25.3697920  23.3900090  14.7509510
  35.3991270  22.9058840  20.8818140  36.1190390  23.4014130  20.4914250
  35.1973090  22.2276730  20.2372010  30.8601210  14.2996800  15.0247530
  30.0465820  13.8009970  14.9492840  30.6663160  15.1395050  14.6083880
  30.7810070  22.9767900  26.7687140  30.7147380  22.0563570  26.5144730
  30.1515210  23.0743340  27.4831780  33.5749600  18.6716450  13.3209690
  34.4629220  18.9833680  13.1461030  33.5454690  17.7988700  12.9290270
  29.5710190  24.8440140  13.9997860  29.9125890  25.5882370  13.5041180
  28.7422900  25.1571260  14.3622690  25.3698350  21.0019470  28.5235810
  25.0698490  21.1476650  27.6263630  26.1409590  20.4424760  28.4309200
  30.7126800  25.7988470  26.5190940  30.7271340  24.8669430  26.3009850
  30.0051900  25.8848230  27.1580710  35.8463870  19.9828290  12.7889550
  35.7627590  20.4142510  11.9385990  36.5658060  20.4426640  13.2216370
  36.9238010  22.4395810  25.8659520  36.1986200  23.0324590  25.6688910
  37.4513470  22.4319350  25.0672890  36.8751120  26.8370550  15.5171680
  36.2327280  26.1826170  15.7915400  36.4881780  27.2425640  14.7412350
  32.4537600  24.1655980  19.3643370  32.8061420  23.5684110  18.7044740
  31.5699930  23.8400210  19.5351620  28.5400880  24.9253670  16.7713780
  29.2272010  25.4722880  17.1521370  27.7533300  25.4694400  16.8063390
  20.6793280  20.5426490  12.2630860  21.5488130  20.8251290  12.5466780
  20.1883600  21.3562360  12.1479670  27.8428090  21.9299700  16.3839140
  28.2990870  22.7404950  16.6099330  27.4916300  21.6122840  17.2157630
  30.1460700  27.4406040  23.6131440  30.7902920  27.6465420  24.2904860
  30.5090140  26.6794440  23.1602290  23.7439870  12.2737350  16.8561660
  23.6154500  12.2655250  17.8046580  22.9201890  12.6120440  16.5052670
  31.4192780  25.4438390  22.3308890  32.0615010  24.7431550  22.4441060
  31.9442130  26.2236830  22.1505780  35.2648500  25.7287010  12.0548030
  35.0386080  25.0117450  12.6472670  34.8744700  25.4799450  11.2169780
  33.1930400  26.2433290  25.5344950  33.5286640  26.8299980  26.2122870
  32.2730740  26.1126000  25.7642740  21.0464530  29.7553870  12.8292490
  21.4062170  30.3543210  12.1749760  20.9056870  30.3013760  13.6027520
  20.7433800  14.0328470  26.3168360  20.0292320  14.2325390  26.9220970
  21.1628840  13.2568040  26.6883160  34.8464750  23.6458950  13.7162190
  34.5586450  24.1071640  14.5040070  35.6416920  23.1856720  13.9846410
  21.0306390  28.0208730  27.3034890  21.1397510  27.0803470  27.1630280
  20.3786950  28.2863480  26.6548620  29.0218980  26.2924620  28.7033010
  28.7015850  25.5733860  29.2478700  28.3477340  26.9679690  28.7769070
  27.0633150  27.1385070  13.6466160  27.0543250  27.8714760  13.0310670
  26.1431510  26.8916650  13.7393120  32.2372580  16.5250780  24.0669810
  32.6053400  15.7045990  24.3949380  31.3770780  16.5852670  24.4825460
  35.6034610  15.4807720  14.8757370  34.9747770  15.5853390  14.1615600
  35.1086530  15.7004500  15.6651250  30.0492750  27.2013310  12.3091350
  30.1504730  26.9977300  11.3793330  29.1494490  26.9471590  12.5139130
  27.5718640  17.7593670  16.2915250  26.8634790  18.2280010  16.7328860
  27.8563120  17.1015680  16.9260440  29.1974570  19.1790370  24.2907780
  29.6959820  19.6536190  24.9559630  29.3397520  18.2553890  24.4977810
  31.6034070  14.4844330  17.7311040  31.4801850  14.5030460  16.7820550
  32.5518630  14.5323270  17.8509440  28.6910860  29.7199630  17.0039020
  28.9452360  29.6821020  16.0818390  27.7423340  29.5932960  16.9967270
  25.7753660  16.0678750  13.6665960  26.6244190  16.5048900  13.6006150
  25.4084930  16.3799010  14.4938020  36.4041430  15.3958330  25.1336170
  35.9015030  16.1363730  25.4729980  37.2198090  15.7842330  24.8172960
  34.6963440  20.6391510  18.5797530  33.7553580  20.6541740  18.7545220
  35.0107510  19.8527470  19.0257830  24.6745080  22.3211110  12.1401490
  25.4408350  22.2092470  12.7026920  24.7519770  21.6249080  11.4878260
  23.3691840  19.7536180  12.8234380  23.4495430  18.8063690  12.9351780
  24.2611590  20.0843060  12.9295040  36.6989020  27.8100360  20.2551790
  36.8236440  28.6331530  20.7275600  37.5654580  27.5991090  19.9075940
  24.1706550  29.9031570  19.9268920  24.9069030  29.3547030  20.1977490
  24.5547470  30.7687580  19.7874910  23.1764830  29.0877640  29.1154500
  23.9777560  29.4089690  29.5289900  22.6616650  28.7273220  29.8374410
  27.2808860  29.0761880  11.7494490  28.0737470  29.3650710  11.2976280
  26.7613210  28.6454050  11.0706970  32.0129460  25.1957510  29.0629910
  31.4067620  25.2189110  28.3225660  31.7083570  24.4640550  29.5997160
  33.4429830  28.9237800  27.6739320  34.3951580  28.8395820  27.6239560
  33.2958050  29.5879510  28.3473110  36.3339030  28.3032010  13.1731230
  36.0480540  27.8897150  12.3585410  36.1358580  29.2319720  13.0531750
  20.8962640  21.5751100  28.0590550  21.4001660  20.9958380  28.6306780
  20.1570060  21.8591330  28.5966920  27.7986260  24.2965290  11.6136840
  27.6936900  23.6817640  12.3398220  27.6310480  23.7731180  10.8299850
  27.9500580  22.9822090  27.5926070  27.1846250  23.5507090  27.5080740
  28.1316540  22.6898300  26.6994300  31.0388990  23.3585320  12.2178830
  30.4899090  23.8054620  12.8621570  31.6608250  22.8534570  12.7416500
  35.0923930  24.7127420  28.1501090  35.8333400  25.0503180  27.6468550
  34.3296610  24.8819480  27.5970860  22.9285720  19.7180690  28.9540620
  22.9691060  19.4194560  29.8625850  23.7831220  20.1188300  28.7948140
  26.7064110  22.3176240  14.1144130  27.1280530  22.1516110  14.9575520
  26.8314950  21.5076470  13.6199270  24.8691530  18.2972790  26.9215110
  24.3387990  17.8063740  26.2938450  25.5379600  18.7256990  26.3873040
  29.2191750  21.3413850  11.3621230  29.7397410  20.6262870  10.9962380
  29.8660150  21.9799720  11.6621740  33.7669590  22.7642250  26.6856300
  34.1810610  22.9187330  27.5346720  32.8320590  22.8897470  26.8482080
  34.2391760  20.1038410  28.6895450  34.8212530  19.3490730  28.6015930
  34.4153530  20.6345850  27.9126930  25.3563830  15.2635160  27.0012400
  25.2620700  14.6455910  26.2763270  24.7761220  15.9901450  26.7742310
  28.1225270  13.8208400  24.0339790  27.6742570  13.8432660  23.1885340
  27.4890470  13.4227420  24.6310090  28.5284820  22.7162730  24.6552230
  28.9472930  23.5595460  24.4828470  27.6093450  22.8534770  24.4259010
  30.8648720  20.4478910  26.0390070  30.9844930  19.8520050  26.7784910
  31.7242720  20.4848600  25.6191370  33.2036620  21.0016100  24.6152580
  32.6771840  21.5258720  24.0117720  33.5467960  21.6343490  25.2462310
  25.6023010  18.3909470  11.0602290  25.4012070  17.5276830  11.4215630
  25.4315060  18.3042830  10.1223890  26.3792240  29.0215740  25.7709960
  25.8413330  29.7461800  25.4518660  26.6326200  28.5446080  24.9807300
  27.6317490  16.9900260  27.2965890  28.2217180  16.6816110  27.9843710
  26.8137730  16.5180010  27.4525790  32.4510920  16.6066070  27.5298910
  31.7626440  15.9447610  27.4648900  33.1716940  16.1604340  27.9747370
  33.0811320  13.2017700  13.5889170  33.3613610  12.3585600  13.9448590
  32.3077050  13.4340810  14.1027920  24.4005810  15.4910090  11.0480170
  24.7031710  15.4977520  10.1399320  25.1400400  15.1407950  11.5447830
  29.2354450  30.2566950  26.0296610  29.1613150  31.1602090  26.3368980
  28.3333290  29.9378850  26.0018680  27.6190740  14.4344710  12.0336370
  27.2712740  13.7568700  11.4538820  27.8203510  13.9734220  12.8479760
  29.7839780  29.4225460  13.6522970  30.6790570  29.7610430  13.6741730
  29.8157410  28.7004870  13.0247250  23.4235940  24.7952510  11.8809970
  23.8610810  25.3382180  12.5367550  23.9083670  23.9699460  11.8906310
  25.2343660  25.9150550  16.9932200  24.9339200  25.7915520  17.8936110
  25.1281150  25.0559140  16.5847930  21.1271950  28.4512130  22.0711860
  20.6902940  28.6312930  22.9036010  21.6949630  29.2086750  21.9293580
  36.7634130  27.9529130  26.3589170  36.1636120  28.0121690  25.6153090
  36.8928030  27.0134110  26.4886020  35.4485770  24.6781110  24.4565330
  34.6345610  25.1078270  24.7191120  35.8559970  25.2899520  23.8434380
  37.5111210  22.7328800  11.3565600  37.7860050  23.6407680  11.2284820
  37.3221950  22.6691330  12.2927590  33.9086820  15.7573650  12.6519230
  34.3271700  15.5704630  11.8115890  33.6022880  14.9052700  12.9622160
  37.4076550  20.6697790  16.3495030  37.0320150  19.9025720  15.9176320
  36.6779670  21.0520490  16.8369960  21.9972310  21.3484930  22.9704080
  22.3645350  21.2612330  23.8500100  21.4283130  20.5851480  22.8710940
  36.7976170  19.8169310  25.9834550  36.5662260  19.5882060  25.0832500
  37.0580720  20.7368860  25.9379440  35.2364240  15.0425740  28.7614250
  36.1134420  15.0509140  29.1448250  35.2485080  14.3056580  28.1506600
  20.1734460  18.1731290  14.3726070  19.2698540  18.4361490  14.1977730
  20.6575080  18.4442460  13.5926030  36.6827510  18.8955280  19.6502270
  37.2064990  18.4017930  19.0192440  37.2686930  19.0305640  20.3949840
  36.8617230  18.9795150  23.1721820  35.9119940  18.9458690  23.2866810
  37.0430240  19.8895260  22.9371590  22.7161670  17.2296830  12.2820450
  23.4253370  16.8080050  11.7967730  22.0001610  17.2972060  11.6503800
  22.3635830  13.2836160  11.3223100  23.0863960  13.8245100  11.6404320
  22.6360350  13.0099580  10.4464640  36.1727480  18.1528630  15.5894680
  36.6686600  17.9199500  16.3743560  35.9743550  17.3140470  15.1732320
  35.9480360  12.7283710  24.5815360  36.5852580  13.3417850  24.9474550
  36.0955250  12.7644370  23.6364590  35.5061820  29.4299710  17.9833600
  36.1020890  29.1084280  17.3068020  35.7639970  28.9571530  18.7746870
  21.8060020  12.6898020  23.9671040  21.4574840  13.1461840  24.7329220
  21.4747720  11.7955150  24.0493470  23.4124390  25.8617620  28.1324230
  23.3694020  25.4910530  29.0138690  23.5435400  26.7995190  28.2726050
  27.1130420  27.4177210  23.7333950  26.8721780  27.6851770  22.8464470
  28.0533060  27.5882940  23.7884810  29.3184840  13.8809900  27.4890460
  29.2573730  14.4731730  28.2385870  30.2585220  13.7735860  27.3440720
  31.9559400  13.5379960  27.1282750  32.5699810  13.8559250  26.4663830
  32.5008960  13.0528550  27.7478610  22.4780660  12.2174220  27.2421810
  23.0263650  12.0362270  26.4787920  22.5435970  11.4268330  27.7778120
  23.2512420  28.8079870  25.2522010  22.6572740  28.6764570  25.9912050
  23.2436260  27.9718010  24.7864110  32.6967440  12.1012100  23.4552040
  31.8227280  12.4347210  23.2524970  32.5878190  11.6285280  24.2803910
  33.6039420  14.3082970  24.8393760  33.2752780  13.4934730  24.4595490
  34.5521720  14.2652780  24.7159450  36.0574030  30.0795010  21.8131330
  35.5977000  30.8310820  21.4389350  35.4286490  29.3601480  21.7546130
  22.8824650  26.1738250  24.2030050  22.1558710  25.5543540  24.1356000
  22.9433800  26.5678860  23.3328130  26.4869750  28.3883250  20.9879460
  27.0034770  27.7770610  20.4627720  27.1367130  28.8912030  21.4790470
  29.2265250  29.2791740  21.8148440  29.5143060  29.0246040  20.9381450
  29.7388470  28.7269100  22.4054010  30.4442260  13.0181940  22.3944950
  29.6614050  13.4927440  22.6741710  30.1505190  12.1136770  22.2858130
  34.9963330  13.7205040  20.4394040  35.4371420  13.6650140  19.5915640
  34.7270920  14.6363050  20.5104220  36.8601900  13.3520280  18.4502860
  36.7990300  12.4081500  18.3033880  37.6393930  13.4600370  18.9956320
  21.7882670  13.3229420  14.9158670  22.5462030  13.4358300  14.3422700
  21.3259840  14.1598620  14.8702100  28.3296480  15.4368690  17.9060980
  27.5170990  15.0625580  17.5656860  28.8338120  14.6813770  18.2082170
  32.8321460  12.1011140  19.1444050  33.4350830  12.6731350  19.6192570
  32.0914450  12.6650580  18.9217950  35.9756060  12.5032700  14.4184330
  36.1706690  13.4016150  14.6851760  35.1885930  12.2719780  14.9117280
  24.1607820  13.8493470  13.4560640  24.6900580  13.0623270  13.3268590
  24.7936140  14.5284660  13.6896170  26.3545660  13.5868610  16.5106030
  25.7248400  12.8855920  16.6776160  25.8150800  14.3472740  16.2939190
  29.2937610  30.2007840  29.1816640  30.2204920  29.9652110  29.2252600
  29.2788040  31.0279840  28.7002670  37.5282670  29.7433410  16.1790890
  37.7034860  29.0571150  15.5351810  36.8304240  30.2680460  15.7867560
  26.4801220  12.8652590  28.9458520  26.1985490  13.3686190  28.1819340
  26.8620920  12.0674340  28.5800650  25.3710320  30.1328250  13.7326200
  26.1029140  29.8487530  13.1850090  25.6303990  29.8941530  14.6225580
  24.5325110  26.2492980  13.7372530  23.9033990  26.7178080  14.2858360
  24.6472940  25.4042200  14.1718720  33.0816680  12.2806170  29.5238990
  32.9682130  12.6000780  30.4190510  33.8986420  12.6818680  29.2276270
  35.8615170  29.4277700  29.0057680  36.6540490  28.9326930  28.7983640
  36.1548320  30.1067840  29.6133290  30.1192870  22.0777660   1.7683000
  29.3434970  21.5978100   2.0581570  30.7705800  21.3983310   1.5939160
  24.1358700  22.3897470   2.6458760  23.3043580  22.1346180   3.0455270
  24.7439680  22.4608240   3.3816680  24.1159960  26.4237560   2.8416780
  24.4188000  25.5335300   2.6627000  24.8603550  26.9807780   2.6139030
  20.5083660  19.9505010   2.3140850  21.0799770  19.1827210   2.3144490
  20.5085200  20.2493770   1.4047460  29.5601860  24.7534850   1.7753160
  29.4910140  23.8124790   1.6142290  30.3221720  24.8436260   2.3475730
  21.7508530  15.3589370   4.1009780  21.5711370  14.4615120   4.3812540
  21.3488610  15.9061240   4.7756730  22.3695200  17.8549870   2.7092120
  23.0505310  18.1188240   3.3279520  22.0543250  17.0150740   3.0430130
  26.5619770  18.9017230   1.7964710  27.0697990  19.3998200   2.4369730
  27.0933010  18.1252430   1.6204070  24.8455870  13.5415790   6.0628130
  24.8474310  14.0588180   5.2574030  24.0160180  13.0645970   6.0398060
  26.0958720  23.1810970   4.2401630  25.7628100  23.8079890   4.8822700
  26.2725400  23.7072850   3.4603300  24.5271200  15.2525750   4.0698580
  24.8688010  16.0967800   3.7752450  23.5887010  15.4009490   4.1863920
  25.3077820  25.1491770   6.0550810  25.9251820  25.8242850   5.7735260
  24.4470940  25.5579750   5.9638310  36.2255410  26.6131180   3.9705450
  35.5418930  27.2830290   3.9622120  36.7649700  26.8111830   3.2050310
  37.6779550  16.4410840   2.0987180  36.7304460  16.4749820   2.2302610
  38.0029540  17.2549790   2.4836540  33.7614150  28.4575310   2.6850630
  33.7741310  28.0537600   1.8172890  33.2089370  29.2322600   2.5812060
  33.1599590  23.3605150   4.0133240  33.5768380  23.1465260   3.1786700
  33.8839410  23.6177940   4.5841860  37.1061690  21.7592370   4.1049480
  36.2780320  21.8285460   3.6299610  37.7012170  22.3446680   3.6365310
  34.0703700  18.5461690   5.0504350  33.6574880  19.3715400   5.3044340
  33.3379650  17.9606730   4.8580710  26.6718190  25.0189150   2.0762230
  26.3746480  24.4134620   1.3970010  27.6218010  25.0566460   1.9651590
  24.9165110  18.1064800   3.6922060  25.4679700  18.2160140   2.9175310
  25.4308620  18.4802400   4.4077290  34.7603800  28.5921020   5.7385330
  34.2834360  29.3993210   5.5457940  34.0765590  27.9399350   5.8911540
  25.7636620  24.7570840   8.7270030  24.8665150  24.9810810   8.9743430
  25.7889490  24.8805780   7.7781430  24.5907840  21.6284160   7.3027400
  24.4515610  22.5006960   7.6714800  23.7089200  21.2856970   7.1575340
  26.3888190  27.5705860   9.5112550  26.3603620  27.9748810   8.6440980
  26.2253160  26.6416220   9.3484150  20.5426490  23.3981710   3.2198310
  20.6206910  23.5330480   2.2754030  21.1568170  22.6897600   3.4126430
  37.7436260  25.5445810   7.9676730  37.8699320  25.3057690   7.0493910
  37.7857640  24.7130350   8.4398810  31.6053000  29.2473810   6.5371540
  32.1197670  29.1581820   7.3393970  30.7622080  29.5933510   6.8299450
  37.5960270  17.5978270   8.9326470  36.9804540  18.1057940   8.4041930
  37.2756690  16.6976600   8.8752410  20.5986010  24.4395880   5.7592770
  20.7617050  23.9701240   4.9412140  21.0638460  23.9319440   6.4241610
  29.6574590  16.4370160   6.3988660  29.1953960  16.6453180   7.2108600
  29.2552700  15.6229510   6.0959330  34.6579100  17.6579110   7.5285320
  33.8072690  17.3584860   7.8494390  34.4980890  17.9021120   6.6169140
  31.7528810  19.1580860   9.6284110  32.0782220  18.3244610   9.2886340
  32.5409140  19.6809380   9.7762440  27.4080680  14.1148970   2.6542940
  27.7053010  15.0211800   2.5734960  27.9566240  13.6267750   2.0402510
  27.6018210  19.5920790   9.1894860  27.5061810  18.6515520   9.0395260
  28.4450190  19.8135860   8.7942930  22.7328750  16.0034460   7.3428640
  22.3392140  16.8509670   7.5501420  22.0447150  15.3660830   7.5337280
  29.3073800  16.0869430  10.4125380  28.6172120  15.8941630  11.0471470
  30.0506100  16.3704070  10.9449680  31.5836770  19.9267870   3.2479300
  30.8517890  20.4354680   3.5969400  31.1861110  19.1097850   2.9468080
  32.0462680  15.3801550   2.6602240  32.0635420  15.8310200   3.5044090
  31.7978260  14.4807190   2.8735680  35.4733430  12.7933730   8.4988620
  35.7979200  12.0623390   9.0246600  35.5089940  12.4747370   7.5969610
  22.1724990  23.8147310   7.9188580  21.7879780  23.1740980   8.5171540
  22.4837180  24.5183430   8.4883310  28.3222130  20.6623850   3.3997200
  28.6892260  20.1882420   4.1458540  28.1327190  21.5365420   3.7405540
  26.1121500  19.7032490   5.7181410  25.8078570  20.5824470   5.9431770
  27.0667960  19.7632280   5.7538850  35.3991270  22.9058840   2.1074650
  36.1190390  23.4014130   1.7170760  35.1973090  22.2276730   1.4628520
  30.7810070  22.9767900   7.9943650  30.7147380  22.0563570   7.7401240
  30.1515210  23.0743340   8.7088290  22.1685230  20.5435230   6.8652770
  21.8100170  21.2089080   7.4526110  21.8739790  19.7118780   7.2365390
  25.3698350  21.0019470   9.7492320  25.0698490  21.1476650   8.8520140
  26.1409590  20.4424760   9.6565710  30.7126800  25.7988470   7.7447450
  30.7271340  24.8669430   7.5266360  30.0051900  25.8848230   8.3837220
  36.9238010  22.4395810   7.0916030  36.1986200  23.0324590   6.8945420
  37.4513470  22.4319350   6.2929400  30.1460700  27.4406040   4.8387950
  30.7902920  27.6465420   5.5161370  30.5090140  26.6794440   4.3858800
  31.4192780  25.4438390   3.5565400  32.0615010  24.7431550   3.6697570
  31.9442130  26.2236830   3.3762290  33.1930400  26.2433290   6.7601460
  33.5286640  26.8299980   7.4379380  32.2730740  26.1126000   6.9899250
  20.7433800  14.0328470   7.5424870  20.0292320  14.2325390   8.1477480
  21.1628840  13.2568040   7.9139670  21.0306390  28.0208730   8.5291400
  21.1397510  27.0803470   8.3886790  20.3786950  28.2863480   7.8805130
  29.0218980  26.2924620   9.9289520  28.7015850  25.5733860  10.4735210
  28.3477340  26.9679690  10.0025580  32.2372580  16.5250780   5.2926320
  32.6053400  15.7045990   5.6205890  31.3770780  16.5852670   5.7081970
  29.1974570  19.1790370   5.5164290  29.6959820  19.6536190   6.1816140
  29.3397520  18.2553890   5.7234320  36.4041430  15.3958330   6.3592680
  35.9015030  16.1363730   6.6986490  37.2198090  15.7842330   6.0429470
  23.1764830  29.0877640  10.3411010  23.9777560  29.4089690  10.7546410
  22.6616650  28.7273220  11.0630920  32.0129460  25.1957510  10.2886420
  31.4067620  25.2189110   9.5482170  31.7083570  24.4640550  10.8253670
  33.4429830  28.9237800   8.8995830  34.3951580  28.8395820   8.8496070
  33.2958050  29.5879510   9.5729620  20.8962640  21.5751100   9.2847060
  21.4001660  20.9958380   9.8563290  20.1570060  21.8591330   9.8223430
  27.9500580  22.9822090   8.8182580  27.1846250  23.5507090   8.7337250
  28.1316540  22.6898300   7.9250810  35.0923930  24.7127420   9.3757600
  35.8333400  25.0503180   8.8725060  34.3296610  24.8819480   8.8227370
  22.9285720  19.7180690  10.1797130  22.9691060  19.4194560  11.0882360
  23.7831220  20.1188300  10.0204650  24.8691530  18.2972790   8.1471620
  24.3387990  17.8063740   7.5194960  25.5379600  18.7256990   7.6129550
  33.7669590  22.7642250   7.9112810  34.1810610  22.9187330   8.7603230
  32.8320590  22.8897470   8.0738590  34.2391760  20.1038410   9.9151960
  34.8212530  19.3490730   9.8272440  34.4153530  20.6345850   9.1383440
  25.3563830  15.2635160   8.2268910  25.2620700  14.6455910   7.5019780
  24.7761220  15.9901450   7.9998820  28.1225270  13.8208400   5.2596300
  27.6742570  13.8432660   4.4141850  27.4890470  13.4227420   5.8566600
  28.5284820  22.7162730   5.8808740  28.9472930  23.5595460   5.7084980
  27.6093450  22.8534770   5.6515520  30.8648720  20.4478910   7.2646580
  30.9844930  19.8520050   8.0041420  31.7242720  20.4848600   6.8447880
  33.2036620  21.0016100   5.8409090  32.6771840  21.5258720   5.2374230
  33.5467960  21.6343490   6.4718820  26.3792240  29.0215740   6.9966470
  25.8413330  29.7461800   6.6775170  26.6326200  28.5446080   6.2063810
  27.6317490  16.9900260   8.5222400  28.2217180  16.6816110   9.2100220
  26.8137730  16.5180010   8.6782300  32.4510920  16.6066070   8.7555420
  31.7626440  15.9447610   8.6905410  33.1716940  16.1604340   9.2003880
  29.2354450  30.2566950   7.2553120  29.1613150  31.1602090   7.5625490
  28.3333290  29.9378850   7.2275190  21.1271950  28.4512130   3.2968370
  20.6902940  28.6312930   4.1292520  21.6949630  29.2086750   3.1550090
  36.7634130  27.9529130   7.5845680  36.1636120  28.0121690   6.8409600
  36.8928030  27.0134110   7.7142530  35.4485770  24.6781110   5.6821840
  34.6345610  25.1078270   5.9447630  35.8559970  25.2899520   5.0690890
  21.9972310  21.3484930   4.1960590  22.3645350  21.2612330   5.0756610
  21.4283130  20.5851480   4.0967450  36.7976170  19.8169310   7.2091060
  36.5662260  19.5882060   6.3089010  37.0580720  20.7368860   7.1635950
  21.5488310  18.2594020   8.1019010  20.6544360  18.2260780   8.4412720
  22.0885860  18.4580810   8.8670260  35.2364240  15.0425740   9.9870760
  36.1134420  15.0509140  10.3704760  35.2485080  14.3056580   9.3763110
  36.8617230  18.9795150   4.3978330  35.9119940  18.9458690   4.5123320
  37.0430240  19.8895260   4.1628100  22.0528020  12.5342350   2.4502230
  22.7004210  11.9839730   2.0097390  22.4729860  12.7885500   3.2718040
  35.9480360  12.7283710   5.8071870  36.5852580  13.3417850   6.1731060
  36.0955250  12.7644370   4.8621100  21.8060020  12.6898020   5.1927550
  21.4574840  13.1461840   5.9585730  21.4747720  11.7955150   5.2749980
  23.4124390  25.8617620   9.3580740  23.3694020  25.4910530  10.2395200
  23.5435400  26.7995190   9.4982560  27.1130420  27.4177210   4.9590460
  26.8721780  27.6851770   4.0720980  28.0533060  27.5882940   5.0141320
  29.3184840  13.8809900   8.7146970  29.2573730  14.4731730   9.4642380
  30.2585220  13.7735860   8.5697230  31.9559400  13.5379960   8.3539260
  32.5699810  13.8559250   7.6920340  32.5008960  13.0528550   8.9735120
  22.4780660  12.2174220   8.4678320  23.0263650  12.0362270   7.7044430
  22.5435970  11.4268330   9.0034630  23.2512420  28.8079870   6.4778520
  22.6572740  28.6764570   7.2168560  23.2436260  27.9718010   6.0120620
  32.6967440  12.1012100   4.6808550  31.8227280  12.4347210   4.4781480
  32.5878190  11.6285280   5.5060420  33.6039420  14.3082970   6.0650270
  33.2752780  13.4934730   5.6852000  34.5521720  14.2652780   5.9415960
  36.0574030  30.0795010   3.0387840  35.5977000  30.8310820   2.6645860
  35.4286490  29.3601480   2.9802640  22.8824650  26.1738250   5.4286560
  22.1558710  25.5543540   5.3612510  22.9433800  26.5678860   4.5584640
  26.4869750  28.3883250   2.2135970  27.0034770  27.7770610   1.6884230
  27.1367130  28.8912030   2.7046980  29.2265250  29.2791740   3.0404950
  29.5143060  29.0246040   2.1637960  29.7388470  28.7269100   3.6310520
  30.4442260  13.0181940   3.6201460  29.6614050  13.4927440   3.8998220
  30.1505190  12.1136770   3.5114640  29.2937610  30.2007840  10.4073150
  30.2204920  29.9652110  10.4509110  29.2788040  31.0279840   9.9259180
  26.4801220  12.8652590  10.1715030  26.1985490  13.3686190   9.4075850
  26.8620920  12.0674340   9.8057160  33.0816680  12.2806170  10.7495500
  32.9682130  12.6000780  11.6447020  33.8986420  12.6818680  10.4532780
  35.8615170  29.4277700  10.2314190  36.6540490  28.9326930  10.0240150
  36.1548320  30.1067840  10.8389800  34.1400300   7.7094360  38.0969110
  33.6781830   6.9381600  38.4256280  34.9525850   7.7360430  38.6021560
  30.3663610   9.9952370  37.7173100  29.7475050  10.4509870  37.1467540
  31.2215390  10.1503830  37.3162800  31.2326960   4.8791610  35.1105010
  30.6144230   5.3441060  34.5467730  31.7450210   5.5719090  35.5274520
  20.6010160   5.5648140  32.4844640  20.2238140   6.0535240  31.7529540
  20.8583230   6.2373420  33.1151170  35.0559570   6.4048040  35.3227780
  34.9455900   5.4622370  35.4477200  35.0527820   6.7663680  36.2090540
  30.5979850   2.0313360  34.6790270  29.6709130   1.9650740  34.9078740
  30.7504670   2.9693490  34.5645510  34.6277140   3.5933660  35.1825520
  34.0089560   3.2553210  34.5351820  34.6101590   2.9493420  35.8904710
  26.2036490   2.5578100  37.4610000  25.7993490   1.8455350  36.9655900
  26.2899610   2.2131340  38.3498040  32.8041840   2.8320470  32.1898270
  33.2435120   1.9942900  32.0436090  33.5170260   3.4649870  32.2762410
  30.9137220   7.7716540  36.1579510  31.3533130   8.5140870  35.7434900
  30.8524110   8.0143110  37.0818470  21.7874120   6.3238410  37.1791470
  21.3802200   6.4653000  36.3245070  22.6787130   6.0398570  36.9762680
  33.5807400  10.7585660  33.5142520  33.4208540  10.4688600  34.4124350
  33.4154110   9.9825790  32.9787750  26.0595780  10.5384190  35.2914140
  25.8838260   9.6219730  35.0781940  25.2051520  10.8971480  35.5311940
  33.2833530   8.2673220  32.0740520  32.5898690   8.2650510  31.4142800
  34.0256390   7.8432540  31.6434690  32.8483460   9.8935930  36.1489010
  33.3040410   9.1125310  36.4627630  33.1875980  10.6042750  36.6930190
  24.6403290   5.1349990  33.8635240  23.8665550   4.5947610  33.7033960
  25.3697920   4.6156600  33.5253000  24.6840690   4.8030370  37.5014050
  25.2019360   3.9998630  37.4470940  24.2324710   4.7409510  38.3430880
  29.5710190   6.0696650  32.7741350  29.9125890   6.8138880  32.2784670
  28.7422900   6.3827770  33.1366180  36.8751120   8.0627060  34.2915170
  36.2327280   7.4082680  34.5658890  36.4881780   8.4682150  33.5155840
  32.4537600   5.3912490  38.1386860  32.8061420   4.7940620  37.4788230
  31.5699930   5.0656720  38.3095110  28.5400880   6.1510180  35.5457270
  29.2272010   6.6979390  35.9264860  27.7533300   6.6950910  35.5806880
  20.6793280   1.7683000  31.0374350  21.5488130   2.0507800  31.3210270
  20.1883600   2.5818870  30.9223160  27.8428090   3.1556210  35.1582630
  28.2990870   3.9661460  35.3842820  27.4916300   2.8379350  35.9901120
  35.2648500   6.9543520  30.8291520  35.0386080   6.2373960  31.4216160
  34.8744700   6.7055960  29.9913270  21.0464530  10.9810380  31.6035980
  21.4062170  11.5799720  30.9493250  20.9056870  11.5270270  32.3771010
  34.8464750   4.8715460  32.4905680  34.5586450   5.3328150  33.2783560
  35.6416920   4.4113230  32.7589900  27.0633150   8.3641580  32.4209650
  27.0543250   9.0971270  31.8054160  26.1431510   8.1173160  32.5136610
  22.6639790   3.5856470  33.1656410  22.0567740   4.3255370  33.1751710
  23.1389140   3.6755830  32.3394610  30.0492750   8.4269820  31.0834840
  30.1504730   8.2233810  30.1536820  29.1494490   8.1728100  31.2882620
  28.6910860  10.9456140  35.7782510  28.9452360  10.9077530  34.8561880
  27.7423340  10.8189470  35.7710760  24.6745080   3.5467620  30.9144980
  25.4408350   3.4348980  31.4770410  24.7519770   2.8505590  30.2621750
  24.1706550  11.1288080  38.7012410  24.9069030  10.5803540  38.9720980
  24.5547470  11.9944090  38.5618400  21.0552030   7.1961650  34.5753920
  20.1291810   7.4382790  34.5659330  21.5208460   8.0235910  34.4538670
  27.2808860  10.3018390  30.5237980  28.0737470  10.5907220  30.0719770
  26.7613210   9.8710560  29.8450460  36.3339030   9.5288520  31.9474720
  36.0480540   9.1153660  31.1328900  36.1358580  10.4576230  31.8275240
  27.7986260   5.5221800  30.3880330  27.6936900   4.9074150  31.1141710
  27.6310480   4.9987690  29.6043340  31.0388990   4.5841830  30.9922320
  30.4899090   5.0311130  31.6365060  31.6608250   4.0791080  31.5159990
  26.7064110   3.5432750  32.8887620  27.1280530   3.3772620  33.7319010
  26.8314950   2.7332980  32.3942760  29.2191750   2.5670360  30.1364720
  29.7397410   1.8519380  29.7705870  29.8660150   3.2056230  30.4365230
  29.7839780  10.6481970  32.4266460  30.6790570  10.9866940  32.4485220
  29.8157410   9.9261380  31.7990740  23.4235940   6.0209020  30.6553460
  23.8610810   6.5638690  31.3111040  23.9083670   5.1955970  30.6649800
  20.6381740   8.8098050  38.1073720  20.9684750   7.9419110  37.8752360
  21.0672740   9.0156570  38.9378680  25.2343660   7.1407060  35.7675690
  24.9339200   7.0172030  36.6679600  25.1281150   6.2815650  35.3591420
  20.9596380   2.1888870  37.2044230  20.3045220   1.9200510  36.5603930
  21.7974330   2.0793350  36.7546210  37.5111210   3.9585310  30.1309090
  37.7860050   4.8664190  30.0028310  37.3221950   3.8947840  31.0671080
  35.5061820  10.6556220  36.7577090  36.1020890  10.3340790  36.0811510
  35.7639970  10.1828040  37.5490360  21.1654650  10.7169150  36.1870300
  20.9976690  10.0839830  36.8852190  20.2989160  10.9228550  35.8364490
  22.7717350   9.4102380  33.6320440  22.2464970   9.7910410  32.9282400
  22.6961930  10.0353150  34.3530150  37.5282670  10.9689920  34.9534380
  37.7034860  10.2827660  34.3095300  36.8304240  11.4936970  34.5611050
  25.3710320  11.3584760  32.5069690  26.1029140  11.0744040  31.9593580
  25.6303990  11.1198040  33.3969070  24.5325110   7.4749490  32.5116020
  23.9033990   7.9434590  33.0601850  24.6472940   6.6298710  32.9462210
  30.1192870   3.3034170  20.5426490  29.3434970   2.8234610  20.8325060
  30.7705800   2.6239820  20.3682650  24.1358700   3.6153980  21.4202250
  23.3043580   3.3602690  21.8198760  24.7439680   3.6864750  22.1560170
  34.1400300   7.7094360  19.3225620  33.6781830   6.9381600  19.6512790
  34.9525850   7.7360430  19.8278070  24.1159960   7.6494070  21.6160270
  24.4188000   6.7591810  21.4370490  24.8603550   8.2064290  21.3882520
  30.3663610   9.9952370  18.9429610  29.7475050  10.4509870  18.3724050
  31.2215390  10.1503830  18.5419310  29.5601860   5.9791360  20.5496650
  29.4910140   5.0381300  20.3885780  30.3221720   6.0692770  21.1219220
  31.2326960   4.8791610  16.3361520  30.6144230   5.3441060  15.7724240
  31.7450210   5.5719090  16.7531030  26.0958720   4.4067480  23.0145120
  25.7628100   5.0336400  23.6566190  26.2725400   4.9329360  22.2346790
  25.3077820   6.3748280  24.8294300  25.9251820   7.0499360  24.5478750
  24.4470940   6.7836260  24.7381800  20.6010160   5.5648140  13.7101150
  20.2238140   6.0535240  12.9786050  20.8583230   6.2373420  14.3407680
  36.2255410   7.8387690  22.7448940  35.5418930   8.5086800  22.7365610
  36.7649700   8.0368340  21.9793800  33.7614150   9.6831820  21.4594120
  33.7741310   9.2794110  20.5916380  33.2089370  10.4579110  21.3555550
  35.0559570   6.4048040  16.5484290  34.9455900   5.4622370  16.6733710
  35.0527820   6.7663680  17.4347050  33.1599590   4.5861660  22.7876730
  33.5768380   4.3721770  21.9530190  33.8839410   4.8434450  23.3585350
  30.5979850   2.0313360  15.9046780  29.6709130   1.9650740  16.1335250
  30.7504670   2.9693490  15.7902020  37.1061690   2.9848880  22.8792970
  36.2780320   3.0541970  22.4043100  37.7012170   3.5703190  22.4108800
  34.6277140   3.5933660  16.4082030  34.0089560   3.2553210  15.7608330
  34.6101590   2.9493420  17.1161220  26.2036490   2.5578100  18.6866510
  25.7993490   1.8455350  18.1912410  26.2899610   2.2131340  19.5754550
  26.6718190   6.2445660  20.8505720  26.3746480   5.6391130  20.1713500
  27.6218010   6.2822970  20.7395080  34.7603800   9.8177530  24.5128820
  34.2834360  10.6249720  24.3201430  34.0765590   9.1655860  24.6655030
  25.7636620   5.9827350  27.5013520  24.8665150   6.2067320  27.7486920
  25.7889490   6.1062290  26.5524920  32.8041840   2.8320470  13.4154780
  33.2435120   1.9942900  13.2692600  33.5170260   3.4649870  13.5018920
  24.5907840   2.8540670  26.0770890  24.4515610   3.7263470  26.4458290
  23.7089200   2.5113480  25.9318830  30.9137220   7.7716540  17.3836020
  31.3533130   8.5140870  16.9691410  30.8524110   8.0143110  18.3074980
  26.3888190   8.7962370  28.2856040  26.3603620   9.2005320  27.4184470
  26.2253160   7.8672730  28.1227640  20.5426490   4.6238220  21.9941800
  20.6206910   4.7586990  21.0497520  21.1568170   3.9154110  22.1869920
  21.7874120   6.3238410  18.4047980  21.3802200   6.4653000  17.5501580
  22.6787130   6.0398570  18.2019190  37.7436260   6.7702320  26.7420220
  37.8699320   6.5314200  25.8237400  37.7857640   5.9386860  27.2142300
  31.6053000  10.4730320  25.3115030  32.1197670  10.3838330  26.1137460
  30.7622080  10.8190020  25.6042940  33.5807400  10.7585660  14.7399030
  33.4208540  10.4688600  15.6380860  33.4154110   9.9825790  14.2044260
  26.0595780  10.5384190  16.5170650  25.8838260   9.6219730  16.3038450
  25.2051520  10.8971480  16.7568450  33.2833530   8.2673220  13.2997030
  32.5898690   8.2650510  12.6399310  34.0256390   7.8432540  12.8691200
  32.8483460   9.8935930  17.3745520  33.3040410   9.1125310  17.6884140
  33.1875980  10.6042750  17.9186700  20.5986010   5.6652390  24.5336260
  20.7617050   5.1957750  23.7155630  21.0638460   5.1575950  25.1985100
  22.1724990   5.0403820  26.6932070  21.7879780   4.3997490  27.2915030
  22.4837180   5.7439940  27.2626800  24.6403290   5.1349990  15.0891750
  23.8665550   4.5947610  14.9290470  25.3697920   4.6156600  14.7509510
  35.3991270   4.1315350  20.8818140  36.1190390   4.6270640  20.4914250
  35.1973090   3.4533240  20.2372010  30.7810070   4.2024410  26.7687140
  30.7147380   3.2820080  26.5144730  30.1515210   4.2999850  27.4831780
  24.6840690   4.8030370  18.7270560  25.2019360   3.9998630  18.6727450
  24.2324710   4.7409510  19.5687390  29.5710190   6.0696650  13.9997860
  29.9125890   6.8138880  13.5041180  28.7422900   6.3827770  14.3622690
  25.3698350   2.2275980  28.5235810  25.0698490   2.3733160  27.6263630
  26.1409590   1.6681270  28.4309200  30.7126800   7.0244980  26.5190940
  30.7271340   6.0925940  26.3009850  30.0051900   7.1104740  27.1580710
  36.9238010   3.6652320  25.8659520  36.1986200   4.2581100  25.6688910
  37.4513470   3.6575860  25.0672890  36.8751120   8.0627060  15.5171680
  36.2327280   7.4082680  15.7915400  36.4881780   8.4682150  14.7412350
  32.4537600   5.3912490  19.3643370  32.8061420   4.7940620  18.7044740
  31.5699930   5.0656720  19.5351620  28.5400880   6.1510180  16.7713780
  29.2272010   6.6979390  17.1521370  27.7533300   6.6950910  16.8063390
  20.6793280   1.7683000  12.2630860  21.5488130   2.0507800  12.5466780
  20.1883600   2.5818870  12.1479670  27.8428090   3.1556210  16.3839140
  28.2990870   3.9661460  16.6099330  27.4916300   2.8379350  17.2157630
  30.1460700   8.6662550  23.6131440  30.7902920   8.8721930  24.2904860
  30.5090140   7.9050950  23.1602290  31.4192780   6.6694900  22.3308890
  32.0615010   5.9688060  22.4441060  31.9442130   7.4493340  22.1505780
  35.2648500   6.9543520  12.0548030  35.0386080   6.2373960  12.6472670
  34.8744700   6.7055960  11.2169780  33.1930400   7.4689800  25.5344950
  33.5286640   8.0556490  26.2122870  32.2730740   7.3382510  25.7642740
  21.0464530  10.9810380  12.8292490  21.4062170  11.5799720  12.1749760
  20.9056870  11.5270270  13.6027520  34.8464750   4.8715460  13.7162190
  34.5586450   5.3328150  14.5040070  35.6416920   4.4113230  13.9846410
  21.0306390   9.2465240  27.3034890  21.1397510   8.3059980  27.1630280
  20.3786950   9.5119990  26.6548620  29.0218980   7.5181130  28.7033010
  28.7015850   6.7990370  29.2478700  28.3477340   8.1936200  28.7769070
  27.0633150   8.3641580  13.6466160  27.0543250   9.0971270  13.0310670
  26.1431510   8.1173160  13.7393120  22.6639790   3.5856470  14.3912920
  22.0567740   4.3255370  14.4008220  23.1389140   3.6755830  13.5651120
  30.0492750   8.4269820  12.3091350  30.1504730   8.2233810  11.3793330
  29.1494490   8.1728100  12.5139130  28.6910860  10.9456140  17.0039020
  28.9452360  10.9077530  16.0818390  27.7423340  10.8189470  16.9967270
  24.6745080   3.5467620  12.1401490  25.4408350   3.4348980  12.7026920
  24.7519770   2.8505590  11.4878260  36.6989020   9.0356870  20.2551790
  36.8236440   9.8588040  20.7275600  37.5654580   8.8247600  19.9075940
  24.1706550  11.1288080  19.9268920  24.9069030  10.5803540  20.1977490
  24.5547470  11.9944090  19.7874910  21.0552030   7.1961650  15.8010430
  20.1291810   7.4382790  15.7915840  21.5208460   8.0235910  15.6795180
  23.1764830  10.3134150  29.1154500  23.9777560  10.6346200  29.5289900
  22.6616650   9.9529730  29.8374410  27.2808860  10.3018390  11.7494490
  28.0737470  10.5907220  11.2976280  26.7613210   9.8710560  11.0706970
  32.0129460   6.4214020  29.0629910  31.4067620   6.4445620  28.3225660
  31.7083570   5.6897060  29.5997160  33.4429830  10.1494310  27.6739320
  34.3951580  10.0652330  27.6239560  33.2958050  10.8136020  28.3473110
  36.3339030   9.5288520  13.1731230  36.0480540   9.1153660  12.3585410
  36.1358580  10.4576230  13.0531750  20.8962640   2.8007610  28.0590550
  21.4001660   2.2214890  28.6306780  20.1570060   3.0847840  28.5966920
  27.7986260   5.5221800  11.6136840  27.6936900   4.9074150  12.3398220
  27.6310480   4.9987690  10.8299850  27.9500580   4.2078600  27.5926070
  27.1846250   4.7763600  27.5080740  28.1316540   3.9154810  26.6994300
  31.0388990   4.5841830  12.2178830  30.4899090   5.0311130  12.8621570
  31.6608250   4.0791080  12.7416500  35.0923930   5.9383930  28.1501090
  35.8333400   6.2759690  27.6468550  34.3296610   6.1075990  27.5970860
  26.7064110   3.5432750  14.1144130  27.1280530   3.3772620  14.9575520
  26.8314950   2.7332980  13.6199270  29.2191750   2.5670360  11.3621230
  29.7397410   1.8519380  10.9962380  29.8660150   3.2056230  11.6621740
  33.7669590   3.9898760  26.6856300  34.1810610   4.1443840  27.5346720
  32.8320590   4.1153980  26.8482080  28.5284820   3.9419240  24.6552230
  28.9472930   4.7851970  24.4828470  27.6093450   4.0791280  24.4259010
  33.2036620   2.2272610  24.6152580  32.6771840   2.7515230  24.0117720
  33.5467960   2.8600000  25.2462310  26.3792240  10.2472250  25.7709960
  25.8413330  10.9718310  25.4518660  26.6326200   9.7702590  24.9807300
  29.2354450  11.4823460  26.0296610  29.1613150  12.3858600  26.3368980
  28.3333290  11.1635360  26.0018680  29.7839780  10.6481970  13.6522970
  30.6790570  10.9866940  13.6741730  29.8157410   9.9261380  13.0247250
  23.4235940   6.0209020  11.8809970  23.8610810   6.5638690  12.5367550
  23.9083670   5.1955970  11.8906310  20.6381740   8.8098050  19.3330230
  20.9684750   7.9419110  19.1008870  21.0672740   9.0156570  20.1635190
  25.2343660   7.1407060  16.9932200  24.9339200   7.0172030  17.8936110
  25.1281150   6.2815650  16.5847930  21.1271950   9.6768640  22.0711860
  20.6902940   9.8569440  22.9036010  21.6949630  10.4343260  21.9293580
  36.7634130   9.1785640  26.3589170  36.1636120   9.2378200  25.6153090
  36.8928030   8.2390620  26.4886020  20.9596380   2.1888870  18.4300740
  20.3045220   1.9200510  17.7860440  21.7974330   2.0793350  17.9802720
  35.4485770   5.9037620  24.4565330  34.6345610   6.3334780  24.7191120
  35.8559970   6.5156030  23.8434380  37.5111210   3.9585310  11.3565600
  37.7860050   4.8664190  11.2284820  37.3221950   3.8947840  12.2927590
  21.9972310   2.5741440  22.9704080  22.3645350   2.4868840  23.8500100
  21.4283130   1.8107990  22.8710940  35.5061820  10.6556220  17.9833600
  36.1020890  10.3340790  17.3068020  35.7639970  10.1828040  18.7746870
  23.4124390   7.0874130  28.1324230  23.3694020   6.7167040  29.0138690
  23.5435400   8.0251700  28.2726050  27.1130420   8.6433720  23.7333950
  26.8721780   8.9108280  22.8464470  28.0533060   8.8139450  23.7884810
  23.2512420  10.0336380  25.2522010  22.6572740   9.9021080  25.9912050
  23.2436260   9.1974520  24.7864110  36.0574030  11.3051520  21.8131330
  35.5977000  12.0567330  21.4389350  35.4286490  10.5857990  21.7546130
  22.8824650   7.3994760  24.2030050  22.1558710   6.7800050  24.1356000
  22.9433800   7.7935370  23.3328130  26.4869750   9.6139760  20.9879460
  27.0034770   9.0027120  20.4627720  27.1367130  10.1168540  21.4790470
  29.2265250  10.5048250  21.8148440  29.5143060  10.2502550  20.9381450
  29.7388470   9.9525610  22.4054010  21.1654650  10.7169150  17.4126810
  20.9976690  10.0839830  18.1108700  20.2989160  10.9228550  17.0621000
  22.7717350   9.4102380  14.8576950  22.2464970   9.7910410  14.1538910
  22.6961930  10.0353150  15.5786660  29.2937610  11.4264350  29.1816640
  30.2204920  11.1908620  29.2252600  29.2788040  12.2536350  28.7002670
  37.5282670  10.9689920  16.1790890  37.7034860  10.2827660  15.5351810
  36.8304240  11.4936970  15.7867560  25.3710320  11.3584760  13.7326200
  26.1029140  11.0744040  13.1850090  25.6303990  11.1198040  14.6225580
  24.5325110   7.4749490  13.7372530  23.9033990   7.9434590  14.2858360
  24.6472940   6.6298710  14.1718720  35.8615170  10.6534210  29.0057680
  36.6540490  10.1583440  28.7983640  36.1548320  11.3324350  29.6133290
  30.1192870   3.3034170   1.7683000  29.3434970   2.8234610   2.0581570
  30.7705800   2.6239820   1.5939160  24.1358700   3.6153980   2.6458760
  23.3043580   3.3602690   3.0455270  24.7439680   3.6864750   3.3816680
  24.1159960   7.6494070   2.8416780  24.4188000   6.7591810   2.6627000
  24.8603550   8.2064290   2.6139030  29.5601860   5.9791360   1.7753160
  29.4910140   5.0381300   1.6142290  30.3221720   6.0692770   2.3475730
  26.0958720   4.4067480   4.2401630  25.7628100   5.0336400   4.8822700
  26.2725400   4.9329360   3.4603300  25.3077820   6.3748280   6.0550810
  25.9251820   7.0499360   5.7735260  24.4470940   6.7836260   5.9638310
  36.2255410   7.8387690   3.9705450  35.5418930   8.5086800   3.9622120
  36.7649700   8.0368340   3.2050310  33.7614150   9.6831820   2.6850630
  33.7741310   9.2794110   1.8172890  33.2089370  10.4579110   2.5812060
  33.1599590   4.5861660   4.0133240  33.5768380   4.3721770   3.1786700
  33.8839410   4.8434450   4.5841860  37.1061690   2.9848880   4.1049480
  36.2780320   3.0541970   3.6299610  37.7012170   3.5703190   3.6365310
  26.6718190   6.2445660   2.0762230  26.3746480   5.6391130   1.3970010
  27.6218010   6.2822970   1.9651590  34.7603800   9.8177530   5.7385330
  34.2834360  10.6249720   5.5457940  34.0765590   9.1655860   5.8911540
  25.7636620   5.9827350   8.7270030  24.8665150   6.2067320   8.9743430
  25.7889490   6.1062290   7.7781430  24.5907840   2.8540670   7.3027400
  24.4515610   3.7263470   7.6714800  23.7089200   2.5113480   7.1575340
  26.3888190   8.7962370   9.5112550  26.3603620   9.2005320   8.6440980
  26.2253160   7.8672730   9.3484150  20.5426490   4.6238220   3.2198310
  20.6206910   4.7586990   2.2754030  21.1568170   3.9154110   3.4126430
  37.7436260   6.7702320   7.9676730  37.8699320   6.5314200   7.0493910
  37.7857640   5.9386860   8.4398810  31.6053000  10.4730320   6.5371540
  32.1197670  10.3838330   7.3393970  30.7622080  10.8190020   6.8299450
  20.5986010   5.6652390   5.7592770  20.7617050   5.1957750   4.9412140
  21.0638460   5.1575950   6.4241610  22.1724990   5.0403820   7.9188580
  21.7879780   4.3997490   8.5171540  22.4837180   5.7439940   8.4883310
  35.3991270   4.1315350   2.1074650  36.1190390   4.6270640   1.7170760
  35.1973090   3.4533240   1.4628520  30.7810070   4.2024410   7.9943650
  30.7147380   3.2820080   7.7401240  30.1515210   4.2999850   8.7088290
  25.3698350   2.2275980   9.7492320  25.0698490   2.3733160   8.8520140
  26.1409590   1.6681270   9.6565710  30.7126800   7.0244980   7.7447450
  30.7271340   6.0925940   7.5266360  30.0051900   7.1104740   8.3837220
  36.9238010   3.6652320   7.0916030  36.1986200   4.2581100   6.8945420
  37.4513470   3.6575860   6.2929400  30.1460700   8.6662550   4.8387950
  30.7902920   8.8721930   5.5161370  30.5090140   7.9050950   4.3858800
  31.4192780   6.6694900   3.5565400  32.0615010   5.9688060   3.6697570
  31.9442130   7.4493340   3.3762290  33.1930400   7.4689800   6.7601460
  33.5286640   8.0556490   7.4379380  32.2730740   7.3382510   6.9899250
  21.0306390   9.2465240   8.5291400  21.1397510   8.3059980   8.3886790
  20.3786950   9.5119990   7.8805130  29.0218980   7.5181130   9.9289520
  28.7015850   6.7990370  10.4735210  28.3477340   8.1936200  10.0025580
  23.1764830  10.3134150  10.3411010  23.9777560  10.6346200  10.7546410
  22.6616650   9.9529730  11.0630920  32.0129460   6.4214020  10.2886420
  31.4067620   6.4445620   9.5482170  31.7083570   5.6897060  10.8253670
  33.4429830  10.1494310   8.8995830  34.3951580  10.0652330   8.8496070
  33.2958050  10.8136020   9.5729620  20.8962640   2.8007610   9.2847060
  21.4001660   2.2214890   9.8563290  20.1570060   3.0847840   9.8223430
  27.9500580   4.2078600   8.8182580  27.1846250   4.7763600   8.7337250
  28.1316540   3.9154810   7.9250810  35.0923930   5.9383930   9.3757600
  35.8333400   6.2759690   8.8725060  34.3296610   6.1075990   8.8227370
  33.7669590   3.9898760   7.9112810  34.1810610   4.1443840   8.7603230
  32.8320590   4.1153980   8.0738590  28.5284820   3.9419240   5.8808740
  28.9472930   4.7851970   5.7084980  27.6093450   4.0791280   5.6515520
  33.2036620   2.2272610   5.8409090  32.6771840   2.7515230   5.2374230
  33.5467960   2.8600000   6.4718820  26.3792240  10.2472250   6.9966470
  25.8413330  10.9718310   6.6775170  26.6326200   9.7702590   6.2063810
  29.2354450  11.4823460   7.2553120  29.1613150  12.3858600   7.5625490
  28.3333290  11.1635360   7.2275190  21.1271950   9.6768640   3.2968370
  20.6902940   9.8569440   4.1292520  21.6949630  10.4343260   3.1550090
  36.7634130   9.1785640   7.5845680  36.1636120   9.2378200   6.8409600
  36.8928030   8.2390620   7.7142530  35.4485770   5.9037620   5.6821840
  34.6345610   6.3334780   5.9447630  35.8559970   6.5156030   5.0690890
  21.9972310   2.5741440   4.1960590  22.3645350   2.4868840   5.0756610
  21.4283130   1.8107990   4.0967450  23.4124390   7.0874130   9.3580740
  23.3694020   6.7167040  10.2395200  23.5435400   8.0251700   9.4982560
  27.1130420   8.6433720   4.9590460  26.8721780   8.9108280   4.0720980
  28.0533060   8.8139450   5.0141320  23.2512420  10.0336380   6.4778520
  22.6572740   9.9021080   7.2168560  23.2436260   9.1974520   6.0120620
  36.0574030  11.3051520   3.0387840  35.5977000  12.0567330   2.6645860
  35.4286490  10.5857990   2.9802640  22.8824650   7.3994760   5.4286560
  22.1558710   6.7800050   5.3612510  22.9433800   7.7935370   4.5584640
  26.4869750   9.6139760   2.2135970  27.0034770   9.0027120   1.6884230
  27.1367130  10.1168540   2.7046980  29.2265250  10.5048250   3.0404950
  29.5143060  10.2502550   2.1637960  29.7388470   9.9525610   3.6310520
  29.2937610  11.4264350  10.4073150  30.2204920  11.1908620  10.4509110
  29.2788040  12.2536350   9.9259180  35.8615170  10.6534210  10.2314190
  36.6540490  10.1583440  10.0240150  36.1548320  11.3324350  10.8389800
  13.2131340  39.0742130  37.4360710  13.1325390  38.1596740  37.1652420
  12.7995760  39.5709200  36.7300420   3.7707160  36.1242850  33.9788130
   2.8823860  36.4658820  33.8768010   4.0548350  35.9243170  33.0868960
   5.9468550  34.7074350  35.0126510   6.0535300  35.6078080  35.3195270
   5.0360910  34.6592320  34.7221160  15.5987660  33.8299160  36.4837410
  16.4197280  33.3395730  36.5262890  15.6321740  34.4196820  37.2369250
   9.4355600  31.5151510  37.9430150   9.7430580  30.9598400  37.2265650
   8.5056300  31.6495970  37.7603140  11.8236360  39.5800340  34.6790270
  10.8965640  39.5137720  34.9078740  11.9761180  40.5180470  34.5645510
  11.8105440  35.8517340  31.6757430  10.8709110  36.0131300  31.7609890
  12.1288700  36.5703020  31.1293420   7.4293000  40.1065080  37.4610000
   7.0250000  39.3942330  36.9655900   7.5156120  39.7618320  38.3498040
  17.6115490  31.6350260  30.5039310  17.2988150  31.7277090  31.4038380
  18.3727960  32.2131290  30.4536740   4.1297630  39.0010060  34.9616650
   4.0095230  39.7272150  34.3497920   3.8198520  38.2312970  34.4844560
   6.5961290  32.3445130  38.3440320   6.1529440  33.1254670  38.0124840
   7.1546280  32.6675020  39.0511260   9.7120110  31.9655830  33.2246150
   9.0874290  31.9615700  33.9499460   9.6250230  31.0986790  32.8282120
   6.3875510  37.4678700  36.0721570   6.1616430  37.2515870  36.9768190
   5.6068040  37.9007160  35.7267540  13.6173270  37.4742070  34.6712220
  13.0182160  38.1977870  34.4875840  14.1652880  37.4118850  33.8888670
  12.2238140  36.1105610  36.7015500  12.6167710  36.4277810  35.8884190
  12.5854990  35.2317490  36.8160020   5.0973050  35.2592050  38.1612980
   4.7573100  35.7367280  38.9180030   4.3350370  34.8057170  37.8014080
   9.3090820  36.3777640  32.1925530   9.4303640  36.3364120  33.1411350
   8.9239330  37.2401790  32.0372260   8.3212320  38.6878780  31.5908830
   7.7529220  38.2397030  30.9644740   9.0301320  39.0471560  31.0573980
   2.4119130  34.1811030  37.0777650   2.1266050  33.8166700  37.9156270
   2.3497990  33.4491490  36.4640790  12.0857720  33.0740290  33.7991020
  11.2722330  32.5753460  33.7236330  11.8919670  33.9138540  33.3827370
  14.8006110  37.4459940  32.0953180  15.6885730  37.7577170  31.9204520
  14.7711200  36.5732190  31.7033760  17.0720380  38.7571780  31.5633040
  16.9884100  39.1886000  30.7129480  17.7914570  39.2170130  31.9959860
   4.9696380  31.0480840  35.6305150   4.8411010  31.0398740  36.5790070
   4.1458400  31.3863930  35.2796160  16.8291120  34.2551210  33.6500860
  16.2004280  34.3596880  32.9359090  16.3343040  34.4747990  34.4394740
   8.7975150  36.5337160  35.0658740   8.0891300  37.0023500  35.5072350
   9.0819630  35.8759170  35.7003930  12.8290580  33.2587820  36.5054530
  12.7058360  33.2773950  35.5564040  13.7775140  33.3066760  36.6252930
   7.0010170  34.8422240  32.4409450   7.8500700  35.2792390  32.3749640
   6.6341440  35.1542500  33.2681510  15.9219950  39.4135000  37.3541020
  14.9810090  39.4285230  37.5288710  16.2364020  38.6270960  37.8001320
   4.5948350  38.5279670  31.5977870   4.6751940  37.5807180  31.7095270
   5.4868100  38.8586550  31.7038530  10.4448260  40.1157340  30.1364720
  10.9653920  39.4006360  29.7705870  11.0916660  40.7543210  30.4365230
   6.8279520  37.1652960  29.8345780   6.6268580  36.3020320  30.1959120
   6.6571570  37.0786320  28.8967380  14.3067830  31.9761190  32.3632660
  14.5870120  31.1329090  32.7192080  13.5333560  32.2084300  32.8771410
   5.6262320  34.2653580  29.8223660   5.9288220  34.2721010  28.9142810
   6.3656910  33.9151440  30.3191320   8.8447250  33.2088200  30.8079860
   8.4969250  32.5312190  30.2282310   9.0460020  32.7477710  31.6223250
  15.1343330  34.5317140  31.4262720  15.5528210  34.3448120  30.5859380
  14.8279390  33.6796190  31.7365650  18.6333060  39.4441280  35.1238520
  18.2576660  38.6769210  34.6919810  17.9036180  39.8263980  35.6113450
   3.9418180  36.0040320  31.0563940   4.6509880  35.5823540  30.5711220
   3.2258120  36.0715550  30.4247290   3.5892340  32.0579650  30.0966590
   4.3120470  32.5988590  30.4147810   3.8616860  31.7843070  29.2208130
  17.3983990  36.9272120  34.3638170  17.8943110  36.6942990  35.1487050
  17.2000060  36.0883960  33.9475810  18.8271150  35.5633070  36.8975850
  18.7170430  35.4089110  37.8358120  19.5878740  35.0354010  36.6551260
  19.7161420  33.3940990  30.1381990  20.6410730  33.2622170  29.9300280
  19.6937210  33.4733810  31.0918440  19.7899910  34.1651650  32.7638700
  18.9951410  34.0996770  33.2931610  19.9943190  35.1002290  32.7524050
  18.0858410  32.1263770  37.2246350  18.0246810  31.1824990  37.0777370
  18.8650440  32.2343860  37.7699810   3.0139180  32.0972910  33.6902160
   3.7718540  32.2101790  33.1166190   2.5516350  32.9342110  33.6445590
   9.5552990  34.2112180  36.6804470   8.7427500  33.8369070  36.3400350
  10.0594630  33.4557260  36.9825660  14.0577970  30.8754630  37.9187540
  14.6607340  31.4474840  38.3936060  13.3170960  31.4394070  37.6961440
  17.2012570  31.2776190  33.1927820  17.3963200  32.1759640  33.4595250
  16.4142440  31.0463270  33.6860770   5.3864330  32.6236960  32.2304130
   5.9157090  31.8366760  32.1012080   6.0192650  33.3028150  32.4639660
   7.5802170  32.3612100  35.2849520   6.9504910  31.6599410  35.4519650
   7.0407310  33.1216230  35.0682680  13.2131340  39.0742130  18.6617220
  13.1325390  38.1596740  18.3908930  12.7995760  39.5709200  17.9556930
   3.7707160  36.1242850  15.2044640   2.8823860  36.4658820  15.1024520
   4.0548350  35.9243170  14.3125470   2.9765040  34.1332860  22.8753270
   2.7967880  33.2358610  23.1556030   2.5745120  34.6804730  23.5500220
  11.8163540  36.3348720  20.7765580  12.1928360  35.4620600  20.6639250
  11.7183050  36.6707420  19.8856020   5.9468550  34.7074350  16.2383020
   6.0535300  35.6078080  16.5451780   5.0360910  34.6592320  15.9477670
  15.5987660  33.8299160  17.7093920  16.4197280  33.3395730  17.7519400
  15.6321740  34.4196820  18.4625760   3.5951710  36.6293360  21.4835610
   4.2761820  36.8931730  22.1023010   3.2799760  35.7894230  21.8173620
   7.7876280  37.6760720  20.5708200   8.2954500  38.1741690  21.2113220
   8.3189520  36.8995920  20.3947560  19.8887210  35.8465910  24.2737550
  19.1839380  36.2347620  23.7552660  20.1545130  36.5416200  24.8758480
   6.0712380  32.3159280  24.8371620   6.0730820  32.8331670  24.0317520
   5.2416690  31.8389460  24.8141550  15.8349140  35.7699540  20.4821460
  15.1304710  36.0584430  21.0624570  16.1961300  36.5799650  20.1221020
   5.7527710  34.0269240  22.8442070   6.0944520  34.8711290  22.5495940
   4.8143520  34.1752980  22.9607410  18.9036060  35.2154330  20.8730670
  17.9560970  35.2493310  21.0046100  19.2286050  36.0293280  21.2580030
   9.4355600  31.5151510  19.1686660   9.7430580  30.9598400  18.4522160
   8.5056300  31.6495970  18.9859650  11.8236360  39.5800340  15.9046780
  10.8965640  39.5137720  16.1335250  11.9761180  40.5180470  15.7902020
  11.8105440  35.8517340  12.9013940  10.8709110  36.0131300  12.9866400
  12.1288700  36.5703020  12.3549930  15.2960210  37.3205180  23.8247840
  14.8831390  38.1458890  24.0787830  14.5636160  36.7350220  23.6324200
   7.4293000  40.1065080  18.6866510   7.0250000  39.3942330  18.1912410
   7.5156120  39.7618320  19.5754550   6.1421620  36.8808290  22.4665550
   6.6936210  36.9903630  21.6918800   6.6565130  37.2545890  23.1820780
  17.6115490  31.6350260  11.7295820  17.2988150  31.7277090  12.6294890
  18.3727960  32.2131290  11.6793250   4.1297630  39.0010060  16.1873160
   4.0095230  39.7272150  15.5754430   3.8198520  38.2312970  15.7101070
  18.8216780  36.3721760  27.7069960  18.2061050  36.8801430  27.1785420
  18.5013200  35.4720090  27.6495900   6.5961290  32.3445130  19.5696830
   6.1529440  33.1254670  19.2381350   7.1546280  32.6675020  20.2767770
  10.8831100  35.2113650  25.1732150  10.4210470  35.4196670  25.9852090
  10.4809210  34.3973000  24.8702820  15.8835610  36.4322600  26.3028810
  15.0329200  36.1328350  26.6237880  15.7237400  36.6764610  25.3912630
  12.9785320  37.9324350  28.4027600  13.3038730  37.0988100  28.0629830
  13.7665650  38.4552870  28.5505930   9.7120110  31.9655830  14.4502660
   9.0874290  31.9615700  15.1755970   9.6250230  31.0986790  14.0538630
   8.6337190  32.8892460  21.4286430   8.9309520  33.7955290  21.3478450
   9.1822750  32.4011240  20.8146000   6.3875510  37.4678700  17.2978080
   6.1616430  37.2515870  18.2024700   5.6068040  37.9007160  16.9524050
  13.6173270  37.4742070  15.8968730  13.0182160  38.1977870  15.7132350
  14.1652880  37.4118850  15.1145180   8.8274720  38.3664280  27.9638350
   8.7318320  37.4259010  27.8138750   9.6706700  38.5879350  27.5686420
  12.2238140  36.1105610  17.9272010  12.6167710  36.4277810  17.1140700
  12.5854990  35.2317490  18.0416530   3.9585260  34.7777950  26.1172130
   3.5648650  35.6253160  26.3244910   3.2703660  34.1404320  26.3080770
  10.5330310  34.8612920  29.1868870   9.8428630  34.6685120  29.8214960
  11.2762610  35.1447560  29.7193170  12.8093280  38.7011360  22.0222790
  12.0774400  39.2098170  22.3712890  12.4117620  37.8841340  21.7211570
   9.2470670  35.3765560  20.4275280   9.2506730  34.9355510  19.5779820
  10.1421790  35.6982890  20.5347100   5.0973050  35.2592050  19.3869490
   4.7573100  35.7367280  20.1436540   4.3350370  34.8057170  19.0270590
   9.3090820  36.3777640  13.4182040   9.4303640  36.3364120  14.3667860
   8.9239330  37.2401790  13.2628770  13.2719190  34.1545040  21.4345730
  13.2891930  34.6053690  22.2787580  13.0234770  33.2550680  21.6479170
   8.3212320  38.6878780  12.8165340   7.7529220  38.2397030  12.1901250
   9.0301320  39.0471560  12.2830490  16.6989940  31.5677220  27.2732110
  17.0235710  30.8366880  27.7990090  16.7346450  31.2490860  26.3713100
   9.5478640  39.4367340  22.1740690   9.9148770  38.9625910  22.9202030
   9.3583700  40.3108910  22.5149030   2.4119130  34.1811030  18.3034160
   2.1266050  33.8166700  19.1412780   2.3497990  33.4491490  17.6897300
   7.3378010  38.4775980  24.4924900   7.0335080  39.3567960  24.7175260
   8.2924470  38.5375770  24.5282340  12.0857720  33.0740290  15.0247530
  11.2722330  32.5753460  14.9492840  11.8919670  33.9138540  14.6083880
  14.8006110  37.4459940  13.3209690  15.6885730  37.7577170  13.1461030
  14.7711200  36.5732190  12.9290270   3.3941740  39.3178720  25.6396260
   3.0356680  39.9832570  26.2269600   3.0996300  38.4862270  26.0108880
   6.5954860  39.7762960  28.5235810   6.2955000  39.9220140  27.6263630
   7.3666100  39.2168250  28.4309200  17.0720380  38.7571780  12.7889550
  16.9884100  39.1886000  11.9385990  17.7914570  39.2170130  13.2216370
   4.9696380  31.0480840  16.8561660   4.8411010  31.0398740  17.8046580
   4.1458400  31.3863930  16.5052670  13.4629090  35.2994270  24.0669810
  13.8309910  34.4789480  24.3949380  12.6027290  35.3596160  24.4825460
  16.8291120  34.2551210  14.8757370  16.2004280  34.3596880  14.1615600
  16.3343040  34.4747990  15.6651250   8.7975150  36.5337160  16.2915250
   8.0891300  37.0023500  16.7328860   9.0819630  35.8759170  16.9260440
  10.4231080  37.9533860  24.2907780  10.9216330  38.4279680  24.9559630
  10.5654030  37.0297380  24.4977810  12.8290580  33.2587820  17.7311040
  12.7058360  33.2773950  16.7820550  13.7775140  33.3066760  17.8509440
   7.0010170  34.8422240  13.6665960   7.8500700  35.2792390  13.6006150
   6.6341440  35.1542500  14.4938020  17.6297940  34.1701820  25.1336170
  17.1271540  34.9107220  25.4729980  18.4454600  34.5585820  24.8172960
  15.9219950  39.4135000  18.5797530  14.9810090  39.4285230  18.7545220
  16.2364020  38.6270960  19.0257830   4.5948350  38.5279670  12.8234380
   4.6751940  37.5807180  12.9351780   5.4868100  38.8586550  12.9295040
   4.1542230  38.4924180  28.9540620   4.1947570  38.1938050  29.8625850
   5.0087730  38.8931790  28.7948140   6.0948040  37.0716280  26.9215110
   5.5644500  36.5807230  26.2938450   6.7636110  37.5000480  26.3873040
  10.4448260  40.1157340  11.3621230  10.9653920  39.4006360  10.9962380
  11.0916660  40.7543210  11.6621740  15.4648270  38.8781900  28.6895450
  16.0469040  38.1234220  28.6015930  15.6410040  39.4089340  27.9126930
   6.5820340  34.0378650  27.0012400   6.4877210  33.4199400  26.2763270
   6.0017730  34.7644940  26.7742310   9.3481780  32.5951890  24.0339790
   8.8999080  32.6176150  23.1885340   8.7146980  32.1970910  24.6310090
  12.0905230  39.2222400  26.0390070  12.2101440  38.6263540  26.7784910
  12.9499230  39.2592090  25.6191370  14.4293130  39.7759590  24.6152580
  13.9028350  40.3002210  24.0117720  14.7724470  40.4086980  25.2462310
   6.8279520  37.1652960  11.0602290   6.6268580  36.3020320  11.4215630
   6.6571570  37.0786320  10.1223890   8.8574000  35.7643750  27.2965890
   9.4473690  35.4559600  27.9843710   8.0394240  35.2923500  27.4525790
  13.6767430  35.3809560  27.5298910  12.9882950  34.7191100  27.4648900
  14.3973450  34.9347830  27.9747370  14.3067830  31.9761190  13.5889170
  14.5870120  31.1329090  13.9448590  13.5333560  32.2084300  14.1027920
   5.6262320  34.2653580  11.0480170   5.9288220  34.2721010  10.1399320
   6.3656910  33.9151440  11.5447830   8.8447250  33.2088200  12.0336370
   8.4969250  32.5312190  11.4538820   9.0460020  32.7477710  12.8479760
  15.1343330  34.5317140  12.6519230  15.5528210  34.3448120  11.8115890
  14.8279390  33.6796190  12.9622160  18.6333060  39.4441280  16.3495030
  18.2576660  38.6769210  15.9176320  17.9036180  39.8263980  16.8369960
   3.2228820  40.1228420  22.9704080   3.5901860  40.0355820  23.8500100
   2.6539640  39.3594970  22.8710940  18.0232680  38.5912800  25.9834550
  17.7918770  38.3625550  25.0832500  18.2837230  39.5112350  25.9379440
   2.7744820  37.0337510  26.8762500   1.8800870  37.0004270  27.2156210
   3.3142370  37.2324300  27.6413750  16.4620750  33.8169230  28.7614250
  17.3390930  33.8252630  29.1448250  16.4741590  33.0800070  28.1506600
  17.9084020  37.6698770  19.6502270  18.4321500  37.1761420  19.0192440
  18.4943440  37.8049130  20.3949840  18.0873740  37.7538640  23.1721820
  17.1376450  37.7202180  23.2866810  18.2686750  38.6638750  22.9371590
   3.9418180  36.0040320  12.2820450   4.6509880  35.5823540  11.7967730
   3.2258120  36.0715550  11.6503800   3.5892340  32.0579650  11.3223100
   4.3120470  32.5988590  11.6404320   3.8616860  31.7843070  10.4464640
  17.3983990  36.9272120  15.5894680  17.8943110  36.6942990  16.3743560
  17.2000060  36.0883960  15.1732320   3.2784530  31.3085840  21.2245720
   3.9260720  30.7583220  20.7840880   3.6986370  31.5628990  22.0461530
  18.8271150  35.5633070  18.1232360  18.7170430  35.4089110  19.0614630
  19.5878740  35.0354010  17.8807770  17.1736870  31.5027200  24.5815360
  17.8109090  32.1161340  24.9474550  17.3211760  31.5387860  23.6364590
  19.7161420  33.3940990  11.3638500  20.6410730  33.2622170  11.1556790
  19.6937210  33.4733810  12.3174950  19.7899910  34.1651650  13.9895210
  18.9951410  34.0996770  14.5188120  19.9943190  35.1002290  13.9780560
   3.0316530  31.4641510  23.9671040   2.6831350  31.9205330  24.7329220
   2.7004230  30.5698640  24.0493470  10.5441350  32.6553390  27.4890460
  10.4830240  33.2475220  28.2385870  11.4841730  32.5479350  27.3440720
  13.1815910  32.3123450  27.1282750  13.7956320  32.6302740  26.4663830
  13.7265470  31.8272040  27.7478610   3.7037170  30.9917710  27.2421810
   4.2520160  30.8105760  26.4787920   3.7692480  30.2011820  27.7778120
  13.9223950  30.8755590  23.4552040  13.0483790  31.2090700  23.2524970
  13.8134700  30.4028770  24.2803910  14.8295930  33.0826460  24.8393760
  14.5009290  32.2678220  24.4595490  15.7778230  33.0396270  24.7159450
  11.6698770  31.7925430  22.3944950  10.8870560  32.2670930  22.6741710
  11.3761700  30.8880260  22.2858130  16.2219840  32.4948530  20.4394040
  16.6627930  32.4393630  19.5915640  15.9527430  33.4106540  20.5104220
  18.0858410  32.1263770  18.4502860  18.0246810  31.1824990  18.3033880
  18.8650440  32.2343860  18.9956320   3.0139180  32.0972910  14.9158670
   3.7718540  32.2101790  14.3422700   2.5516350  32.9342110  14.8702100
   9.5552990  34.2112180  17.9060980   8.7427500  33.8369070  17.5656860
  10.0594630  33.4557260  18.2082170  14.0577970  30.8754630  19.1444050
  14.6607340  31.4474840  19.6192570  13.3170960  31.4394070  18.9217950
  17.2012570  31.2776190  14.4184330  17.3963200  32.1759640  14.6851760
  16.4142440  31.0463270  14.9117280   5.3864330  32.6236960  13.4560640
   5.9157090  31.8366760  13.3268590   6.0192650  33.3028150  13.6896170
   7.5802170  32.3612100  16.5106030   6.9504910  31.6599410  16.6776160
   7.0407310  33.1216230  16.2939190   7.7057730  31.6396080  28.9458520
   7.4242000  32.1429680  28.1819340   8.0877430  30.8417830  28.5800650
  14.3073190  31.0549660  29.5238990  14.1938640  31.3744270  30.4190510
  15.1242930  31.4562170  29.2276270   2.9765040  34.1332860   4.1009780
   2.7967880  33.2358610   4.3812540   2.5745120  34.6804730   4.7756730
   3.5951710  36.6293360   2.7092120   4.2761820  36.8931730   3.3279520
   3.2799760  35.7894230   3.0430130   7.7876280  37.6760720   1.7964710
   8.2954500  38.1741690   2.4369730   8.3189520  36.8995920   1.6204070
  19.8887210  35.8465910   5.4994060  19.1839380  36.2347620   4.9809170
  20.1545130  36.5416200   6.1014990   6.0712380  32.3159280   6.0628130
   6.0730820  32.8331670   5.2574030   5.2416690  31.8389460   6.0398060
   5.7527710  34.0269240   4.0698580   6.0944520  34.8711290   3.7752450
   4.8143520  34.1752980   4.1863920  18.9036060  35.2154330   2.0987180
  17.9560970  35.2493310   2.2302610  19.2286050  36.0293280   2.4836540
  15.2960210  37.3205180   5.0504350  14.8831390  38.1458890   5.3044340
  14.5636160  36.7350220   4.8580710   6.1421620  36.8808290   3.6922060
   6.6936210  36.9903630   2.9175310   6.6565130  37.2545890   4.4077290
  18.8216780  36.3721760   8.9326470  18.2061050  36.8801430   8.4041930
  18.5013200  35.4720090   8.8752410  10.8831100  35.2113650   6.3988660
  10.4210470  35.4196670   7.2108600  10.4809210  34.3973000   6.0959330
  15.8835610  36.4322600   7.5285320  15.0329200  36.1328350   7.8494390
  15.7237400  36.6764610   6.6169140  12.9785320  37.9324350   9.6284110
  13.3038730  37.0988100   9.2886340  13.7665650  38.4552870   9.7762440
   8.6337190  32.8892460   2.6542940   8.9309520  33.7955290   2.5734960
   9.1822750  32.4011240   2.0402510   8.8274720  38.3664280   9.1894860
   8.7318320  37.4259010   9.0395260   9.6706700  38.5879350   8.7942930
   3.9585260  34.7777950   7.3428640   3.5648650  35.6253160   7.5501420
   3.2703660  34.1404320   7.5337280  10.5330310  34.8612920  10.4125380
   9.8428630  34.6685120  11.0471470  11.2762610  35.1447560  10.9449680
  12.8093280  38.7011360   3.2479300  12.0774400  39.2098170   3.5969400
  12.4117620  37.8841340   2.9468080  13.2719190  34.1545040   2.6602240
  13.2891930  34.6053690   3.5044090  13.0234770  33.2550680   2.8735680
  16.6989940  31.5677220   8.4988620  17.0235710  30.8366880   9.0246600
  16.7346450  31.2490860   7.5969610   9.5478640  39.4367340   3.3997200
   9.9148770  38.9625910   4.1458540   9.3583700  40.3108910   3.7405540
   7.3378010  38.4775980   5.7181410   7.0335080  39.3567960   5.9431770
   8.2924470  38.5375770   5.7538850   3.3941740  39.3178720   6.8652770
   3.0356680  39.9832570   7.4526110   3.0996300  38.4862270   7.2365390
   6.5954860  39.7762960   9.7492320   6.2955000  39.9220140   8.8520140
   7.3666100  39.2168250   9.6565710  13.4629090  35.2994270   5.2926320
  13.8309910  34.4789480   5.6205890  12.6027290  35.3596160   5.7081970
  10.4231080  37.9533860   5.5164290  10.9216330  38.4279680   6.1816140
  10.5654030  37.0297380   5.7234320  17.6297940  34.1701820   6.3592680
  17.1271540  34.9107220   6.6986490  18.4454600  34.5585820   6.0429470
   4.1542230  38.4924180  10.1797130   4.1947570  38.1938050  11.0882360
   5.0087730  38.8931790  10.0204650   6.0948040  37.0716280   8.1471620
   5.5644500  36.5807230   7.5194960   6.7636110  37.5000480   7.6129550
  15.4648270  38.8781900   9.9151960  16.0469040  38.1234220   9.8272440
  15.6410040  39.4089340   9.1383440   6.5820340  34.0378650   8.2268910
   6.4877210  33.4199400   7.5019780   6.0017730  34.7644940   7.9998820
   9.3481780  32.5951890   5.2596300   8.8999080  32.6176150   4.4141850
   8.7146980  32.1970910   5.8566600  12.0905230  39.2222400   7.2646580
  12.2101440  38.6263540   8.0041420  12.9499230  39.2592090   6.8447880
  14.4293130  39.7759590   5.8409090  13.9028350  40.3002210   5.2374230
  14.7724470  40.4086980   6.4718820   8.8574000  35.7643750   8.5222400
   9.4473690  35.4559600   9.2100220   8.0394240  35.2923500   8.6782300
  13.6767430  35.3809560   8.7555420  12.9882950  34.7191100   8.6905410
  14.3973450  34.9347830   9.2003880   3.2228820  40.1228420   4.1960590
   3.5901860  40.0355820   5.0756610   2.6539640  39.3594970   4.0967450
  18.0232680  38.5912800   7.2091060  17.7918770  38.3625550   6.3089010
  18.2837230  39.5112350   7.1635950   2.7744820  37.0337510   8.1019010
   1.8800870  37.0004270   8.4412720   3.3142370  37.2324300   8.8670260
  16.4620750  33.8169230   9.9870760  17.3390930  33.8252630  10.3704760
  16.4741590  33.0800070   9.3763110  18.0873740  37.7538640   4.3978330
  17.1376450  37.7202180   4.5123320  18.2686750  38.6638750   4.1628100
   3.2784530  31.3085840   2.4502230   3.9260720  30.7583220   2.0097390
   3.6986370  31.5628990   3.2718040  17.1736870  31.5027200   5.8071870
  17.8109090  32.1161340   6.1731060  17.3211760  31.5387860   4.8621100
   3.0316530  31.4641510   5.1927550   2.6831350  31.9205330   5.9585730
   2.7004230  30.5698640   5.2749980  10.5441350  32.6553390   8.7146970
  10.4830240  33.2475220   9.4642380  11.4841730  32.5479350   8.5697230
  13.1815910  32.3123450   8.3539260  13.7956320  32.6302740   7.6920340
  13.7265470  31.8272040   8.9735120   3.7037170  30.9917710   8.4678320
   4.2520160  30.8105760   7.7044430   3.7692480  30.2011820   9.0034630
  13.9223950  30.8755590   4.6808550  13.0483790  31.2090700   4.4781480
  13.8134700  30.4028770   5.5060420  14.8295930  33.0826460   6.0650270
  14.5009290  32.2678220   5.6852000  15.7778230  33.0396270   5.9415960
  11.6698770  31.7925430   3.6201460  10.8870560  32.2670930   3.8998220
  11.3761700  30.8880260   3.5114640   7.7057730  31.6396080  10.1715030
   7.4242000  32.1429680   9.4075850   8.0877430  30.8417830   9.8057160
  14.3073190  31.0549660  10.7495500  14.1938640  31.3744270  11.6447020
  15.1242930  31.4562170  10.4532780  13.2131340  20.2998640  37.4360710
  13.1325390  19.3853250  37.1652420  12.7995760  20.7965710  36.7300420
  15.3656810  26.4837850  38.0969110  14.9038340  25.7125090  38.4256280
  16.1782360  26.5103920  38.6021560   3.7707160  17.3499360  33.9788130
   2.8823860  17.6915330  33.8768010   4.0548350  17.1499680  33.0868960
  11.5920120  28.7695860  37.7173100  10.9731560  29.2253360  37.1467540
  12.4471900  28.9247320  37.3162800   5.9468550  15.9330860  35.0126510
   6.0535300  16.8334590  35.3195270   5.0360910  15.8848830  34.7221160
  15.5987660  15.0555670  36.4837410  16.4197280  14.5652240  36.5262890
  15.6321740  15.6453330  37.2369250  12.4583470  23.6535100  35.1105010
  11.8400740  24.1184550  34.5467730  12.9706720  24.3462580  35.5274520
   9.4355600  12.7408020  37.9430150   9.7430580  12.1854910  37.2265650
   8.5056300  12.8752480  37.7603140  16.2816080  25.1791530  35.3227780
  16.1712410  24.2365860  35.4477200  16.2784330  25.5407170  36.2090540
  11.8236360  20.8056850  34.6790270  10.8965640  20.7394230  34.9078740
  11.9761180  21.7436980  34.5645510  11.8105440  17.0773850  31.6757430
  10.8709110  17.2387810  31.7609890  12.1288700  17.7959530  31.1293420
  15.8533650  22.3677150  35.1825520  15.2346070  22.0296700  34.5351820
  15.8358100  21.7236910  35.8904710   7.4293000  21.3321590  37.4610000
   7.0250000  20.6198840  36.9655900   7.5156120  20.9874830  38.3498040
  14.0298350  21.6063960  32.1898270  14.4691630  20.7686390  32.0436090
  14.7426770  22.2393360  32.2762410  12.1393730  26.5460030  36.1579510
  12.5789640  27.2884360  35.7434900  12.0780620  26.7886600  37.0818470
  17.6115490  12.8606770  30.5039310  17.2988150  12.9533600  31.4038380
  18.3727960  13.4387800  30.4536740   4.1297630  20.2266570  34.9616650
   4.0095230  20.9528660  34.3497920   3.8198520  19.4569480  34.4844560
   3.0130630  25.0981900  37.1791470   2.6058710  25.2396490  36.3245070
   3.9043640  24.8142060  36.9762680  14.8063910  29.5329150  33.5142520
  14.6465050  29.2432090  34.4124350  14.6410620  28.7569280  32.9787750
   7.2852290  29.3127680  35.2914140   7.1094770  28.3963220  35.0781940
   6.4308030  29.6714970  35.5311940  14.5090040  27.0416710  32.0740520
  13.8155200  27.0394000  31.4142800  15.2512900  26.6176030  31.6434690
  14.0739970  28.6679420  36.1489010  14.5296920  27.8868800  36.4627630
  14.4132490  29.3786240  36.6930190   6.5961290  13.5701640  38.3440320
   6.1529440  14.3511180  38.0124840   7.1546280  13.8931530  39.0511260
   9.7120110  13.1912340  33.2246150   9.0874290  13.1872210  33.9499460
   9.6250230  12.3243300  32.8282120   6.3875510  18.6935210  36.0721570
   6.1616430  18.4772380  36.9768190   5.6068040  19.1263670  35.7267540
  13.6173270  18.6998580  34.6712220  13.0182160  19.4234380  34.4875840
  14.1652880  18.6375360  33.8888670  12.2238140  17.3362120  36.7015500
  12.6167710  17.6534320  35.8884190  12.5854990  16.4574000  36.8160020
   5.0973050  16.4848560  38.1612980   4.7573100  16.9623790  38.9180030
   4.3350370  16.0313680  37.8014080   9.3090820  17.6034150  32.1925530
   9.4303640  17.5620630  33.1411350   8.9239330  18.4658300  32.0372260
   8.3212320  19.9135290  31.5908830   7.7529220  19.4653540  30.9644740
   9.0301320  20.2728070  31.0573980   2.4119130  15.4067540  37.0777650
   2.1266050  15.0423210  37.9156270   2.3497990  14.6748000  36.4640790
   5.8659800  23.9093480  33.8635240   5.0922060  23.3691100  33.7033960
   6.5954430  23.3900090  33.5253000  12.0857720  14.2996800  33.7991020
  11.2722330  13.8009970  33.7236330  11.8919670  15.1395050  33.3827370
  14.8006110  18.6716450  32.0953180  15.6885730  18.9833680  31.9204520
  14.7711200  17.7988700  31.7033760   5.9097200  23.5773860  37.5014050
   6.4275870  22.7742120  37.4470940   5.4581220  23.5153000  38.3430880
  10.7966700  24.8440140  32.7741350  11.1382400  25.5882370  32.2784670
   9.9679410  25.1571260  33.1366180  17.0720380  19.9828290  31.5633040
  16.9884100  20.4142510  30.7129480  17.7914570  20.4426640  31.9959860
  18.1007630  26.8370550  34.2915170  17.4583790  26.1826170  34.5658890
  17.7138290  27.2425640  33.5155840  13.6794110  24.1655980  38.1386860
  14.0317930  23.5684110  37.4788230  12.7956440  23.8400210  38.3095110
   9.7657390  24.9253670  35.5457270  10.4528520  25.4722880  35.9264860
   8.9789810  25.4694400  35.5806880   9.0684600  21.9299700  35.1582630
   9.5247380  22.7404950  35.3842820   8.7172810  21.6122840  35.9901120
   4.9696380  12.2737350  35.6305150   4.8411010  12.2655250  36.5790070
   4.1458400  12.6120440  35.2796160  16.4905010  25.7287010  30.8291520
  16.2642590  25.0117450  31.4216160  16.1001210  25.4799450  29.9913270
   2.2721040  29.7553870  31.6035980   2.6318680  30.3543210  30.9493250
   2.1313380  30.3013760  32.3771010  16.0721260  23.6458950  32.4905680
  15.7842960  24.1071640  33.2783560  16.8673430  23.1856720  32.7589900
   8.2889660  27.1385070  32.4209650   8.2799760  27.8714760  31.8054160
   7.3688020  26.8916650  32.5136610   3.8896300  22.3599960  33.1656410
   3.2824250  23.0998860  33.1751710   4.3645650  22.4499320  32.3394610
  16.8291120  15.4807720  33.6500860  16.2004280  15.5853390  32.9359090
  16.3343040  15.7004500  34.4394740  11.2749260  27.2013310  31.0834840
  11.3761240  26.9977300  30.1536820  10.3751000  26.9471590  31.2882620
   8.7975150  17.7593670  35.0658740   8.0891300  18.2280010  35.5072350
   9.0819630  17.1015680  35.7003930  12.8290580  14.4844330  36.5054530
  12.7058360  14.5030460  35.5564040  13.7775140  14.5323270  36.6252930
   9.9167370  29.7199630  35.7782510  10.1708870  29.6821020  34.8561880
   8.9679850  29.5932960  35.7710760   7.0010170  16.0678750  32.4409450
   7.8500700  16.5048900  32.3749640   6.6341440  16.3799010  33.2681510
  15.9219950  20.6391510  37.3541020  14.9810090  20.6541740  37.5288710
  16.2364020  19.8527470  37.8001320   5.9001590  22.3211110  30.9144980
   6.6664860  22.2092470  31.4770410   5.9776280  21.6249080  30.2621750
   4.5948350  19.7536180  31.5977870   4.6751940  18.8063690  31.7095270
   5.4868100  20.0843060  31.7038530   5.3963060  29.9031570  38.7012410
   6.1325540  29.3547030  38.9720980   5.7803980  30.7687580  38.5618400
   8.5065370  29.0761880  30.5237980   9.2993980  29.3650710  30.0719770
   7.9869720  28.6454050  29.8450460  17.5595540  28.3032010  31.9474720
  17.2737050  27.8897150  31.1328900  17.3615090  29.2319720  31.8275240
   9.0242770  24.2965290  30.3880330   8.9193410  23.6817640  31.1141710
   8.8566990  23.7731180  29.6043340  12.2645500  23.3585320  30.9922320
  11.7155600  23.8054620  31.6365060  12.8864760  22.8534570  31.5159990
   7.9320620  22.3176240  32.8887620   8.3537040  22.1516110  33.7319010
   8.0571460  21.5076470  32.3942760  10.4448260  21.3413850  30.1364720
  10.9653920  20.6262870  29.7705870  11.0916660  21.9799720  30.4365230
   6.8279520  18.3909470  29.8345780   6.6268580  17.5276830  30.1959120
   6.6571570  18.3042830  28.8967380  14.3067830  13.2017700  32.3632660
  14.5870120  12.3585600  32.7192080  13.5333560  13.4340810  32.8771410
   5.6262320  15.4910090  29.8223660   5.9288220  15.4977520  28.9142810
   6.3656910  15.1407950  30.3191320   8.8447250  14.4344710  30.8079860
   8.4969250  13.7568700  30.2282310   9.0460020  13.9734220  31.6223250
  11.0096290  29.4225460  32.4266460  11.9047080  29.7610430  32.4485220
  11.0413920  28.7004870  31.7990740   4.6492450  24.7952510  30.6553460
   5.0867320  25.3382180  31.3111040   5.1340180  23.9699460  30.6649800
   1.8638250  27.5841540  38.1073720   2.1941260  26.7162600  37.8752360
   2.2929250  27.7900060  38.9378680   6.4600170  25.9150550  35.7675690
   6.1595710  25.7915520  36.6679600   6.3537660  25.0559140  35.3591420
  19.2292090  25.6946950  30.4702370  18.3985050  25.7623600  30.9409600
  19.4063920  26.5851070  30.1669230  18.6848550  22.4394430  32.9736570
  19.4467460  23.0091080  33.0796260  18.7002920  21.8721630  33.7444880
  19.6908520  23.2944530  37.8178500  20.0617350  22.5111850  37.4114470
  20.3310450  23.9833630  37.6395800  18.7367720  22.7328800  30.1309090
  19.0116560  23.6407680  30.0028310  18.5478460  22.6691330  31.0671080
  15.1343330  15.7573650  31.4262720  15.5528210  15.5704630  30.5859380
  14.8279390  14.9052700  31.7365650  18.6333060  20.6697790  35.1238520
  18.2576660  19.9025720  34.6919810  17.9036180  21.0520490  35.6113450
   3.9418180  17.2296830  31.0563940   4.6509880  16.8080050  30.5711220
   3.2258120  17.2972060  30.4247290   3.5892340  13.2836160  30.0966590
   4.3120470  13.8245100  30.4147810   3.8616860  13.0099580  29.2208130
  17.3983990  18.1528630  34.3638170  17.8943110  17.9199500  35.1487050
  17.2000060  17.3140470  33.9475810  18.8271150  16.7889580  36.8975850
  18.7170430  16.6345620  37.8358120  19.5878740  16.2610520  36.6551260
  19.7161420  14.6197500  30.1381990  20.6410730  14.4878680  29.9300280
  19.6937210  14.6990320  31.0918440  19.7899910  15.3908160  32.7638700
  18.9951410  15.3253280  33.2931610  19.9943190  16.3258800  32.7524050
  16.7318330  29.4299710  36.7577090  17.3277400  29.1084280  36.0811510
  16.9896480  28.9571530  37.5490360  18.0858410  13.3520280  37.2246350
  18.0246810  12.4081500  37.0777370  18.8650440  13.4600370  37.7699810
   3.0139180  13.3229420  33.6902160   3.7718540  13.4358300  33.1166190
   2.5516350  14.1598620  33.6445590   9.5552990  15.4368690  36.6804470
   8.7427500  15.0625580  36.3400350  10.0594630  14.6813770  36.9825660
  14.0577970  12.1011140  37.9187540  14.6607340  12.6731350  38.3936060
  13.3170960  12.6650580  37.6961440  17.2012570  12.5032700  33.1927820
  17.3963200  13.4016150  33.4595250  16.4142440  12.2719780  33.6860770
   3.9973860  28.1845870  33.6320440   3.4721480  28.5653900  32.9282400
   3.9218440  28.8096640  34.3530150   5.3864330  13.8493470  32.2304130
   5.9157090  13.0623270  32.1012080   6.0192650  14.5284660  32.4639660
   7.5802170  13.5868610  35.2849520   6.9504910  12.8855920  35.4519650
   7.0407310  14.3472740  35.0682680  18.7539180  29.7433410  34.9534380
  18.9291370  29.0571150  34.3095300  18.0560750  30.2680460  34.5611050
   6.5966830  30.1328250  32.5069690   7.3285650  29.8487530  31.9593580
   6.8560500  29.8941530  33.3969070   5.7581620  26.2492980  32.5116020
   5.1290500  26.7178080  33.0601850   5.8729450  25.4042200  32.9462210
  11.3449380  22.0777660  20.5426490  10.5691480  21.5978100  20.8325060
  11.9962310  21.3983310  20.3682650   5.3615210  22.3897470  21.4202250
   4.5300090  22.1346180  21.8198760   5.9696190  22.4608240  22.1560170
  15.3656810  26.4837850  19.3225620  14.9038340  25.7125090  19.6512790
  16.1782360  26.5103920  19.8278070   5.3416470  26.4237560  21.6160270
   5.6444510  25.5335300  21.4370490   6.0860060  26.9807780  21.3882520
   3.7707160  17.3499360  15.2044640   2.8823860  17.6915330  15.1024520
   4.0548350  17.1499680  14.3125470  11.5920120  28.7695860  18.9429610
  10.9731560  29.2253360  18.3724050  12.4471900  28.9247320  18.5419310
  10.7858370  24.7534850  20.5496650  10.7166650  23.8124790  20.3885780
  11.5478230  24.8436260  21.1219220   2.9765040  15.3589370  22.8753270
   2.7967880  14.4615120  23.1556030   2.5745120  15.9061240  23.5500220
  11.8163540  17.5605230  20.7765580  12.1928360  16.6877110  20.6639250
  11.7183050  17.8963930  19.8856020   5.9468550  15.9330860  16.2383020
   6.0535300  16.8334590  16.5451780   5.0360910  15.8848830  15.9477670
   3.5951710  17.8549870  21.4835610   4.2761820  18.1188240  22.1023010
   3.2799760  17.0150740  21.8173620   7.7876280  18.9017230  20.5708200
   8.2954500  19.3998200  21.2113220   8.3189520  18.1252430  20.3947560
   6.0712380  13.5415790  24.8371620   6.0730820  14.0588180  24.0317520
   5.2416690  13.0645970  24.8141550  12.4583470  23.6535100  16.3361520
  11.8400740  24.1184550  15.7724240  12.9706720  24.3462580  16.7531030
   7.3215230  23.1810970  23.0145120   6.9884610  23.8079890  23.6566190
   7.4981910  23.7072850  22.2346790   5.7527710  15.2525750  22.8442070
   6.0944520  16.0967800  22.5495940   4.8143520  15.4009490  22.9607410
   6.5334330  25.1491770  24.8294300   7.1508330  25.8242850  24.5478750
   5.6727450  25.5579750  24.7381800  17.4511920  26.6131180  22.7448940
  16.7675440  27.2830290  22.7365610  17.9906210  26.8111830  21.9793800
   9.4355600  12.7408020  19.1686660   9.7430580  12.1854910  18.4522160
   8.5056300  12.8752480  18.9859650  14.9870660  28.4575310  21.4594120
  14.9997820  28.0537600  20.5916380  14.4345880  29.2322600  21.3555550
  16.2816080  25.1791530  16.5484290  16.1712410  24.2365860  16.6733710
  16.2784330  25.5407170  17.4347050  14.3856100  23.3605150  22.7876730
  14.8024890  23.1465260  21.9530190  15.1095920  23.6177940  23.3585350
  11.8236360  20.8056850  15.9046780  10.8965640  20.7394230  16.1335250
  11.9761180  21.7436980  15.7902020  11.8105440  17.0773850  12.9013940
  10.8709110  17.2387810  12.9866400  12.1288700  17.7959530  12.3549930
   7.4293000  21.3321590  18.6866510   7.0250000  20.6198840  18.1912410
   7.5156120  20.9874830  19.5754550   7.8974700  25.0189150  20.8505720
   7.6002990  24.4134620  20.1713500   8.8474520  25.0566460  20.7395080
   6.1421620  18.1064800  22.4665550   6.6936210  18.2160140  21.6918800
   6.6565130  18.4802400  23.1820780  15.9860310  28.5921020  24.5128820
  15.5090870  29.3993210  24.3201430  15.3022100  27.9399350  24.6655030
   6.9893130  24.7570840  27.5013520   6.0921660  24.9810810  27.7486920
   7.0146000  24.8805780  26.5524920  14.0298350  21.6063960  13.4154780
  14.4691630  20.7686390  13.2692600  14.7426770  22.2393360  13.5018920
   5.8164350  21.6284160  26.0770890   5.6772120  22.5006960  26.4458290
   4.9345710  21.2856970  25.9318830  12.1393730  26.5460030  17.3836020
  12.5789640  27.2884360  16.9691410  12.0780620  26.7886600  18.3074980
   7.6144700  27.5705860  28.2856040   7.5860130  27.9748810  27.4184470
   7.4509670  26.6416220  28.1227640  17.6115490  12.8606770  11.7295820
  17.2988150  12.9533600  12.6294890  18.3727960  13.4387800  11.6793250
   4.1297630  20.2266570  16.1873160   4.0095230  20.9528660  15.5754430
   3.8198520  19.4569480  15.7101070  19.5659520  28.3532960  29.5820210
  20.0419240  28.8315850  30.2609290  20.1866680  28.2850450  28.8565710
   1.7683000  23.3981710  21.9941800   1.8463420  23.5330480  21.0497520
   2.3824680  22.6897600  22.1869920   3.0130630  25.0981900  18.4047980
   2.6058710  25.2396490  17.5501580   3.9043640  24.8142060  18.2019190
  18.9692770  25.5445810  26.7420220  19.0955830  25.3057690  25.8237400
  19.0114150  24.7130350  27.2142300  12.8309510  29.2473810  25.3115030
  13.3454180  29.1581820  26.1137460  11.9878590  29.5933510  25.6042940
  14.8063910  29.5329150  14.7399030  14.6465050  29.2432090  15.6380860
  14.6410620  28.7569280  14.2044260   7.2852290  29.3127680  16.5170650
   7.1094770  28.3963220  16.3038450   6.4308030  29.6714970  16.7568450
  14.5090040  27.0416710  13.2997030  13.8155200  27.0394000  12.6399310
  15.2512900  26.6176030  12.8691200  14.0739970  28.6679420  17.3745520
  14.5296920  27.8868800  17.6884140  14.4132490  29.3786240  17.9186700
   1.8242520  24.4395880  24.5336260   1.9873560  23.9701240  23.7155630
   2.2894970  23.9319440  25.1985100   6.5961290  13.5701640  19.5696830
   6.1529440  14.3511180  19.2381350   7.1546280  13.8931530  20.2767770
  10.8831100  16.4370160  25.1732150  10.4210470  16.6453180  25.9852090
  10.4809210  15.6229510  24.8702820  12.9785320  19.1580860  28.4027600
  13.3038730  18.3244610  28.0629830  13.7665650  19.6809380  28.5505930
   9.7120110  13.1912340  14.4502660   9.0874290  13.1872210  15.1755970
   9.6250230  12.3243300  14.0538630   8.6337190  14.1148970  21.4286430
   8.9309520  15.0211800  21.3478450   9.1822750  13.6267750  20.8146000
   6.3875510  18.6935210  17.2978080   6.1616430  18.4772380  18.2024700
   5.6068040  19.1263670  16.9524050   8.8274720  19.5920790  27.9638350
   8.7318320  18.6515520  27.8138750   9.6706700  19.8135860  27.5686420
  12.2238140  17.3362120  17.9272010  12.6167710  17.6534320  17.1140700
  12.5854990  16.4574000  18.0416530   3.9585260  16.0034460  26.1172130
   3.5648650  16.8509670  26.3244910   3.2703660  15.3660830  26.3080770
  10.5330310  16.0869430  29.1868870   9.8428630  15.8941630  29.8214960
  11.2762610  16.3704070  29.7193170  12.8093280  19.9267870  22.0222790
  12.0774400  20.4354680  22.3712890  12.4117620  19.1097850  21.7211570
   9.2470670  16.6022070  20.4275280   9.2506730  16.1612020  19.5779820
  10.1421790  16.9239400  20.5347100   5.0973050  16.4848560  19.3869490
   4.7573100  16.9623790  20.1436540   4.3350370  16.0313680  19.0270590
   9.3090820  17.6034150  13.4182040   9.4303640  17.5620630  14.3667860
   8.9239330  18.4658300  13.2628770  13.2719190  15.3801550  21.4345730
  13.2891930  15.8310200  22.2787580  13.0234770  14.4807190  21.6479170
   8.3212320  19.9135290  12.8165340   7.7529220  19.4653540  12.1901250
   9.0301320  20.2728070  12.2830490  16.6989940  12.7933730  27.2732110
  17.0235710  12.0623390  27.7990090  16.7346450  12.4747370  26.3713100
   3.3981500  23.8147310  26.6932070   3.0136290  23.1740980  27.2915030
   3.7093690  24.5183430  27.2626800   9.5478640  20.6623850  22.1740690
   9.9148770  20.1882420  22.9202030   9.3583700  21.5365420  22.5149030
   2.4119130  15.4067540  18.3034160   2.1266050  15.0423210  19.1412780
   2.3497990  14.6748000  17.6897300   7.3378010  19.7032490  24.4924900
   7.0335080  20.5824470  24.7175260   8.2924470  19.7632280  24.5282340
   5.8659800  23.9093480  15.0891750   5.0922060  23.3691100  14.9290470
   6.5954430  23.3900090  14.7509510  12.0857720  14.2996800  15.0247530
  11.2722330  13.8009970  14.9492840  11.8919670  15.1395050  14.6083880
  12.0066580  22.9767900  26.7687140  11.9403890  22.0563570  26.5144730
  11.3771720  23.0743340  27.4831780   5.9097200  23.5773860  18.7270560
   6.4275870  22.7742120  18.6727450   5.4581220  23.5153000  19.5687390
  10.7966700  24.8440140  13.9997860  11.1382400  25.5882370  13.5041180
   9.9679410  25.1571260  14.3622690   3.3941740  20.5435230  25.6396260
   3.0356680  21.2089080  26.2269600   3.0996300  19.7118780  26.0108880
   6.5954860  21.0019470  28.5235810   6.2955000  21.1476650  27.6263630
   7.3666100  20.4424760  28.4309200  11.9383310  25.7988470  26.5190940
  11.9527850  24.8669430  26.3009850  11.2308410  25.8848230  27.1580710
  17.0720380  19.9828290  12.7889550  16.9884100  20.4142510  11.9385990
  17.7914570  20.4426640  13.2216370  13.6794110  24.1655980  19.3643370
  14.0317930  23.5684110  18.7044740  12.7956440  23.8400210  19.5351620
   9.7657390  24.9253670  16.7713780  10.4528520  25.4722880  17.1521370
   8.9789810  25.4694400  16.8063390   9.0684600  21.9299700  16.3839140
   9.5247380  22.7404950  16.6099330   8.7172810  21.6122840  17.2157630
  11.3717210  27.4406040  23.6131440  12.0159430  27.6465420  24.2904860
  11.7346650  26.6794440  23.1602290   4.9696380  12.2737350  16.8561660
   4.8411010  12.2655250  17.8046580   4.1458400  12.6120440  16.5052670
  12.6449290  25.4438390  22.3308890  13.2871520  24.7431550  22.4441060
  13.1698640  26.2236830  22.1505780  16.4905010  25.7287010  12.0548030
  16.2642590  25.0117450  12.6472670  16.1001210  25.4799450  11.2169780
  14.4186910  26.2433290  25.5344950  14.7543150  26.8299980  26.2122870
  13.4987250  26.1126000  25.7642740   2.2721040  29.7553870  12.8292490
   2.6318680  30.3543210  12.1749760   2.1313380  30.3013760  13.6027520
  16.0721260  23.6458950  13.7162190  15.7842960  24.1071640  14.5040070
  16.8673430  23.1856720  13.9846410  10.2475490  26.2924620  28.7033010
   9.9272360  25.5733860  29.2478700   9.5733850  26.9679690  28.7769070
   8.2889660  27.1385070  13.6466160   8.2799760  27.8714760  13.0310670
   7.3688020  26.8916650  13.7393120   3.8896300  22.3599960  14.3912920
   3.2824250  23.0998860  14.4008220   4.3645650  22.4499320  13.5651120
  13.4629090  16.5250780  24.0669810  13.8309910  15.7045990  24.3949380
  12.6027290  16.5852670  24.4825460  11.2749260  27.2013310  12.3091350
  11.3761240  26.9977300  11.3793330  10.3751000  26.9471590  12.5139130
   8.7975150  17.7593670  16.2915250   8.0891300  18.2280010  16.7328860
   9.0819630  17.1015680  16.9260440  10.4231080  19.1790370  24.2907780
  10.9216330  19.6536190  24.9559630  10.5654030  18.2553890  24.4977810
  12.8290580  14.4844330  17.7311040  12.7058360  14.5030460  16.7820550
  13.7775140  14.5323270  17.8509440   9.9167370  29.7199630  17.0039020
  10.1708870  29.6821020  16.0818390   8.9679850  29.5932960  16.9967270
   7.0010170  16.0678750  13.6665960   7.8500700  16.5048900  13.6006150
   6.6341440  16.3799010  14.4938020   5.9001590  22.3211110  12.1401490
   6.6664860  22.2092470  12.7026920   5.9776280  21.6249080  11.4878260
   4.5948350  19.7536180  12.8234380   4.6751940  18.8063690  12.9351780
   5.4868100  20.0843060  12.9295040  17.9245530  27.8100360  20.2551790
  18.0492950  28.6331530  20.7275600  18.7911090  27.5991090  19.9075940
   5.3963060  29.9031570  19.9268920   6.1325540  29.3547030  20.1977490
   5.7803980  30.7687580  19.7874910   4.4021340  29.0877640  29.1154500
   5.2034070  29.4089690  29.5289900   3.8873160  28.7273220  29.8374410
   8.5065370  29.0761880  11.7494490   9.2993980  29.3650710  11.2976280
   7.9869720  28.6454050  11.0706970  13.2385970  25.1957510  29.0629910
  12.6324130  25.2189110  28.3225660  12.9340080  24.4640550  29.5997160
  14.6686340  28.9237800  27.6739320  15.6208090  28.8395820  27.6239560
  14.5214560  29.5879510  28.3473110  17.5595540  28.3032010  13.1731230
  17.2737050  27.8897150  12.3585410  17.3615090  29.2319720  13.0531750
   9.0242770  24.2965290  11.6136840   8.9193410  23.6817640  12.3398220
   8.8566990  23.7731180  10.8299850   9.1757090  22.9822090  27.5926070
   8.4102760  23.5507090  27.5080740   9.3573050  22.6898300  26.6994300
  12.2645500  23.3585320  12.2178830  11.7155600  23.8054620  12.8621570
  12.8864760  22.8534570  12.7416500  16.3180440  24.7127420  28.1501090
  17.0589910  25.0503180  27.6468550  15.5553120  24.8819480  27.5970860
   4.1542230  19.7180690  28.9540620   4.1947570  19.4194560  29.8625850
   5.0087730  20.1188300  28.7948140   7.9320620  22.3176240  14.1144130
   8.3537040  22.1516110  14.9575520   8.0571460  21.5076470  13.6199270
   6.0948040  18.2972790  26.9215110   5.5644500  17.8063740  26.2938450
   6.7636110  18.7256990  26.3873040  10.4448260  21.3413850  11.3621230
  10.9653920  20.6262870  10.9962380  11.0916660  21.9799720  11.6621740
  14.9926100  22.7642250  26.6856300  15.4067120  22.9187330  27.5346720
  14.0577100  22.8897470  26.8482080  15.4648270  20.1038410  28.6895450
  16.0469040  19.3490730  28.6015930  15.6410040  20.6345850  27.9126930
   6.5820340  15.2635160  27.0012400   6.4877210  14.6455910  26.2763270
   6.0017730  15.9901450  26.7742310   9.3481780  13.8208400  24.0339790
   8.8999080  13.8432660  23.1885340   8.7146980  13.4227420  24.6310090
   9.7541330  22.7162730  24.6552230  10.1729440  23.5595460  24.4828470
   8.8349960  22.8534770  24.4259010  12.0905230  20.4478910  26.0390070
  12.2101440  19.8520050  26.7784910  12.9499230  20.4848600  25.6191370
  14.4293130  21.0016100  24.6152580  13.9028350  21.5258720  24.0117720
  14.7724470  21.6343490  25.2462310   6.8279520  18.3909470  11.0602290
   6.6268580  17.5276830  11.4215630   6.6571570  18.3042830  10.1223890
   7.6048750  29.0215740  25.7709960   7.0669840  29.7461800  25.4518660
   7.8582710  28.5446080  24.9807300   8.8574000  16.9900260  27.2965890
   9.4473690  16.6816110  27.9843710   8.0394240  16.5180010  27.4525790
  13.6767430  16.6066070  27.5298910  12.9882950  15.9447610  27.4648900
  14.3973450  16.1604340  27.9747370  14.3067830  13.2017700  13.5889170
  14.5870120  12.3585600  13.9448590  13.5333560  13.4340810  14.1027920
   5.6262320  15.4910090  11.0480170   5.9288220  15.4977520  10.1399320
   6.3656910  15.1407950  11.5447830  10.4610960  30.2566950  26.0296610
  10.3869660  31.1602090  26.3368980   9.5589800  29.9378850  26.0018680
   8.8447250  14.4344710  12.0336370   8.4969250  13.7568700  11.4538820
   9.0460020  13.9734220  12.8479760  11.0096290  29.4225460  13.6522970
  11.9047080  29.7610430  13.6741730  11.0413920  28.7004870  13.0247250
   4.6492450  24.7952510  11.8809970   5.0867320  25.3382180  12.5367550
   5.1340180  23.9699460  11.8906310   1.8638250  27.5841540  19.3330230
   2.1941260  26.7162600  19.1008870   2.2929250  27.7900060  20.1635190
   6.4600170  25.9150550  16.9932200   6.1595710  25.7915520  17.8936110
   6.3537660  25.0559140  16.5847930   2.3528460  28.4512130  22.0711860
   1.9159450  28.6312930  22.9036010   2.9206140  29.2086750  21.9293580
  17.9890640  27.9529130  26.3589170  17.3892630  28.0121690  25.6153090
  18.1184540  27.0134110  26.4886020  19.2292090  25.6946950  11.6958880
  18.3985050  25.7623600  12.1666110  19.4063920  26.5851070  11.3925740
  16.6742280  24.6781110  24.4565330  15.8602120  25.1078270  24.7191120
  17.0816480  25.2899520  23.8434380  18.7367720  22.7328800  11.3565600
  19.0116560  23.6407680  11.2284820  18.5478460  22.6691330  12.2927590
  15.1343330  15.7573650  12.6519230  15.5528210  15.5704630  11.8115890
  14.8279390  14.9052700  12.9622160   3.2228820  21.3484930  22.9704080
   3.5901860  21.2612330  23.8500100   2.6539640  20.5851480  22.8710940
   2.7744820  18.2594020  26.8762500   1.8800870  18.2260780  27.2156210
   3.3142370  18.4580810  27.6413750  16.4620750  15.0425740  28.7614250
  17.3390930  15.0509140  29.1448250  16.4741590  14.3056580  28.1506600
   3.9418180  17.2296830  12.2820450   4.6509880  16.8080050  11.7967730
   3.2258120  17.2972060  11.6503800   3.5892340  13.2836160  11.3223100
   4.3120470  13.8245100  11.6404320   3.8616860  13.0099580  10.4464640
   3.2784530  12.5342350  21.2245720   3.9260720  11.9839730  20.7840880
   3.6986370  12.7885500  22.0461530  17.1736870  12.7283710  24.5815360
  17.8109090  13.3417850  24.9474550  17.3211760  12.7644370  23.6364590
  19.7161420  14.6197500  11.3638500  20.6410730  14.4878680  11.1556790
  19.6937210  14.6990320  12.3174950  19.7899910  15.3908160  13.9895210
  18.9951410  15.3253280  14.5188120  19.9943190  16.3258800  13.9780560
  16.7318330  29.4299710  17.9833600  17.3277400  29.1084280  17.3068020
  16.9896480  28.9571530  18.7746870   3.0316530  12.6898020  23.9671040
   2.6831350  13.1461840  24.7329220   2.7004230  11.7955150  24.0493470
   4.6380900  25.8617620  28.1324230   4.5950530  25.4910530  29.0138690
   4.7691910  26.7995190  28.2726050   8.3386930  27.4177210  23.7333950
   8.0978290  27.6851770  22.8464470   9.2789570  27.5882940  23.7884810
  10.5441350  13.8809900  27.4890460  10.4830240  14.4731730  28.2385870
  11.4841730  13.7735860  27.3440720  13.1815910  13.5379960  27.1282750
  13.7956320  13.8559250  26.4663830  13.7265470  13.0528550  27.7478610
  19.5991090  29.4371590  24.5344590  19.1049370  29.8340460  23.8171720
  18.9904380  28.8120800  24.9281870   3.7037170  12.2174220  27.2421810
   4.2520160  12.0362270  26.4787920   3.7692480  11.4268330  27.7778120
   4.4768930  28.8079870  25.2522010   3.8829250  28.6764570  25.9912050
   4.4692770  27.9718010  24.7864110  13.9223950  12.1012100  23.4552040
  13.0483790  12.4347210  23.2524970  13.8134700  11.6285280  24.2803910
  14.8295930  14.3082970  24.8393760  14.5009290  13.4934730  24.4595490
  15.7778230  14.2652780  24.7159450  17.2830540  30.0795010  21.8131330
  16.8233510  30.8310820  21.4389350  16.6543000  29.3601480  21.7546130
   4.1081160  26.1738250  24.2030050   3.3815220  25.5543540  24.1356000
   4.1690310  26.5678860  23.3328130   7.7126260  28.3883250  20.9879460
   8.2291280  27.7770610  20.4627720   8.3623640  28.8912030  21.4790470
  10.4521760  29.2791740  21.8148440  10.7399570  29.0246040  20.9381450
  10.9644980  28.7269100  22.4054010  11.6698770  13.0181940  22.3944950
  10.8870560  13.4927440  22.6741710  11.3761700  12.1136770  22.2858130
  16.2219840  13.7205040  20.4394040  16.6627930  13.6650140  19.5915640
  15.9527430  14.6363050  20.5104220  18.0858410  13.3520280  18.4502860
  18.0246810  12.4081500  18.3033880  18.8650440  13.4600370  18.9956320
   3.0139180  13.3229420  14.9158670   3.7718540  13.4358300  14.3422700
   2.5516350  14.1598620  14.8702100   9.5552990  15.4368690  17.9060980
   8.7427500  15.0625580  17.5656860  10.0594630  14.6813770  18.2082170
  14.0577970  12.1011140  19.1444050  14.6607340  12.6731350  19.6192570
  13.3170960  12.6650580  18.9217950  17.2012570  12.5032700  14.4184330
  17.3963200  13.4016150  14.6851760  16.4142440  12.2719780  14.9117280
   3.9973860  28.1845870  14.8576950   3.4721480  28.5653900  14.1538910
   3.9218440  28.8096640  15.5786660   5.3864330  13.8493470  13.4560640
   5.9157090  13.0623270  13.3268590   6.0192650  14.5284660  13.6896170
   7.5802170  13.5868610  16.5106030   6.9504910  12.8855920  16.6776160
   7.0407310  14.3472740  16.2939190  10.5194120  30.2007840  29.1816640
  11.4461430  29.9652110  29.2252600  10.5044550  31.0279840  28.7002670
  18.7539180  29.7433410  16.1790890  18.9291370  29.0571150  15.5351810
  18.0560750  30.2680460  15.7867560   7.7057730  12.8652590  28.9458520
   7.4242000  13.3686190  28.1819340   8.0877430  12.0674340  28.5800650
   6.5966830  30.1328250  13.7326200   7.3285650  29.8487530  13.1850090
   6.8560500  29.8941530  14.6225580   5.7581620  26.2492980  13.7372530
   5.1290500  26.7178080  14.2858360   5.8729450  25.4042200  14.1718720
  14.3073190  12.2806170  29.5238990  14.1938640  12.6000780  30.4190510
  15.1242930  12.6818680  29.2276270  17.0871680  29.4277700  29.0057680
  17.8797000  28.9326930  28.7983640  17.3804830  30.1067840  29.6133290
  11.3449380  22.0777660   1.7683000  10.5691480  21.5978100   2.0581570
  11.9962310  21.3983310   1.5939160   5.3615210  22.3897470   2.6458760
   4.5300090  22.1346180   3.0455270   5.9696190  22.4608240   3.3816680
   5.3416470  26.4237560   2.8416780   5.6444510  25.5335300   2.6627000
   6.0860060  26.9807780   2.6139030  10.7858370  24.7534850   1.7753160
  10.7166650  23.8124790   1.6142290  11.5478230  24.8436260   2.3475730
   2.9765040  15.3589370   4.1009780   2.7967880  14.4615120   4.3812540
   2.5745120  15.9061240   4.7756730   3.5951710  17.8549870   2.7092120
   4.2761820  18.1188240   3.3279520   3.2799760  17.0150740   3.0430130
   7.7876280  18.9017230   1.7964710   8.2954500  19.3998200   2.4369730
   8.3189520  18.1252430   1.6204070  19.8887210  17.0722420   5.4994060
  19.1839380  17.4604130   4.9809170  20.1545130  17.7672710   6.1014990
   6.0712380  13.5415790   6.0628130   6.0730820  14.0588180   5.2574030
   5.2416690  13.0645970   6.0398060   7.3215230  23.1810970   4.2401630
   6.9884610  23.8079890   4.8822700   7.4981910  23.7072850   3.4603300
   5.7527710  15.2525750   4.0698580   6.0944520  16.0967800   3.7752450
   4.8143520  15.4009490   4.1863920   6.5334330  25.1491770   6.0550810
   7.1508330  25.8242850   5.7735260   5.6727450  25.5579750   5.9638310
  17.4511920  26.6131180   3.9705450  16.7675440  27.2830290   3.9622120
  17.9906210  26.8111830   3.2050310  18.9036060  16.4410840   2.0987180
  17.9560970  16.4749820   2.2302610  19.2286050  17.2549790   2.4836540
  14.9870660  28.4575310   2.6850630  14.9997820  28.0537600   1.8172890
  14.4345880  29.2322600   2.5812060  14.3856100  23.3605150   4.0133240
  14.8024890  23.1465260   3.1786700  15.1095920  23.6177940   4.5841860
  18.3318200  21.7592370   4.1049480  17.5036830  21.8285460   3.6299610
  18.9268680  22.3446680   3.6365310  15.2960210  18.5461690   5.0504350
  14.8831390  19.3715400   5.3044340  14.5636160  17.9606730   4.8580710
   7.8974700  25.0189150   2.0762230   7.6002990  24.4134620   1.3970010
   8.8474520  25.0566460   1.9651590   6.1421620  18.1064800   3.6922060
   6.6936210  18.2160140   2.9175310   6.6565130  18.4802400   4.4077290
  15.9860310  28.5921020   5.7385330  15.5090870  29.3993210   5.5457940
  15.3022100  27.9399350   5.8911540   6.9893130  24.7570840   8.7270030
   6.0921660  24.9810810   8.9743430   7.0146000  24.8805780   7.7781430
   5.8164350  21.6284160   7.3027400   5.6772120  22.5006960   7.6714800
   4.9345710  21.2856970   7.1575340   7.6144700  27.5705860   9.5112550
   7.5860130  27.9748810   8.6440980   7.4509670  26.6416220   9.3484150
  19.5659520  28.3532960  10.8076720  20.0419240  28.8315850  11.4865800
  20.1866680  28.2850450  10.0822220   1.7683000  23.3981710   3.2198310
   1.8463420  23.5330480   2.2754030   2.3824680  22.6897600   3.4126430
  18.9692770  25.5445810   7.9676730  19.0955830  25.3057690   7.0493910
  19.0114150  24.7130350   8.4398810  12.8309510  29.2473810   6.5371540
  13.3454180  29.1581820   7.3393970  11.9878590  29.5933510   6.8299450
  18.8216780  17.5978270   8.9326470  18.2061050  18.1057940   8.4041930
  18.5013200  16.6976600   8.8752410   1.8242520  24.4395880   5.7592770
   1.9873560  23.9701240   4.9412140   2.2894970  23.9319440   6.4241610
  10.8831100  16.4370160   6.3988660  10.4210470  16.6453180   7.2108600
  10.4809210  15.6229510   6.0959330  15.8835610  17.6579110   7.5285320
  15.0329200  17.3584860   7.8494390  15.7237400  17.9021120   6.6169140
  12.9785320  19.1580860   9.6284110  13.3038730  18.3244610   9.2886340
  13.7665650  19.6809380   9.7762440   8.6337190  14.1148970   2.6542940
   8.9309520  15.0211800   2.5734960   9.1822750  13.6267750   2.0402510
   8.8274720  19.5920790   9.1894860   8.7318320  18.6515520   9.0395260
   9.6706700  19.8135860   8.7942930   3.9585260  16.0034460   7.3428640
   3.5648650  16.8509670   7.5501420   3.2703660  15.3660830   7.5337280
  10.5330310  16.0869430  10.4125380   9.8428630  15.8941630  11.0471470
  11.2762610  16.3704070  10.9449680  12.8093280  19.9267870   3.2479300
  12.0774400  20.4354680   3.5969400  12.4117620  19.1097850   2.9468080
  13.2719190  15.3801550   2.6602240  13.2891930  15.8310200   3.5044090
  13.0234770  14.4807190   2.8735680  16.6989940  12.7933730   8.4988620
  17.0235710  12.0623390   9.0246600  16.7346450  12.4747370   7.5969610
   3.3981500  23.8147310   7.9188580   3.0136290  23.1740980   8.5171540
   3.7093690  24.5183430   8.4883310   9.5478640  20.6623850   3.3997200
   9.9148770  20.1882420   4.1458540   9.3583700  21.5365420   3.7405540
   7.3378010  19.7032490   5.7181410   7.0335080  20.5824470   5.9431770
   8.2924470  19.7632280   5.7538850  16.6247780  22.9058840   2.1074650
  17.3446900  23.4014130   1.7170760  16.4229600  22.2276730   1.4628520
  12.0066580  22.9767900   7.9943650  11.9403890  22.0563570   7.7401240
  11.3771720  23.0743340   8.7088290   3.3941740  20.5435230   6.8652770
   3.0356680  21.2089080   7.4526110   3.0996300  19.7118780   7.2365390
   6.5954860  21.0019470   9.7492320   6.2955000  21.1476650   8.8520140
   7.3666100  20.4424760   9.6565710  11.9383310  25.7988470   7.7447450
  11.9527850  24.8669430   7.5266360  11.2308410  25.8848230   8.3837220
  18.1494520  22.4395810   7.0916030  17.4242710  23.0324590   6.8945420
  18.6769980  22.4319350   6.2929400  11.3717210  27.4406040   4.8387950
  12.0159430  27.6465420   5.5161370  11.7346650  26.6794440   4.3858800
  12.6449290  25.4438390   3.5565400  13.2871520  24.7431550   3.6697570
  13.1698640  26.2236830   3.3762290  14.4186910  26.2433290   6.7601460
  14.7543150  26.8299980   7.4379380  13.4987250  26.1126000   6.9899250
  10.2475490  26.2924620   9.9289520   9.9272360  25.5733860  10.4735210
   9.5733850  26.9679690  10.0025580  13.4629090  16.5250780   5.2926320
  13.8309910  15.7045990   5.6205890  12.6027290  16.5852670   5.7081970
  10.4231080  19.1790370   5.5164290  10.9216330  19.6536190   6.1816140
  10.5654030  18.2553890   5.7234320  17.6297940  15.3958330   6.3592680
  17.1271540  16.1363730   6.6986490  18.4454600  15.7842330   6.0429470
   4.4021340  29.0877640  10.3411010   5.2034070  29.4089690  10.7546410
   3.8873160  28.7273220  11.0630920  13.2385970  25.1957510  10.2886420
  12.6324130  25.2189110   9.5482170  12.9340080  24.4640550  10.8253670
  14.6686340  28.9237800   8.8995830  15.6208090  28.8395820   8.8496070
  14.5214560  29.5879510   9.5729620   9.1757090  22.9822090   8.8182580
   8.4102760  23.5507090   8.7337250   9.3573050  22.6898300   7.9250810
  16.3180440  24.7127420   9.3757600  17.0589910  25.0503180   8.8725060
  15.5553120  24.8819480   8.8227370   4.1542230  19.7180690  10.1797130
   4.1947570  19.4194560  11.0882360   5.0087730  20.1188300  10.0204650
   6.0948040  18.2972790   8.1471620   5.5644500  17.8063740   7.5194960
   6.7636110  18.7256990   7.6129550  14.9926100  22.7642250   7.9112810
  15.4067120  22.9187330   8.7603230  14.0577100  22.8897470   8.0738590
  15.4648270  20.1038410   9.9151960  16.0469040  19.3490730   9.8272440
  15.6410040  20.6345850   9.1383440   6.5820340  15.2635160   8.2268910
   6.4877210  14.6455910   7.5019780   6.0017730  15.9901450   7.9998820
   9.3481780  13.8208400   5.2596300   8.8999080  13.8432660   4.4141850
   8.7146980  13.4227420   5.8566600   9.7541330  22.7162730   5.8808740
  10.1729440  23.5595460   5.7084980   8.8349960  22.8534770   5.6515520
  12.0905230  20.4478910   7.2646580  12.2101440  19.8520050   8.0041420
  12.9499230  20.4848600   6.8447880  14.4293130  21.0016100   5.8409090
  13.9028350  21.5258720   5.2374230  14.7724470  21.6343490   6.4718820
   7.6048750  29.0215740   6.9966470   7.0669840  29.7461800   6.6775170
   7.8582710  28.5446080   6.2063810   8.8574000  16.9900260   8.5222400
   9.4473690  16.6816110   9.2100220   8.0394240  16.5180010   8.6782300
  13.6767430  16.6066070   8.7555420  12.9882950  15.9447610   8.6905410
  14.3973450  16.1604340   9.2003880  10.4610960  30.2566950   7.2553120
  10.3869660  31.1602090   7.5625490   9.5589800  29.9378850   7.2275190
   2.3528460  28.4512130   3.2968370   1.9159450  28.6312930   4.1292520
   2.9206140  29.2086750   3.1550090  17.9890640  27.9529130   7.5845680
  17.3892630  28.0121690   6.8409600  18.1184540  27.0134110   7.7142530
  16.6742280  24.6781110   5.6821840  15.8602120  25.1078270   5.9447630
  17.0816480  25.2899520   5.0690890   3.2228820  21.3484930   4.1960590
   3.5901860  21.2612330   5.0756610   2.6539640  20.5851480   4.0967450
  18.0232680  19.8169310   7.2091060  17.7918770  19.5882060   6.3089010
  18.2837230  20.7368860   7.1635950   2.7744820  18.2594020   8.1019010
   1.8800870  18.2260780   8.4412720   3.3142370  18.4580810   8.8670260
  16.4620750  15.0425740   9.9870760  17.3390930  15.0509140  10.3704760
  16.4741590  14.3056580   9.3763110  18.0873740  18.9795150   4.3978330
  17.1376450  18.9458690   4.5123320  18.2686750  19.8895260   4.1628100
   3.2784530  12.5342350   2.4502230   3.9260720  11.9839730   2.0097390
   3.6986370  12.7885500   3.2718040  17.1736870  12.7283710   5.8071870
  17.8109090  13.3417850   6.1731060  17.3211760  12.7644370   4.8621100
   3.0316530  12.6898020   5.1927550   2.6831350  13.1461840   5.9585730
   2.7004230  11.7955150   5.2749980   4.6380900  25.8617620   9.3580740
   4.5950530  25.4910530  10.2395200   4.7691910  26.7995190   9.4982560
   8.3386930  27.4177210   4.9590460   8.0978290  27.6851770   4.0720980
   9.2789570  27.5882940   5.0141320  10.5441350  13.8809900   8.7146970
  10.4830240  14.4731730   9.4642380  11.4841730  13.7735860   8.5697230
  13.1815910  13.5379960   8.3539260  13.7956320  13.8559250   7.6920340
  13.7265470  13.0528550   8.9735120  19.5991090  29.4371590   5.7601100
  19.1049370  29.8340460   5.0428230  18.9904380  28.8120800   6.1538380
   3.7037170  12.2174220   8.4678320   4.2520160  12.0362270   7.7044430
   3.7692480  11.4268330   9.0034630   4.4768930  28.8079870   6.4778520
   3.8829250  28.6764570   7.2168560   4.4692770  27.9718010   6.0120620
  13.9223950  12.1012100   4.6808550  13.0483790  12.4347210   4.4781480
  13.8134700  11.6285280   5.5060420  14.8295930  14.3082970   6.0650270
  14.5009290  13.4934730   5.6852000  15.7778230  14.2652780   5.9415960
  17.2830540  30.0795010   3.0387840  16.8233510  30.8310820   2.6645860
  16.6543000  29.3601480   2.9802640   4.1081160  26.1738250   5.4286560
   3.3815220  25.5543540   5.3612510   4.1690310  26.5678860   4.5584640
   7.7126260  28.3883250   2.2135970   8.2291280  27.7770610   1.6884230
   8.3623640  28.8912030   2.7046980  10.4521760  29.2791740   3.0404950
  10.7399570  29.0246040   2.1637960  10.9644980  28.7269100   3.6310520
  11.6698770  13.0181940   3.6201460  10.8870560  13.4927440   3.8998220
  11.3761700  12.1136770   3.5114640  10.5194120  30.2007840  10.4073150
  11.4461430  29.9652110  10.4509110  10.5044550  31.0279840   9.9259180
   7.7057730  12.8652590  10.1715030   7.4242000  13.3686190   9.4075850
   8.0877430  12.0674340   9.8057160  14.3073190  12.2806170  10.7495500
  14.1938640  12.6000780  11.6447020  15.1242930  12.6818680  10.4532780
  17.0871680  29.4277700  10.2314190  17.8797000  28.9326930  10.0240150
  17.3804830  30.1067840  10.8389800  15.3656810   7.7094360  38.0969110
  14.9038340   6.9381600  38.4256280  16.1782360   7.7360430  38.6021560
  11.5920120   9.9952370  37.7173100  10.9731560  10.4509870  37.1467540
  12.4471900  10.1503830  37.3162800  12.4583470   4.8791610  35.1105010
  11.8400740   5.3441060  34.5467730  12.9706720   5.5719090  35.5274520
  16.2816080   6.4048040  35.3227780  16.1712410   5.4622370  35.4477200
  16.2784330   6.7663680  36.2090540  11.8236360   2.0313360  34.6790270
  10.8965640   1.9650740  34.9078740  11.9761180   2.9693490  34.5645510
  15.8533650   3.5933660  35.1825520  15.2346070   3.2553210  34.5351820
  15.8358100   2.9493420  35.8904710   7.4293000   2.5578100  37.4610000
   7.0250000   1.8455350  36.9655900   7.5156120   2.2131340  38.3498040
  14.0298350   2.8320470  32.1898270  14.4691630   1.9942900  32.0436090
  14.7426770   3.4649870  32.2762410  12.1393730   7.7716540  36.1579510
  12.5789640   8.5140870  35.7434900  12.0780620   8.0143110  37.0818470
   3.0130630   6.3238410  37.1791470   2.6058710   6.4653000  36.3245070
   3.9043640   6.0398570  36.9762680  14.8063910  10.7585660  33.5142520
  14.6465050  10.4688600  34.4124350  14.6410620   9.9825790  32.9787750
   7.2852290  10.5384190  35.2914140   7.1094770   9.6219730  35.0781940
   6.4308030  10.8971480  35.5311940  14.5090040   8.2673220  32.0740520
  13.8155200   8.2650510  31.4142800  15.2512900   7.8432540  31.6434690
  14.0739970   9.8935930  36.1489010  14.5296920   9.1125310  36.4627630
  14.4132490  10.6042750  36.6930190   5.8659800   5.1349990  33.8635240
   5.0922060   4.5947610  33.7033960   6.5954430   4.6156600  33.5253000
   5.9097200   4.8030370  37.5014050   6.4275870   3.9998630  37.4470940
   5.4581220   4.7409510  38.3430880  10.7966700   6.0696650  32.7741350
  11.1382400   6.8138880  32.2784670   9.9679410   6.3827770  33.1366180
  18.1007630   8.0627060  34.2915170  17.4583790   7.4082680  34.5658890
  17.7138290   8.4682150  33.5155840  13.6794110   5.3912490  38.1386860
  14.0317930   4.7940620  37.4788230  12.7956440   5.0656720  38.3095110
   9.7657390   6.1510180  35.5457270  10.4528520   6.6979390  35.9264860
   8.9789810   6.6950910  35.5806880   9.0684600   3.1556210  35.1582630
   9.5247380   3.9661460  35.3842820   8.7172810   2.8379350  35.9901120
  16.4905010   6.9543520  30.8291520  16.2642590   6.2373960  31.4216160
  16.1001210   6.7055960  29.9913270   2.2721040  10.9810380  31.6035980
   2.6318680  11.5799720  30.9493250   2.1313380  11.5270270  32.3771010
  16.0721260   4.8715460  32.4905680  15.7842960   5.3328150  33.2783560
  16.8673430   4.4113230  32.7589900   8.2889660   8.3641580  32.4209650
   8.2799760   9.0971270  31.8054160   7.3688020   8.1173160  32.5136610
   3.8896300   3.5856470  33.1656410   3.2824250   4.3255370  33.1751710
   4.3645650   3.6755830  32.3394610  11.2749260   8.4269820  31.0834840
  11.3761240   8.2233810  30.1536820  10.3751000   8.1728100  31.2882620
   9.9167370  10.9456140  35.7782510  10.1708870  10.9077530  34.8561880
   8.9679850  10.8189470  35.7710760   5.9001590   3.5467620  30.9144980
   6.6664860   3.4348980  31.4770410   5.9776280   2.8505590  30.2621750
   5.3963060  11.1288080  38.7012410   6.1325540  10.5803540  38.9720980
   5.7803980  11.9944090  38.5618400   8.5065370  10.3018390  30.5237980
   9.2993980  10.5907220  30.0719770   7.9869720   9.8710560  29.8450460
  17.5595540   9.5288520  31.9474720  17.2737050   9.1153660  31.1328900
  17.3615090  10.4576230  31.8275240   9.0242770   5.5221800  30.3880330
   8.9193410   4.9074150  31.1141710   8.8566990   4.9987690  29.6043340
  12.2645500   4.5841830  30.9922320  11.7155600   5.0311130  31.6365060
  12.8864760   4.0791080  31.5159990   7.9320620   3.5432750  32.8887620
   8.3537040   3.3772620  33.7319010   8.0571460   2.7332980  32.3942760
  10.4448260   2.5670360  30.1364720  10.9653920   1.8519380  29.7705870
  11.0916660   3.2056230  30.4365230  11.0096290  10.6481970  32.4266460
  11.9047080  10.9866940  32.4485220  11.0413920   9.9261380  31.7990740
   4.6492450   6.0209020  30.6553460   5.0867320   6.5638690  31.3111040
   5.1340180   5.1955970  30.6649800   1.8638250   8.8098050  38.1073720
   2.1941260   7.9419110  37.8752360   2.2929250   9.0156570  38.9378680
   6.4600170   7.1407060  35.7675690   6.1595710   7.0172030  36.6679600
   6.3537660   6.2815650  35.3591420  19.2292090   6.9203460  30.4702370
  18.3985050   6.9880110  30.9409600  19.4063920   7.8107580  30.1669230
  18.6848550   3.6650940  32.9736570  19.4467460   4.2347590  33.0796260
  18.7002920   3.0978140  33.7444880  19.6908520   4.5201040  37.8178500
  20.0617350   3.7368360  37.4114470  20.3310450   5.2090140  37.6395800
  18.7367720   3.9585310  30.1309090  19.0116560   4.8664190  30.0028310
  18.5478460   3.8947840  31.0671080  16.7318330  10.6556220  36.7577090
  17.3277400  10.3340790  36.0811510  16.9896480  10.1828040  37.5490360
   3.9973860   9.4102380  33.6320440   3.4721480   9.7910410  32.9282400
   3.9218440  10.0353150  34.3530150  18.7539180  10.9689920  34.9534380
  18.9291370  10.2827660  34.3095300  18.0560750  11.4936970  34.5611050
   6.5966830  11.3584760  32.5069690   7.3285650  11.0744040  31.9593580
   6.8560500  11.1198040  33.3969070   5.7581620   7.4749490  32.5116020
   5.1290500   7.9434590  33.0601850   5.8729450   6.6298710  32.9462210
  11.3449380   3.3034170  20.5426490  10.5691480   2.8234610  20.8325060
  11.9962310   2.6239820  20.3682650   5.3615210   3.6153980  21.4202250
   4.5300090   3.3602690  21.8198760   5.9696190   3.6864750  22.1560170
  15.3656810   7.7094360  19.3225620  14.9038340   6.9381600  19.6512790
  16.1782360   7.7360430  19.8278070   5.3416470   7.6494070  21.6160270
   5.6444510   6.7591810  21.4370490   6.0860060   8.2064290  21.3882520
  11.5920120   9.9952370  18.9429610  10.9731560  10.4509870  18.3724050
  12.4471900  10.1503830  18.5419310  10.7858370   5.9791360  20.5496650
  10.7166650   5.0381300  20.3885780  11.5478230   6.0692770  21.1219220
  12.4583470   4.8791610  16.3361520  11.8400740   5.3441060  15.7724240
  12.9706720   5.5719090  16.7531030   7.3215230   4.4067480  23.0145120
   6.9884610   5.0336400  23.6566190   7.4981910   4.9329360  22.2346790
   6.5334330   6.3748280  24.8294300   7.1508330   7.0499360  24.5478750
   5.6727450   6.7836260  24.7381800  17.4511920   7.8387690  22.7448940
  16.7675440   8.5086800  22.7365610  17.9906210   8.0368340  21.9793800
  14.9870660   9.6831820  21.4594120  14.9997820   9.2794110  20.5916380
  14.4345880  10.4579110  21.3555550  16.2816080   6.4048040  16.5484290
  16.1712410   5.4622370  16.6733710  16.2784330   6.7663680  17.4347050
  14.3856100   4.5861660  22.7876730  14.8024890   4.3721770  21.9530190
  15.1095920   4.8434450  23.3585350  11.8236360   2.0313360  15.9046780
  10.8965640   1.9650740  16.1335250  11.9761180   2.9693490  15.7902020
  18.3318200   2.9848880  22.8792970  17.5036830   3.0541970  22.4043100
  18.9268680   3.5703190  22.4108800  15.8533650   3.5933660  16.4082030
  15.2346070   3.2553210  15.7608330  15.8358100   2.9493420  17.1161220
   7.4293000   2.5578100  18.6866510   7.0250000   1.8455350  18.1912410
   7.5156120   2.2131340  19.5754550   7.8974700   6.2445660  20.8505720
   7.6002990   5.6391130  20.1713500   8.8474520   6.2822970  20.7395080
  15.9860310   9.8177530  24.5128820  15.5090870  10.6249720  24.3201430
  15.3022100   9.1655860  24.6655030   6.9893130   5.9827350  27.5013520
   6.0921660   6.2067320  27.7486920   7.0146000   6.1062290  26.5524920
  14.0298350   2.8320470  13.4154780  14.4691630   1.9942900  13.2692600
  14.7426770   3.4649870  13.5018920   5.8164350   2.8540670  26.0770890
   5.6772120   3.7263470  26.4458290   4.9345710   2.5113480  25.9318830
  12.1393730   7.7716540  17.3836020  12.5789640   8.5140870  16.9691410
  12.0780620   8.0143110  18.3074980   7.6144700   8.7962370  28.2856040
   7.5860130   9.2005320  27.4184470   7.4509670   7.8672730  28.1227640
  19.5659520   9.5789470  29.5820210  20.0419240  10.0572360  30.2609290
  20.1866680   9.5106960  28.8565710   1.7683000   4.6238220  21.9941800
   1.8463420   4.7586990  21.0497520   2.3824680   3.9154110  22.1869920
   3.0130630   6.3238410  18.4047980   2.6058710   6.4653000  17.5501580
   3.9043640   6.0398570  18.2019190  18.9692770   6.7702320  26.7420220
  19.0955830   6.5314200  25.8237400  19.0114150   5.9386860  27.2142300
  12.8309510  10.4730320  25.3115030  13.3454180  10.3838330  26.1137460
  11.9878590  10.8190020  25.6042940  14.8063910  10.7585660  14.7399030
  14.6465050  10.4688600  15.6380860  14.6410620   9.9825790  14.2044260
   7.2852290  10.5384190  16.5170650   7.1094770   9.6219730  16.3038450
   6.4308030  10.8971480  16.7568450  14.5090040   8.2673220  13.2997030
  13.8155200   8.2650510  12.6399310  15.2512900   7.8432540  12.8691200
  14.0739970   9.8935930  17.3745520  14.5296920   9.1125310  17.6884140
  14.4132490  10.6042750  17.9186700   1.8242520   5.6652390  24.5336260
   1.9873560   5.1957750  23.7155630   2.2894970   5.1575950  25.1985100
   3.3981500   5.0403820  26.6932070   3.0136290   4.3997490  27.2915030
   3.7093690   5.7439940  27.2626800   5.8659800   5.1349990  15.0891750
   5.0922060   4.5947610  14.9290470   6.5954430   4.6156600  14.7509510
  16.6247780   4.1315350  20.8818140  17.3446900   4.6270640  20.4914250
  16.4229600   3.4533240  20.2372010  12.0066580   4.2024410  26.7687140
  11.9403890   3.2820080  26.5144730  11.3771720   4.2999850  27.4831780
   5.9097200   4.8030370  18.7270560   6.4275870   3.9998630  18.6727450
   5.4581220   4.7409510  19.5687390  10.7966700   6.0696650  13.9997860
  11.1382400   6.8138880  13.5041180   9.9679410   6.3827770  14.3622690
   6.5954860   2.2275980  28.5235810   6.2955000   2.3733160  27.6263630
   7.3666100   1.6681270  28.4309200  11.9383310   7.0244980  26.5190940
  11.9527850   6.0925940  26.3009850  11.2308410   7.1104740  27.1580710
  18.1494520   3.6652320  25.8659520  17.4242710   4.2581100  25.6688910
  18.6769980   3.6575860  25.0672890  18.1007630   8.0627060  15.5171680
  17.4583790   7.4082680  15.7915400  17.7138290   8.4682150  14.7412350
  13.6794110   5.3912490  19.3643370  14.0317930   4.7940620  18.7044740
  12.7956440   5.0656720  19.5351620   9.7657390   6.1510180  16.7713780
  10.4528520   6.6979390  17.1521370   8.9789810   6.6950910  16.8063390
   9.0684600   3.1556210  16.3839140   9.5247380   3.9661460  16.6099330
   8.7172810   2.8379350  17.2157630  11.3717210   8.6662550  23.6131440
  12.0159430   8.8721930  24.2904860  11.7346650   7.9050950  23.1602290
  12.6449290   6.6694900  22.3308890  13.2871520   5.9688060  22.4441060
  13.1698640   7.4493340  22.1505780  16.4905010   6.9543520  12.0548030
  16.2642590   6.2373960  12.6472670  16.1001210   6.7055960  11.2169780
  14.4186910   7.4689800  25.5344950  14.7543150   8.0556490  26.2122870
  13.4987250   7.3382510  25.7642740   2.2721040  10.9810380  12.8292490
   2.6318680  11.5799720  12.1749760   2.1313380  11.5270270  13.6027520
  16.0721260   4.8715460  13.7162190  15.7842960   5.3328150  14.5040070
  16.8673430   4.4113230  13.9846410  10.2475490   7.5181130  28.7033010
   9.9272360   6.7990370  29.2478700   9.5733850   8.1936200  28.7769070
   8.2889660   8.3641580  13.6466160   8.2799760   9.0971270  13.0310670
   7.3688020   8.1173160  13.7393120   3.8896300   3.5856470  14.3912920
   3.2824250   4.3255370  14.4008220   4.3645650   3.6755830  13.5651120
  11.2749260   8.4269820  12.3091350  11.3761240   8.2233810  11.3793330
  10.3751000   8.1728100  12.5139130   9.9167370  10.9456140  17.0039020
  10.1708870  10.9077530  16.0818390   8.9679850  10.8189470  16.9967270
   5.9001590   3.5467620  12.1401490   6.6664860   3.4348980  12.7026920
   5.9776280   2.8505590  11.4878260  17.9245530   9.0356870  20.2551790
  18.0492950   9.8588040  20.7275600  18.7911090   8.8247600  19.9075940
   5.3963060  11.1288080  19.9268920   6.1325540  10.5803540  20.1977490
   5.7803980  11.9944090  19.7874910   4.4021340  10.3134150  29.1154500
   5.2034070  10.6346200  29.5289900   3.8873160   9.9529730  29.8374410
   8.5065370  10.3018390  11.7494490   9.2993980  10.5907220  11.2976280
   7.9869720   9.8710560  11.0706970  13.2385970   6.4214020  29.0629910
  12.6324130   6.4445620  28.3225660  12.9340080   5.6897060  29.5997160
  14.6686340  10.1494310  27.6739320  15.6208090  10.0652330  27.6239560
  14.5214560  10.8136020  28.3473110  17.5595540   9.5288520  13.1731230
  17.2737050   9.1153660  12.3585410  17.3615090  10.4576230  13.0531750
   9.0242770   5.5221800  11.6136840   8.9193410   4.9074150  12.3398220
   8.8566990   4.9987690  10.8299850   9.1757090   4.2078600  27.5926070
   8.4102760   4.7763600  27.5080740   9.3573050   3.9154810  26.6994300
  12.2645500   4.5841830  12.2178830  11.7155600   5.0311130  12.8621570
  12.8864760   4.0791080  12.7416500  16.3180440   5.9383930  28.1501090
  17.0589910   6.2759690  27.6468550  15.5553120   6.1075990  27.5970860
   7.9320620   3.5432750  14.1144130   8.3537040   3.3772620  14.9575520
   8.0571460   2.7332980  13.6199270  10.4448260   2.5670360  11.3621230
  10.9653920   1.8519380  10.9962380  11.0916660   3.2056230  11.6621740
  14.9926100   3.9898760  26.6856300  15.4067120   4.1443840  27.5346720
  14.0577100   4.1153980  26.8482080   9.7541330   3.9419240  24.6552230
  10.1729440   4.7851970  24.4828470   8.8349960   4.0791280  24.4259010
  14.4293130   2.2272610  24.6152580  13.9028350   2.7515230  24.0117720
  14.7724470   2.8600000  25.2462310   7.6048750  10.2472250  25.7709960
   7.0669840  10.9718310  25.4518660   7.8582710   9.7702590  24.9807300
  10.4610960  11.4823460  26.0296610  10.3869660  12.3858600  26.3368980
   9.5589800  11.1635360  26.0018680  11.0096290  10.6481970  13.6522970
  11.9047080  10.9866940  13.6741730  11.0413920   9.9261380  13.0247250
   4.6492450   6.0209020  11.8809970   5.0867320   6.5638690  12.5367550
   5.1340180   5.1955970  11.8906310   1.8638250   8.8098050  19.3330230
   2.1941260   7.9419110  19.1008870   2.2929250   9.0156570  20.1635190
   6.4600170   7.1407060  16.9932200   6.1595710   7.0172030  17.8936110
   6.3537660   6.2815650  16.5847930   2.3528460   9.6768640  22.0711860
   1.9159450   9.8569440  22.9036010   2.9206140  10.4343260  21.9293580
  17.9890640   9.1785640  26.3589170  17.3892630   9.2378200  25.6153090
  18.1184540   8.2390620  26.4886020  19.2292090   6.9203460  11.6958880
  18.3985050   6.9880110  12.1666110  19.4063920   7.8107580  11.3925740
  18.6848550   3.6650940  14.1993080  19.4467460   4.2347590  14.3052770
  18.7002920   3.0978140  14.9701390  19.6908520   4.5201040  19.0435010
  20.0617350   3.7368360  18.6370980  20.3310450   5.2090140  18.8652310
  16.6742280   5.9037620  24.4565330  15.8602120   6.3334780  24.7191120
  17.0816480   6.5156030  23.8434380  18.7367720   3.9585310  11.3565600
  19.0116560   4.8664190  11.2284820  18.5478460   3.8947840  12.2927590
   3.2228820   2.5741440  22.9704080   3.5901860   2.4868840  23.8500100
   2.6539640   1.8107990  22.8710940  16.7318330  10.6556220  17.9833600
  17.3277400  10.3340790  17.3068020  16.9896480  10.1828040  18.7746870
   4.6380900   7.0874130  28.1324230   4.5950530   6.7167040  29.0138690
   4.7691910   8.0251700  28.2726050   8.3386930   8.6433720  23.7333950
   8.0978290   8.9108280  22.8464470   9.2789570   8.8139450  23.7884810
  19.5991090  10.6628100  24.5344590  19.1049370  11.0596970  23.8171720
  18.9904380  10.0377310  24.9281870   4.4768930  10.0336380  25.2522010
   3.8829250   9.9021080  25.9912050   4.4692770   9.1974520  24.7864110
  17.2830540  11.3051520  21.8131330  16.8233510  12.0567330  21.4389350
  16.6543000  10.5857990  21.7546130   4.1081160   7.3994760  24.2030050
   3.3815220   6.7800050  24.1356000   4.1690310   7.7935370  23.3328130
   7.7126260   9.6139760  20.9879460   8.2291280   9.0027120  20.4627720
   8.3623640  10.1168540  21.4790470  10.4521760  10.5048250  21.8148440
  10.7399570  10.2502550  20.9381450  10.9644980   9.9525610  22.4054010
   3.9973860   9.4102380  14.8576950   3.4721480   9.7910410  14.1538910
   3.9218440  10.0353150  15.5786660  10.5194120  11.4264350  29.1816640
  11.4461430  11.1908620  29.2252600  10.5044550  12.2536350  28.7002670
  18.7539180  10.9689920  16.1790890  18.9291370  10.2827660  15.5351810
  18.0560750  11.4936970  15.7867560   6.5966830  11.3584760  13.7326200
   7.3285650  11.0744040  13.1850090   6.8560500  11.1198040  14.6225580
   5.7581620   7.4749490  13.7372530   5.1290500   7.9434590  14.2858360
   5.8729450   6.6298710  14.1718720  17.0871680  10.6534210  29.0057680
  17.8797000  10.1583440  28.7983640  17.3804830  11.3324350  29.6133290
  11.3449380   3.3034170   1.7683000  10.5691480   2.8234610   2.0581570
  11.9962310   2.6239820   1.5939160   5.3615210   3.6153980   2.6458760
   4.5300090   3.3602690   3.0455270   5.9696190   3.6864750   3.3816680
   5.3416470   7.6494070   2.8416780   5.6444510   6.7591810   2.6627000
   6.0860060   8.2064290   2.6139030  10.7858370   5.9791360   1.7753160
  10.7166650   5.0381300   1.6142290  11.5478230   6.0692770   2.3475730
   7.3215230   4.4067480   4.2401630   6.9884610   5.0336400   4.8822700
   7.4981910   4.9329360   3.4603300   6.5334330   6.3748280   6.0550810
   7.1508330   7.0499360   5.7735260   5.6727450   6.7836260   5.9638310
  17.4511920   7.8387690   3.9705450  16.7675440   8.5086800   3.9622120
  17.9906210   8.0368340   3.2050310  14.9870660   9.6831820   2.6850630
  14.9997820   9.2794110   1.8172890  14.4345880  10.4579110   2.5812060
  14.3856100   4.5861660   4.0133240  14.8024890   4.3721770   3.1786700
  15.1095920   4.8434450   4.5841860  18.3318200   2.9848880   4.1049480
  17.5036830   3.0541970   3.6299610  18.9268680   3.5703190   3.6365310
   7.8974700   6.2445660   2.0762230   7.6002990   5.6391130   1.3970010
   8.8474520   6.2822970   1.9651590  15.9860310   9.8177530   5.7385330
  15.5090870  10.6249720   5.5457940  15.3022100   9.1655860   5.8911540
   6.9893130   5.9827350   8.7270030   6.0921660   6.2067320   8.9743430
   7.0146000   6.1062290   7.7781430   5.8164350   2.8540670   7.3027400
   5.6772120   3.7263470   7.6714800   4.9345710   2.5113480   7.1575340
   7.6144700   8.7962370   9.5112550   7.5860130   9.2005320   8.6440980
   7.4509670   7.8672730   9.3484150  19.5659520   9.5789470  10.8076720
  20.0419240  10.0572360  11.4865800  20.1866680   9.5106960  10.0822220
   1.7683000   4.6238220   3.2198310   1.8463420   4.7586990   2.2754030
   2.3824680   3.9154110   3.4126430  18.9692770   6.7702320   7.9676730
  19.0955830   6.5314200   7.0493910  19.0114150   5.9386860   8.4398810
  12.8309510  10.4730320   6.5371540  13.3454180  10.3838330   7.3393970
  11.9878590  10.8190020   6.8299450   1.8242520   5.6652390   5.7592770
   1.9873560   5.1957750   4.9412140   2.2894970   5.1575950   6.4241610
   3.3981500   5.0403820   7.9188580   3.0136290   4.3997490   8.5171540
   3.7093690   5.7439940   8.4883310  16.6247780   4.1315350   2.1074650
  17.3446900   4.6270640   1.7170760  16.4229600   3.4533240   1.4628520
  12.0066580   4.2024410   7.9943650  11.9403890   3.2820080   7.7401240
  11.3771720   4.2999850   8.7088290   6.5954860   2.2275980   9.7492320
   6.2955000   2.3733160   8.8520140   7.3666100   1.6681270   9.6565710
  11.9383310   7.0244980   7.7447450  11.9527850   6.0925940   7.5266360
  11.2308410   7.1104740   8.3837220  18.1494520   3.6652320   7.0916030
  17.4242710   4.2581100   6.8945420  18.6769980   3.6575860   6.2929400
  11.3717210   8.6662550   4.8387950  12.0159430   8.8721930   5.5161370
  11.7346650   7.9050950   4.3858800  12.6449290   6.6694900   3.5565400
  13.2871520   5.9688060   3.6697570  13.1698640   7.4493340   3.3762290
  14.4186910   7.4689800   6.7601460  14.7543150   8.0556490   7.4379380
  13.4987250   7.3382510   6.9899250  10.2475490   7.5181130   9.9289520
   9.9272360   6.7990370  10.4735210   9.5733850   8.1936200  10.0025580
   4.4021340  10.3134150  10.3411010   5.2034070  10.6346200  10.7546410
   3.8873160   9.9529730  11.0630920  13.2385970   6.4214020  10.2886420
  12.6324130   6.4445620   9.5482170  12.9340080   5.6897060  10.8253670
  14.6686340  10.1494310   8.8995830  15.6208090  10.0652330   8.8496070
  14.5214560  10.8136020   9.5729620   9.1757090   4.2078600   8.8182580
   8.4102760   4.7763600   8.7337250   9.3573050   3.9154810   7.9250810
  16.3180440   5.9383930   9.3757600  17.0589910   6.2759690   8.8725060
  15.5553120   6.1075990   8.8227370  14.9926100   3.9898760   7.9112810
  15.4067120   4.1443840   8.7603230  14.0577100   4.1153980   8.0738590
   9.7541330   3.9419240   5.8808740  10.1729440   4.7851970   5.7084980
   8.8349960   4.0791280   5.6515520  14.4293130   2.2272610   5.8409090
  13.9028350   2.7515230   5.2374230  14.7724470   2.8600000   6.4718820
   7.6048750  10.2472250   6.9966470   7.0669840  10.9718310   6.6775170
   7.8582710   9.7702590   6.2063810  10.4610960  11.4823460   7.2553120
  10.3869660  12.3858600   7.5625490   9.5589800  11.1635360   7.2275190
   2.3528460   9.6768640   3.2968370   1.9159450   9.8569440   4.1292520
   2.9206140  10.4343260   3.1550090  17.9890640   9.1785640   7.5845680
  17.3892630   9.2378200   6.8409600  18.1184540   8.2390620   7.7142530
  16.6742280   5.9037620   5.6821840  15.8602120   6.3334780   5.9447630
  17.0816480   6.5156030   5.0690890   3.2228820   2.5741440   4.1960590
   3.5901860   2.4868840   5.0756610   2.6539640   1.8107990   4.0967450
   4.6380900   7.0874130   9.3580740   4.5950530   6.7167040  10.2395200
   4.7691910   8.0251700   9.4982560   8.3386930   8.6433720   4.9590460
   8.0978290   8.9108280   4.0720980   9.2789570   8.8139450   5.0141320
  19.5991090  10.6628100   5.7601100  19.1049370  11.0596970   5.0428230
  18.9904380  10.0377310   6.1538380   4.4768930  10.0336380   6.4778520
   3.8829250   9.9021080   7.2168560   4.4692770   9.1974520   6.0120620
  17.2830540  11.3051520   3.0387840  16.8233510  12.0567330   2.6645860
  16.6543000  10.5857990   2.9802640   4.1081160   7.3994760   5.4286560
   3.3815220   6.7800050   5.3612510   4.1690310   7.7935370   4.5584640
   7.7126260   9.6139760   2.2135970   8.2291280   9.0027120   1.6884230
   8.3623640  10.1168540   2.7046980  10.4521760  10.5048250   3.0404950
  10.7399570  10.2502550   2.1637960  10.9644980   9.9525610   3.6310520
  10.5194120  11.4264350  10.4073150  11.4461430  11.1908620  10.4509110
  10.5044550  12.2536350   9.9259180  17.0871680  10.6534210  10.2314190
  17.8797000  10.1583440  10.0240150  17.3804830  11.3324350  10.8389800
  39.5119260  42.1177590  40.4695410  90.0000000  90.0000000  90.0000000
