GROningen MAchine for Chemical Simulation
 4906
    1LIG     C1    1   1.939   2.115   2.225
    1LIG     N1    2   1.872   2.228   2.260
    1LIG     C2    3   1.892   1.993   2.275
    1LIG     C3    4   1.765   2.224   2.342
    1LIG     C4    5   1.782   2.000   2.358
    1LIG     C5    6   1.928   1.856   2.264
    1LIG     N2    7   1.716   2.111   2.395
    1LIG     N3    8   1.751   1.872   2.398
    1LIG     C6    9   1.839   1.783   2.341
    1LIG     C7   10   1.642   1.838   2.486
    1LIG     N4   11   1.705   2.344   2.377
    1LIG     C8   12   1.586   2.384   2.301
    1LIG     C9   13   1.715   2.384   2.517
    1LIG    C10   14   1.601   2.522   2.237
    1LIG    C11   15   1.671   2.529   2.539
    1LIG     O1   16   1.561   2.546   2.123
    1LIG     N5   17   1.650   2.627   2.310
    1LIG    C12   18   1.728   2.621   2.433
    1LIG     H1   19   1.660   2.710   2.254
    1LIG    C13   20   2.326   1.886   1.893
    1LIG     O2   21   2.445   1.918   1.896
    1LIG     N6   22   2.233   1.944   1.980
    1LIG    C14   23   2.087   1.939   1.963
    1LIG    C15   24   2.285   2.032   2.084
    1LIG    C16   25   2.024   2.075   1.989
    1LIG    C17   26   2.181   2.062   2.191
    1LIG    C18   27   2.056   2.128   2.130
    1LIG     S1   28   2.208   1.559   1.699
    1LIG    C19   29   2.198   1.696   1.596
    1LIG    C20   30   2.264   1.654   1.829
    1LIG    C21   31   2.237   1.812   1.660
    1LIG    C22   32   2.280   1.788   1.795
    1LIG     O3   33   2.235   1.937   1.606
    1LIG    C23   34   2.107   1.995   1.589
    1LIG     H2   35   2.011   1.814   2.205
    1LIG     H3   36   1.838   1.674   2.354
    1LIG     H4   37   1.675   1.848   2.590
    1LIG     H5   38   1.557   1.906   2.467
    1LIG     H6   39   1.611   1.734   2.467
    1LIG     H7   40   1.568   2.309   2.222
    1LIG     H8   41   1.501   2.388   2.372
    1LIG     H9   42   1.651   2.318   2.577
    1LIG    H10   43   1.821   2.376   2.547
    1LIG    H11   44   1.561   2.533   2.534
    1LIG    H12   45   1.708   2.561   2.637
    1LIG    H13   46   1.734   2.723   2.475
    1LIG    H14   47   1.827   2.581   2.405
    1LIG    H15   48   2.064   1.907   1.860
    1LIG    H16   49   2.046   1.867   2.035
    1LIG    H17   50   2.371   1.983   2.132
    1LIG    H18   51   2.313   2.127   2.037
    1LIG    H19   52   2.063   2.147   1.914
    1LIG    H20   53   1.915   2.064   1.981
    1LIG    H21   54   2.151   1.968   2.240
    1LIG    H22   55   2.225   2.131   2.264
    1LIG    H23   56   2.078   2.235   2.116
    1LIG    H24   57   2.164   1.691   1.492
    1LIG    H25   58   2.285   1.614   1.929
    1LIG    H26   59   2.062   2.015   1.687
    1LIG    H27   60   2.116   2.089   1.533
    1LIG    H28   61   2.042   1.925   1.533
    2WAT      O   62   3.202   3.907   3.783
    2WAT     H1   63   3.194   3.816   3.756
    2WAT     H2   64   3.161   3.957   3.712
    3WAT      O   65   2.258   3.612   3.437
    3WAT     H1   66   2.169   3.647   3.427
    3WAT     H2   67   2.286   3.592   3.348
    4WAT      O   68   2.476   3.471   3.541
    4WAT     H1   69   2.486   3.561   3.571
    4WAT     H2   70   2.384   3.466   3.511
    5WAT      O   71   3.441   3.383   3.688
    5WAT     H1   72   3.523   3.334   3.692
    5WAT     H2   73   3.444   3.442   3.763
    6WAT      O   74   2.824   3.152   3.834
    6WAT     H1   75   2.855   3.096   3.762
    6WAT     H2   76   2.731   3.165   3.815
    7WAT      O   77   3.063   3.958   3.507
    7WAT     H1   78   2.971   3.951   3.530
    7WAT     H2   79   3.078   4.052   3.496
    8WAT      O   80   3.062   3.585   3.207
    8WAT     H1   81   2.968   3.601   3.215
    8WAT     H2   82   3.094   3.657   3.152
    9WAT      O   83   2.624   4.011   3.785
    9WAT     H1   84   2.583   3.939   3.736
    9WAT     H2   85   2.632   3.976   3.874
   10WAT      O   86   3.642   3.164   3.090
   10WAT     H1   87   3.611   3.173   3.180
   10WAT     H2   88   3.718   3.221   3.085
   11WAT      O   89   2.294   3.900   3.535
   11WAT     H1   90   2.282   3.973   3.474
   11WAT     H2   91   2.263   3.823   3.488
   12WAT      O   92   2.540   3.234   3.874
   12WAT     H1   93   2.496   3.313   3.840
   12WAT     H2   94   2.596   3.267   3.944
   13WAT      O   95   2.852   3.197   3.362
   13WAT     H1   96   2.790   3.196   3.434
   13WAT     H2   97   2.843   3.110   3.322
   14WAT      O   98   2.520   3.747   3.646
   14WAT     H1   99   2.497   3.725   3.737
   14WAT     H2  100   2.442   3.790   3.612
   15WAT      O  101   3.243   3.747   3.506
   15WAT     H1  102   3.183   3.820   3.488
   15WAT     H2  103   3.297   3.741   3.428
   16WAT      O  104   3.103   3.611   3.709
   16WAT     H1  105   3.143   3.643   3.628
   16WAT     H2  106   3.139   3.523   3.721
   17WAT      O  107   2.026   3.664   3.053
   17WAT     H1  108   2.017   3.759   3.067
   17WAT     H2  109   1.990   3.650   2.965
   18WAT      O  110   2.806   3.538   3.959
   18WAT     H1  111   2.806   3.494   3.874
   18WAT     H2  112   2.895   3.570   3.970
   19WAT      O  113   2.391   3.526   3.855
   19WAT     H1  114   2.357   3.574   3.931
   19WAT     H2  115   2.314   3.481   3.819
   20WAT      O  116   2.812   3.638   3.258
   20WAT     H1  117   2.824   3.634   3.353
   20WAT     H2  118   2.773   3.724   3.243
   21WAT      O  119   2.713   3.869   3.198
   21WAT     H1  120   2.656   3.824   3.136
   21WAT     H2  121   2.784   3.905   3.145
   22WAT      O  122   2.122   3.418   3.747
   22WAT     H1  123   2.094   3.382   3.831
   22WAT     H2  124   2.116   3.345   3.686
   23WAT      O  125   3.089   3.307   3.419
   23WAT     H1  126   3.008   3.258   3.412
   23WAT     H2  127   3.070   3.391   3.378
   24WAT      O  128   3.361   3.745   3.249
   24WAT     H1  129   3.450   3.776   3.231
   24WAT     H2  130   3.358   3.657   3.210
   25WAT      O  131   3.588   3.876   3.196
   25WAT     H1  132   3.580   3.919   3.111
   25WAT     H2  133   3.660   3.922   3.239
   26WAT      O  134   2.071   3.932   3.143
   26WAT     H1  135   2.158   3.960   3.171
   26WAT     H2  136   2.022   4.013   3.131
   27WAT      O  137   2.378   3.105   3.602
   27WAT     H1  138   2.365   3.104   3.697
   27WAT     H2  139   2.295   3.139   3.567
   28WAT      O  140   3.564   3.426   3.404
   28WAT     H1  141   3.501   3.436   3.333
   28WAT     H2  142   3.514   3.447   3.483
   29WAT      O  143   2.761   3.653   3.546
   29WAT     H1  144   2.690   3.700   3.590
   29WAT     H2  145   2.789   3.588   3.609
   30WAT      O  146   3.164   3.326   3.690
   30WAT     H1  147   3.151   3.328   3.595
   30WAT     H2  148   3.259   3.331   3.702
   31WAT      O  149   2.581   3.484   3.283
   31WAT     H1  150   2.666   3.528   3.277
   31WAT     H2  151   2.544   3.515   3.366
   32WAT      O  152   3.473   3.941   3.775
   32WAT     H1  153   3.379   3.943   3.792
   32WAT     H2  154   3.505   3.863   3.819
   33WAT      O  155   2.340   3.853   3.199
   33WAT     H1  156   2.348   3.758   3.210
   33WAT     H2  157   2.430   3.886   3.210
   34WAT      O  158   2.564   3.717   3.023
   34WAT     H1  159   2.544   3.630   3.059
   34WAT     H2  160   2.547   3.708   2.929
   35WAT      O  161   3.312   3.198   3.276
   35WAT     H1  162   3.340   3.113   3.311
   35WAT     H2  163   3.234   3.221   3.327
   36WAT      O  164   2.443   3.427   3.021
   36WAT     H1  165   2.474   3.427   2.931
   36WAT     H2  166   2.517   3.392   3.071
   37WAT      O  167   2.765   3.321   3.120
   37WAT     H1  168   2.731   3.253   3.062
   37WAT     H2  169   2.785   3.275   3.201
   38WAT      O  170   2.099   3.974   3.760
   38WAT     H1  171   2.034   3.947   3.695
   38WAT     H2  172   2.183   3.963   3.715
   39WAT      O  173   3.394   3.453   3.182
   39WAT     H1  174   3.436   3.434   3.098
   39WAT     H2  175   3.364   3.368   3.213
   40WAT      O  176   3.744   3.944   3.552
   40WAT     H1  177   3.707   3.868   3.508
   40WAT     H2  178   3.671   3.983   3.600
   41WAT      O  179   2.021   3.695   3.354
   41WAT     H1  180   1.930   3.721   3.336
   41WAT     H2  181   2.069   3.722   3.276
   42WAT      O  182   3.672   3.767   3.882
   42WAT     H1  183   3.724   3.718   3.819
   42WAT     H2  184   3.730   3.780   3.956
   43WAT      O  185   2.275   3.600   3.145
   43WAT     H1  186   2.346   3.558   3.096
   43WAT     H2  187   2.203   3.607   3.082
   44WAT      O  188   2.240   3.206   3.049
   44WAT     H1  189   2.312   3.260   3.081
   44WAT     H2  190   2.267   3.178   2.961
   45WAT      O  191   3.621   3.693   3.476
   45WAT     H1  192   3.670   3.669   3.554
   45WAT     H2  193   3.601   3.609   3.434
   46WAT      O  194   3.503   3.249   3.961
   46WAT     H1  195   3.547   3.244   3.876
   46WAT     H2  196   3.476   3.341   3.968
   47WAT      O  197   3.689   3.213   3.762
   47WAT     H1  198   3.683   3.118   3.747
   47WAT     H2  199   3.767   3.223   3.816
   48WAT      O  200   2.182   3.210   3.408
   48WAT     H1  201   2.258   3.221   3.351
   48WAT     H2  202   2.136   3.293   3.404
   49WAT      O  203   2.836   3.421   3.707
   49WAT     H1  204   2.755   3.384   3.673
   49WAT     H2  205   2.887   3.346   3.737
   50WAT      O  206   3.287   3.088   3.831
   50WAT     H1  207   3.347   3.145   3.879
   50WAT     H2  208   3.213   3.144   3.809
   51WAT      O  209   3.601   3.128   3.359
   51WAT     H1  210   3.620   3.218   3.385
   51WAT     H2  211   3.522   3.105   3.408
   52WAT      O  212   2.420   3.262   3.262
   52WAT     H1  213   2.472   3.184   3.249
   52WAT     H2  214   2.483   3.330   3.286
   53WAT      O  215   2.639   3.236   3.568
   53WAT     H1  216   2.576   3.166   3.584
   53WAT     H2  217   2.585   3.312   3.546
   54WAT      O  218   3.202   3.907   1.905
   54WAT     H1  219   3.194   3.816   1.878
   54WAT     H2  220   3.161   3.957   1.835
   55WAT      O  221   2.258   3.612   1.560
   55WAT     H1  222   2.169   3.647   1.549
   55WAT     H2  223   2.286   3.592   1.470
   56WAT      O  224   2.054   3.872   2.148
   56WAT     H1  225   2.111   3.796   2.148
   56WAT     H2  226   2.054   3.902   2.057
   57WAT      O  227   2.179   3.413   2.327
   57WAT     H1  228   2.161   3.324   2.355
   57WAT     H2  229   2.138   3.468   2.394
   58WAT      O  230   3.062   3.633   2.117
   58WAT     H1  231   3.100   3.546   2.106
   58WAT     H2  232   3.053   3.667   2.028
   59WAT      O  233   2.476   3.471   1.663
   59WAT     H1  234   2.486   3.561   1.694
   59WAT     H2  235   2.384   3.466   1.634
   60WAT      O  236   3.441   3.383   1.810
   60WAT     H1  237   3.523   3.334   1.814
   60WAT     H2  238   3.444   3.442   1.886
   61WAT      O  239   2.240   3.663   2.188
   61WAT     H1  240   2.308   3.689   2.249
   61WAT     H2  241   2.209   3.579   2.221
   62WAT      O  242   2.660   3.768   2.096
   62WAT     H1  243   2.710   3.817   2.160
   62WAT     H2  244   2.713   3.690   2.079
   63WAT      O  245   2.488   3.232   2.523
   63WAT     H1  246   2.488   3.283   2.442
   63WAT     H2  247   2.405   3.184   2.521
   64WAT      O  248   3.464   3.577   2.087
   64WAT     H1  249   3.394   3.606   2.145
   64WAT     H2  250   3.500   3.658   2.051
   65WAT      O  251   2.456   3.403   2.324
   65WAT     H1  252   2.490   3.487   2.294
   65WAT     H2  253   2.362   3.418   2.335
   66WAT      O  254   3.771   3.522   2.127
   66WAT     H1  255   3.676   3.525   2.140
   66WAT     H2  256   3.804   3.603   2.165
   67WAT      O  257   2.824   3.152   1.956
   67WAT     H1  258   2.855   3.096   1.884
   67WAT     H2  259   2.731   3.165   1.938
   68WAT      O  260   3.063   3.958   1.630
   68WAT     H1  261   2.971   3.951   1.653
   68WAT     H2  262   3.078   4.052   1.618
   69WAT      O  263   3.062   3.585   1.329
   69WAT     H1  264   2.968   3.601   1.338
   69WAT     H2  265   3.094   3.657   1.275
   70WAT      O  266   3.410   3.732   2.422
   70WAT     H1  267   3.369   3.815   2.447
   70WAT     H2  268   3.337   3.674   2.402
   71WAT      O  269   2.624   4.011   1.908
   71WAT     H1  270   2.583   3.939   1.858
   71WAT     H2  271   2.632   3.976   1.997
   72WAT      O  272   2.495   3.688   2.286
   72WAT     H1  273   2.550   3.699   2.208
   72WAT     H2  274   2.547   3.725   2.357
   73WAT      O  275   3.642   3.164   1.212
   73WAT     H1  276   3.611   3.173   1.302
   73WAT     H2  277   3.718   3.221   1.207
   74WAT      O  278   2.294   3.900   1.658
   74WAT     H1  279   2.282   3.973   1.597
   74WAT     H2  280   2.263   3.823   1.610
   75WAT      O  281   3.763   3.637   2.810
   75WAT     H1  282   3.701   3.688   2.757
   75WAT     H2  283   3.731   3.547   2.804
   76WAT      O  284   2.540   3.234   1.996
   76WAT     H1  285   2.496   3.313   1.963
   76WAT     H2  286   2.596   3.267   2.067
   77WAT      O  287   2.969   3.521   2.557
   77WAT     H1  288   2.923   3.542   2.638
   77WAT     H2  289   2.929   3.440   2.526
   78WAT      O  290   3.469   3.643   2.670
   78WAT     H1  291   3.384   3.613   2.702
   78WAT     H2  292   3.453   3.668   2.578
   79WAT      O  293   3.179   3.793   2.880
   79WAT     H1  294   3.211   3.710   2.846
   79WAT     H2  295   3.258   3.846   2.894
   80WAT      O  296   2.852   3.197   1.484
   80WAT     H1  297   2.790   3.196   1.557
   80WAT     H2  298   2.843   3.110   1.445
   81WAT      O  299   2.744   3.289   2.182
   81WAT     H1  300   2.774   3.380   2.174
   81WAT     H2  301   2.799   3.240   2.121
   82WAT      O  302   2.520   3.747   1.769
   82WAT     H1  303   2.497   3.725   1.859
   82WAT     H2  304   2.442   3.790   1.734
   83WAT      O  305   3.243   3.747   1.629
   83WAT     H1  306   3.183   3.820   1.611
   83WAT     H2  307   3.297   3.741   1.551
   84WAT      O  308   2.764   3.837   2.836
   84WAT     H1  309   2.754   3.743   2.821
   84WAT     H2  310   2.848   3.859   2.796
   85WAT      O  311   3.103   3.611   1.832
   85WAT     H1  312   3.143   3.643   1.751
   85WAT     H2  313   3.139   3.523   1.843
   86WAT      O  314   2.277   3.478   2.651
   86WAT     H1  315   2.237   3.563   2.672
   86WAT     H2  316   2.208   3.414   2.670
   87WAT      O  317   2.934   3.486   2.958
   87WAT     H1  318   2.865   3.467   3.021
   87WAT     H2  319   3.008   3.514   3.011
   88WAT      O  320   2.007   3.270   2.054
   88WAT     H1  321   1.978   3.327   2.126
   88WAT     H2  322   2.081   3.222   2.091
   89WAT      O  323   2.026   3.664   1.175
   89WAT     H1  324   2.017   3.759   1.189
   89WAT     H2  325   1.990   3.650   1.087
   90WAT      O  326   3.162   3.870   2.241
   90WAT     H1  327   3.089   3.921   2.276
   90WAT     H2  328   3.122   3.788   2.211
   91WAT      O  329   2.806   3.538   2.082
   91WAT     H1  330   2.806   3.494   1.997
   91WAT     H2  331   2.895   3.570   2.093
   92WAT      O  332   2.391   3.526   1.978
   92WAT     H1  333   2.357   3.574   2.054
   92WAT     H2  334   2.314   3.481   1.942
   93WAT      O  335   2.812   3.638   1.381
   93WAT     H1  336   2.824   3.634   1.476
   93WAT     H2  337   2.773   3.724   1.366
   94WAT      O  338   3.208   3.415   2.183
   94WAT     H1  339   3.210   3.461   2.267
   94WAT     H2  340   3.183   3.326   2.204
   95WAT      O  341   2.713   3.869   1.321
   95WAT     H1  342   2.656   3.824   1.258
   95WAT     H2  343   2.784   3.905   1.268
   96WAT      O  344   3.551   3.157   2.767
   96WAT     H1  345   3.583   3.084   2.819
   96WAT     H2  346   3.554   3.125   2.676
   97WAT      O  347   2.836   3.944   2.257
   97WAT     H1  348   2.872   3.896   2.331
   97WAT     H2  349   2.817   4.031   2.291
   98WAT      O  350   2.122   3.418   1.870
   98WAT     H1  351   2.094   3.382   1.953
   98WAT     H2  352   2.116   3.345   1.808
   99WAT      O  353   2.615   3.848   2.488
   99WAT     H1  354   2.584   3.936   2.511
   99WAT     H2  355   2.710   3.854   2.492
  100WAT      O  356   3.089   3.307   1.542
  100WAT     H1  357   3.008   3.258   1.534
  100WAT     H2  358   3.070   3.391   1.500
  101WAT      O  359   3.361   3.745   1.371
  101WAT     H1  360   3.450   3.776   1.354
  101WAT     H2  361   3.358   3.657   1.332
  102WAT      O  362   2.220   3.932   2.603
  102WAT     H1  363   2.184   3.998   2.662
  102WAT     H2  364   2.191   3.849   2.640
  103WAT      O  365   2.540   3.978   2.892
  103WAT     H1  366   2.510   3.992   2.802
  103WAT     H2  367   2.618   3.922   2.882
  104WAT      O  368   3.588   3.876   1.318
  104WAT     H1  369   3.580   3.919   1.233
  104WAT     H2  370   3.660   3.922   1.361
  105WAT      O  371   2.071   3.932   1.266
  105WAT     H1  372   2.158   3.960   1.294
  105WAT     H2  373   2.022   4.013   1.254
  106WAT      O  374   2.378   3.105   1.725
  106WAT     H1  375   2.365   3.104   1.820
  106WAT     H2  376   2.295   3.139   1.690
  107WAT      O  377   2.078   3.281   2.671
  107WAT     H1  378   2.006   3.301   2.731
  107WAT     H2  379   2.120   3.203   2.708
  108WAT      O  380   3.227   3.530   2.446
  108WAT     H1  381   3.264   3.448   2.479
  108WAT     H2  382   3.141   3.536   2.487
  109WAT      O  383   3.564   3.426   1.527
  109WAT     H1  384   3.501   3.436   1.455
  109WAT     H2  385   3.514   3.447   1.606
  110WAT      O  386   2.761   3.653   1.668
  110WAT     H1  387   2.690   3.700   1.713
  110WAT     H2  388   2.789   3.588   1.732
  111WAT      O  389   2.923   3.795   2.468
  111WAT     H1  390   2.973   3.843   2.535
  111WAT     H2  391   2.937   3.703   2.489
  112WAT      O  392   3.164   3.326   1.812
  112WAT     H1  393   3.151   3.328   1.717
  112WAT     H2  394   3.259   3.331   1.824
  113WAT      O  395   2.581   3.484   1.406
  113WAT     H1  396   2.666   3.528   1.399
  113WAT     H2  397   2.544   3.515   1.489
  114WAT      O  398   3.644   3.417   2.553
  114WAT     H1  399   3.594   3.491   2.587
  114WAT     H2  400   3.725   3.456   2.521
  115WAT      O  401   3.473   3.941   1.897
  115WAT     H1  402   3.379   3.943   1.915
  115WAT     H2  403   3.505   3.863   1.942
  116WAT      O  404   2.340   3.853   1.322
  116WAT     H1  405   2.348   3.758   1.333
  116WAT     H2  406   2.430   3.886   1.332
  117WAT      O  407   2.296   3.849   2.935
  117WAT     H1  408   2.300   3.819   3.026
  117WAT     H2  409   2.382   3.889   2.919
  118WAT      O  410   2.490   3.707   2.731
  118WAT     H1  411   2.437   3.658   2.669
  118WAT     H2  412   2.557   3.750   2.678
  119WAT      O  413   3.427   3.888   2.908
  119WAT     H1  414   3.486   3.812   2.899
  119WAT     H2  415   3.445   3.941   2.831
  120WAT      O  416   2.539   3.404   2.739
  120WAT     H1  417   2.530   3.342   2.667
  120WAT     H2  418   2.481   3.476   2.717
  121WAT      O  419   2.816   3.260   2.443
  121WAT     H1  420   2.771   3.262   2.358
  121WAT     H2  421   2.752   3.220   2.502
  122WAT      O  422   3.090   3.922   2.643
  122WAT     H1  423   3.102   3.863   2.717
  122WAT     H2  424   3.176   3.926   2.601
  123WAT      O  425   3.324   3.978   2.501
  123WAT     H1  426   3.271   4.030   2.440
  123WAT     H2  427   3.358   4.041   2.564
  124WAT      O  428   2.564   3.717   1.145
  124WAT     H1  429   2.544   3.630   1.181
  124WAT     H2  430   2.547   3.708   1.051
  125WAT      O  431   2.767   3.576   2.769
  125WAT     H1  432   2.826   3.546   2.838
  125WAT     H2  433   2.685   3.529   2.785
  126WAT      O  434   3.249   3.538   2.792
  126WAT     H1  435   3.180   3.472   2.786
  126WAT     H2  436   3.321   3.493   2.837
  127WAT      O  437   3.312   3.198   1.398
  127WAT     H1  438   3.340   3.113   1.434
  127WAT     H2  439   3.234   3.221   1.450
  128WAT      O  440   2.443   3.427   1.144
  128WAT     H1  441   2.474   3.427   1.053
  128WAT     H2  442   2.517   3.392   1.194
  129WAT      O  443   2.765   3.321   1.243
  129WAT     H1  444   2.731   3.253   1.185
  129WAT     H2  445   2.785   3.275   1.324
  130WAT      O  446   2.099   3.974   1.882
  130WAT     H1  447   2.034   3.947   1.818
  130WAT     H2  448   2.183   3.963   1.837
  131WAT      O  449   3.394   3.453   1.304
  131WAT     H1  450   3.436   3.434   1.220
  131WAT     H2  451   3.364   3.368   1.335
  132WAT      O  452   3.744   3.944   1.674
  132WAT     H1  453   3.707   3.868   1.631
  132WAT     H2  454   3.671   3.983   1.723
  133WAT      O  455   2.203   4.012   2.336
  133WAT     H1  456   2.240   4.004   2.424
  133WAT     H2  457   2.146   3.936   2.326
  134WAT      O  458   3.683   3.859   2.638
  134WAT     H1  459   3.660   3.836   2.548
  134WAT     H2  460   3.709   3.951   2.633
  135WAT      O  461   2.158   3.703   2.727
  135WAT     H1  462   2.069   3.700   2.761
  135WAT     H2  463   2.212   3.723   2.803
  136WAT      O  464   3.527   3.382   2.915
  136WAT     H1  465   3.615   3.383   2.954
  136WAT     H2  466   3.528   3.308   2.854
  137WAT      O  467   2.021   3.695   1.477
  137WAT     H1  468   1.930   3.721   1.459
  137WAT     H2  469   2.069   3.722   1.399
  138WAT      O  470   3.672   3.767   2.004
  138WAT     H1  471   3.724   3.718   1.941
  138WAT     H2  472   3.730   3.780   2.079
  139WAT      O  473   3.690   3.775   2.356
  139WAT     H1  474   3.595   3.772   2.368
  139WAT     H2  475   3.708   3.866   2.333
  140WAT      O  476   2.275   3.600   1.267
  140WAT     H1  477   2.346   3.558   1.219
  140WAT     H2  478   2.203   3.607   1.204
  141WAT      O  479   2.240   3.206   1.171
  141WAT     H1  480   2.312   3.260   1.203
  141WAT     H2  481   2.267   3.178   1.084
  142WAT      O  482   3.621   3.693   1.598
  142WAT     H1  483   3.670   3.669   1.677
  142WAT     H2  484   3.601   3.609   1.557
  143WAT      O  485   2.209   3.131   2.162
  143WAT     H1  486   2.273   3.076   2.118
  143WAT     H2  487   2.251   3.156   2.244
  144WAT      O  488   3.598   3.150   2.497
  144WAT     H1  489   3.662   3.212   2.534
  144WAT     H2  490   3.613   3.154   2.403
  145WAT      O  491   2.184   3.146   2.436
  145WAT     H1  492   2.149   3.192   2.513
  145WAT     H2  493   2.151   3.057   2.444
  146WAT      O  494   2.935   3.266   2.788
  146WAT     H1  495   2.929   3.325   2.863
  146WAT     H2  496   3.029   3.255   2.774
  147WAT      O  497   3.199   3.231   2.752
  147WAT     H1  498   3.260   3.263   2.686
  147WAT     H2  499   3.254   3.183   2.814
  148WAT      O  500   2.251   3.099   2.763
  148WAT     H1  501   2.306   3.081   2.687
  148WAT     H2  502   2.258   3.020   2.817
  149WAT      O  503   3.273   3.088   2.385
  149WAT     H1  504   3.186   3.121   2.364
  149WAT     H2  505   3.262   3.040   2.467
  150WAT      O  506   3.364   3.308   2.523
  150WAT     H1  507   3.331   3.227   2.485
  150WAT     H2  508   3.459   3.304   2.511
  151WAT      O  509   3.048   3.179   2.279
  151WAT     H1  510   2.970   3.227   2.307
  151WAT     H2  511   3.018   3.089   2.268
  152WAT      O  512   3.503   3.249   2.083
  152WAT     H1  513   3.547   3.244   1.998
  152WAT     H2  514   3.476   3.341   2.090
  153WAT      O  515   3.689   3.213   1.884
  153WAT     H1  516   3.683   3.118   1.870
  153WAT     H2  517   3.767   3.223   1.939
  154WAT      O  518   2.182   3.210   1.531
  154WAT     H1  519   2.258   3.221   1.473
  154WAT     H2  520   2.136   3.293   1.526
  155WAT      O  521   2.836   3.421   1.830
  155WAT     H1  522   2.755   3.384   1.796
  155WAT     H2  523   2.887   3.346   1.860
  156WAT      O  524   3.287   3.088   1.954
  156WAT     H1  525   3.347   3.145   2.001
  156WAT     H2  526   3.213   3.144   1.931
  157WAT      O  527   3.601   3.128   1.481
  157WAT     H1  528   3.620   3.218   1.508
  157WAT     H2  529   3.522   3.105   1.530
  158WAT      O  530   2.420   3.262   1.385
  158WAT     H1  531   2.472   3.184   1.372
  158WAT     H2  532   2.483   3.330   1.408
  159WAT      O  533   2.639   3.236   1.690
  159WAT     H1  534   2.576   3.166   1.707
  159WAT     H2  535   2.585   3.312   1.669
  160WAT      O  536   2.651   3.164   2.934
  160WAT     H1  537   2.623   3.214   2.857
  160WAT     H2  538   2.690   3.084   2.897
  161WAT      O  539   3.312   3.105   2.992
  161WAT     H1  540   3.300   3.137   3.081
  161WAT     H2  541   3.393   3.146   2.962
  162WAT      O  542   2.054   3.872   0.271
  162WAT     H1  543   2.111   3.796   0.271
  162WAT     H2  544   2.054   3.902   0.180
  163WAT      O  545   2.179   3.413   0.449
  163WAT     H1  546   2.161   3.324   0.477
  163WAT     H2  547   2.138   3.468   0.517
  164WAT      O  548   3.062   3.633   0.239
  164WAT     H1  549   3.100   3.546   0.228
  164WAT     H2  550   3.053   3.667   0.150
  165WAT      O  551   2.240   3.663   0.310
  165WAT     H1  552   2.308   3.689   0.372
  165WAT     H2  553   2.209   3.579   0.344
  166WAT      O  554   2.660   3.768   0.219
  166WAT     H1  555   2.710   3.817   0.283
  166WAT     H2  556   2.713   3.690   0.201
  167WAT      O  557   2.488   3.232   0.646
  167WAT     H1  558   2.488   3.283   0.565
  167WAT     H2  559   2.405   3.184   0.643
  168WAT      O  560   3.464   3.577   0.210
  168WAT     H1  561   3.394   3.606   0.268
  168WAT     H2  562   3.500   3.658   0.174
  169WAT      O  563   2.456   3.403   0.446
  169WAT     H1  564   2.490   3.487   0.417
  169WAT     H2  565   2.362   3.418   0.458
  170WAT      O  566   3.771   3.522   0.249
  170WAT     H1  567   3.676   3.525   0.262
  170WAT     H2  568   3.804   3.603   0.288
  171WAT      O  569   3.410   3.732   0.544
  171WAT     H1  570   3.369   3.815   0.570
  171WAT     H2  571   3.337   3.674   0.525
  172WAT      O  572   2.495   3.688   0.408
  172WAT     H1  573   2.550   3.699   0.331
  172WAT     H2  574   2.547   3.725   0.480
  173WAT      O  575   3.763   3.637   0.933
  173WAT     H1  576   3.701   3.688   0.880
  173WAT     H2  577   3.731   3.547   0.927
  174WAT      O  578   2.969   3.521   0.679
  174WAT     H1  579   2.923   3.542   0.760
  174WAT     H2  580   2.929   3.440   0.649
  175WAT      O  581   3.469   3.643   0.792
  175WAT     H1  582   3.384   3.613   0.824
  175WAT     H2  583   3.453   3.668   0.701
  176WAT      O  584   3.179   3.793   1.002
  176WAT     H1  585   3.211   3.710   0.968
  176WAT     H2  586   3.258   3.846   1.017
  177WAT      O  587   2.744   3.289   0.305
  177WAT     H1  588   2.774   3.380   0.297
  177WAT     H2  589   2.799   3.240   0.243
  178WAT      O  590   2.764   3.837   0.958
  178WAT     H1  591   2.754   3.743   0.943
  178WAT     H2  592   2.848   3.859   0.919
  179WAT      O  593   2.277   3.478   0.774
  179WAT     H1  594   2.237   3.563   0.794
  179WAT     H2  595   2.208   3.414   0.793
  180WAT      O  596   2.934   3.486   1.080
  180WAT     H1  597   2.865   3.467   1.144
  180WAT     H2  598   3.008   3.514   1.134
  181WAT      O  599   2.007   3.270   0.177
  181WAT     H1  600   1.978   3.327   0.248
  181WAT     H2  601   2.081   3.222   0.213
  182WAT      O  602   3.162   3.870   0.364
  182WAT     H1  603   3.089   3.921   0.399
  182WAT     H2  604   3.122   3.788   0.334
  183WAT      O  605   3.208   3.415   0.305
  183WAT     H1  606   3.210   3.461   0.390
  183WAT     H2  607   3.183   3.326   0.327
  184WAT      O  608   3.551   3.157   0.889
  184WAT     H1  609   3.583   3.084   0.942
  184WAT     H2  610   3.554   3.125   0.799
  185WAT      O  611   2.836   3.944   0.379
  185WAT     H1  612   2.872   3.896   0.454
  185WAT     H2  613   2.817   4.031   0.413
  186WAT      O  614   2.615   3.848   0.611
  186WAT     H1  615   2.584   3.936   0.634
  186WAT     H2  616   2.710   3.854   0.615
  187WAT      O  617   2.220   3.932   0.726
  187WAT     H1  618   2.184   3.998   0.785
  187WAT     H2  619   2.191   3.849   0.763
  188WAT      O  620   2.540   3.978   1.014
  188WAT     H1  621   2.510   3.992   0.924
  188WAT     H2  622   2.618   3.922   1.005
  189WAT      O  623   2.078   3.281   0.793
  189WAT     H1  624   2.006   3.301   0.854
  189WAT     H2  625   2.120   3.203   0.831
  190WAT      O  626   3.227   3.530   0.569
  190WAT     H1  627   3.264   3.448   0.601
  190WAT     H2  628   3.141   3.536   0.610
  191WAT      O  629   2.923   3.795   0.591
  191WAT     H1  630   2.973   3.843   0.657
  191WAT     H2  631   2.937   3.703   0.612
  192WAT      O  632   3.644   3.417   0.675
  192WAT     H1  633   3.594   3.491   0.709
  192WAT     H2  634   3.725   3.456   0.644
  193WAT      O  635   2.296   3.849   1.057
  193WAT     H1  636   2.300   3.819   1.148
  193WAT     H2  637   2.382   3.889   1.041
  194WAT      O  638   2.490   3.707   0.854
  194WAT     H1  639   2.437   3.658   0.791
  194WAT     H2  640   2.557   3.750   0.801
  195WAT      O  641   3.427   3.888   1.031
  195WAT     H1  642   3.486   3.812   1.022
  195WAT     H2  643   3.445   3.941   0.953
  196WAT      O  644   2.539   3.404   0.862
  196WAT     H1  645   2.530   3.342   0.789
  196WAT     H2  646   2.481   3.476   0.839
  197WAT      O  647   2.816   3.260   0.565
  197WAT     H1  648   2.771   3.262   0.481
  197WAT     H2  649   2.752   3.220   0.625
  198WAT      O  650   3.090   3.922   0.766
  198WAT     H1  651   3.102   3.863   0.840
  198WAT     H2  652   3.176   3.926   0.724
  199WAT      O  653   3.324   3.978   0.623
  199WAT     H1  654   3.271   4.030   0.563
  199WAT     H2  655   3.358   4.041   0.686
  200WAT      O  656   2.767   3.576   0.891
  200WAT     H1  657   2.826   3.546   0.960
  200WAT     H2  658   2.685   3.529   0.907
  201WAT      O  659   3.249   3.538   0.915
  201WAT     H1  660   3.180   3.472   0.908
  201WAT     H2  661   3.321   3.493   0.959
  202WAT      O  662   2.203   4.012   0.459
  202WAT     H1  663   2.240   4.004   0.547
  202WAT     H2  664   2.146   3.936   0.449
  203WAT      O  665   3.683   3.859   0.760
  203WAT     H1  666   3.660   3.836   0.670
  203WAT     H2  667   3.709   3.951   0.756
  204WAT      O  668   2.158   3.703   0.849
  204WAT     H1  669   2.069   3.700   0.883
  204WAT     H2  670   2.212   3.723   0.926
  205WAT      O  671   3.527   3.382   1.038
  205WAT     H1  672   3.615   3.383   1.076
  205WAT     H2  673   3.528   3.308   0.977
  206WAT      O  674   3.690   3.775   0.479
  206WAT     H1  675   3.595   3.772   0.490
  206WAT     H2  676   3.708   3.866   0.456
  207WAT      O  677   2.209   3.131   0.284
  207WAT     H1  678   2.273   3.076   0.240
  207WAT     H2  679   2.251   3.156   0.366
  208WAT      O  680   3.598   3.150   0.620
  208WAT     H1  681   3.662   3.212   0.657
  208WAT     H2  682   3.613   3.154   0.525
  209WAT      O  683   2.184   3.146   0.559
  209WAT     H1  684   2.149   3.192   0.635
  209WAT     H2  685   2.151   3.057   0.567
  210WAT      O  686   2.935   3.266   0.911
  210WAT     H1  687   2.929   3.325   0.986
  210WAT     H2  688   3.029   3.255   0.896
  211WAT      O  689   3.199   3.231   0.875
  211WAT     H1  690   3.260   3.263   0.808
  211WAT     H2  691   3.254   3.183   0.937
  212WAT      O  692   2.251   3.099   0.886
  212WAT     H1  693   2.306   3.081   0.810
  212WAT     H2  694   2.258   3.020   0.940
  213WAT      O  695   3.273   3.088   0.507
  213WAT     H1  696   3.186   3.121   0.487
  213WAT     H2  697   3.262   3.040   0.590
  214WAT      O  698   3.364   3.308   0.646
  214WAT     H1  699   3.331   3.227   0.608
  214WAT     H2  700   3.459   3.304   0.633
  215WAT      O  701   3.048   3.179   0.401
  215WAT     H1  702   2.970   3.227   0.429
  215WAT     H2  703   3.018   3.089   0.390
  216WAT      O  704   2.651   3.164   1.056
  216WAT     H1  705   2.623   3.214   0.980
  216WAT     H2  706   2.690   3.084   1.020
  217WAT      O  707   3.312   3.105   1.114
  217WAT     H1  708   3.300   3.137   1.204
  217WAT     H2  709   3.393   3.146   1.085
  218WAT      O  710   3.202   2.030   3.783
  218WAT     H1  711   3.194   1.939   3.756
  218WAT     H2  712   3.161   2.080   3.712
  219WAT      O  713   3.417   2.648   3.849
  219WAT     H1  714   3.371   2.571   3.882
  219WAT     H2  715   3.499   2.651   3.899
  220WAT      O  716   2.258   1.735   3.437
  220WAT     H1  717   2.169   1.769   3.427
  220WAT     H2  718   2.286   1.715   3.348
  221WAT      O  719   3.040   2.877   3.811
  221WAT     H1  720   2.978   2.923   3.754
  221WAT     H2  721   3.126   2.892   3.771
  222WAT      O  722   2.476   1.593   3.541
  222WAT     H1  723   2.486   1.683   3.571
  222WAT     H2  724   2.384   1.588   3.511
  223WAT      O  725   3.441   1.506   3.688
  223WAT     H1  726   3.523   1.457   3.692
  223WAT     H2  727   3.444   1.565   3.763
  224WAT      O  728   3.127   2.365   3.550
  224WAT     H1  729   3.065   2.412   3.494
  224WAT     H2  730   3.178   2.435   3.592
  225WAT      O  731   2.064   2.434   3.288
  225WAT     H1  732   2.026   2.483   3.215
  225WAT     H2  733   2.089   2.501   3.351
  226WAT      O  734   2.824   1.274   3.834
  226WAT     H1  735   2.855   1.219   3.762
  226WAT     H2  736   2.731   1.288   3.815
  227WAT      O  737   3.509   2.518   3.572
  227WAT     H1  738   3.498   2.424   3.584
  227WAT     H2  739   3.509   2.554   3.660
  228WAT      O  740   3.063   2.081   3.507
  228WAT     H1  741   2.971   2.074   3.530
  228WAT     H2  742   3.078   2.174   3.496
  229WAT      O  743   3.062   1.708   3.207
  229WAT     H1  744   2.968   1.724   3.215
  229WAT     H2  745   3.094   1.780   3.152
  230WAT      O  746   3.466   2.237   3.557
  230WAT     H1  747   3.404   2.203   3.493
  230WAT     H2  748   3.464   2.172   3.628
  231WAT      O  749   2.624   2.133   3.785
  231WAT     H1  750   2.583   2.062   3.736
  231WAT     H2  751   2.632   2.099   3.874
  232WAT      O  752   3.284   2.161   3.258
  232WAT     H1  753   3.328   2.077   3.244
  232WAT     H2  754   3.355   2.224   3.267
  233WAT      O  755   3.095   2.655   3.655
  233WAT     H1  756   3.139   2.729   3.614
  233WAT     H2  757   3.089   2.679   3.747
  234WAT      O  758   3.642   1.286   3.090
  234WAT     H1  759   3.611   1.295   3.180
  234WAT     H2  760   3.718   1.344   3.085
  235WAT      O  761   2.294   2.023   3.535
  235WAT     H1  762   2.282   2.095   3.474
  235WAT     H2  763   2.263   1.946   3.488
  236WAT      O  764   2.182   2.510   3.757
  236WAT     H1  765   2.141   2.524   3.672
  236WAT     H2  766   2.271   2.481   3.737
  237WAT      O  767   3.362   2.953   3.391
  237WAT     H1  768   3.346   2.924   3.480
  237WAT     H2  769   3.345   2.876   3.337
  238WAT      O  770   2.609   2.931   3.568
  238WAT     H1  771   2.592   2.840   3.547
  238WAT     H2  772   2.524   2.967   3.592
  239WAT      O  773   3.332   2.704   3.247
  239WAT     H1  774   3.262   2.704   3.181
  239WAT     H2  775   3.406   2.662   3.204
  240WAT      O  776   3.288   2.867   3.654
  240WAT     H1  777   3.334   2.789   3.686
  240WAT     H2  778   3.322   2.938   3.709
  241WAT      O  779   2.540   1.357   3.874
  241WAT     H1  780   2.496   1.435   3.840
  241WAT     H2  781   2.596   1.389   3.944
  242WAT      O  782   2.852   1.319   3.362
  242WAT     H1  783   2.790   1.319   3.434
  242WAT     H2  784   2.843   1.232   3.322
  243WAT      O  785   2.520   1.869   3.646
  243WAT     H1  786   2.497   1.848   3.737
  243WAT     H2  787   2.442   1.913   3.612
  244WAT      O  788   3.243   1.870   3.506
  244WAT     H1  789   3.183   1.942   3.488
  244WAT     H2  790   3.297   1.864   3.428
  245WAT      O  791   3.103   1.734   3.709
  245WAT     H1  792   3.143   1.765   3.628
  245WAT     H2  793   3.139   1.646   3.721
  246WAT      O  794   2.026   1.787   3.053
  246WAT     H1  795   2.017   1.881   3.067
  246WAT     H2  796   1.990   1.773   2.965
  247WAT      O  797   2.806   1.660   3.959
  247WAT     H1  798   2.806   1.616   3.874
  247WAT     H2  799   2.895   1.692   3.970
  248WAT      O  800   2.391   1.648   3.855
  248WAT     H1  801   2.357   1.696   3.931
  248WAT     H2  802   2.314   1.603   3.819
  249WAT      O  803   2.812   1.760   3.258
  249WAT     H1  804   2.824   1.756   3.353
  249WAT     H2  805   2.773   1.847   3.243
  250WAT      O  806   2.713   1.991   3.198
  250WAT     H1  807   2.656   1.947   3.136
  250WAT     H2  808   2.784   2.027   3.145
  251WAT      O  809   2.122   1.541   3.747
  251WAT     H1  810   2.094   1.504   3.831
  251WAT     H2  811   2.116   1.467   3.686
  252WAT      O  812   2.467   2.391   3.426
  252WAT     H1  813   2.390   2.337   3.410
  252WAT     H2  814   2.540   2.339   3.392
  253WAT      O  815   3.089   1.430   3.419
  253WAT     H1  816   3.008   1.380   3.412
  253WAT     H2  817   3.070   1.514   3.378
  254WAT      O  818   3.361   1.867   3.249
  254WAT     H1  819   3.450   1.898   3.231
  254WAT     H2  820   3.358   1.780   3.210
  255WAT      O  821   2.472   2.358   3.789
  255WAT     H1  822   2.524   2.277   3.784
  255WAT     H2  823   2.427   2.352   3.874
  256WAT      O  824   2.961   2.484   3.317
  256WAT     H1  825   2.995   2.559   3.267
  256WAT     H2  826   2.878   2.516   3.353
  257WAT      O  827   3.588   1.998   3.196
  257WAT     H1  828   3.580   2.041   3.111
  257WAT     H2  829   3.660   2.044   3.239
  258WAT      O  830   3.691   2.684   3.468
  258WAT     H1  831   3.627   2.618   3.496
  258WAT     H2  832   3.652   2.724   3.391
  259WAT      O  833   3.249   2.417   3.853
  259WAT     H1  834   3.284   2.357   3.787
  259WAT     H2  835   3.160   2.384   3.870
  260WAT      O  836   2.857   2.493   3.594
  260WAT     H1  837   2.926   2.547   3.632
  260WAT     H2  838   2.779   2.547   3.597
  261WAT      O  839   2.071   2.054   3.143
  261WAT     H1  840   2.158   2.083   3.171
  261WAT     H2  841   2.022   2.136   3.131
  262WAT      O  842   2.788   2.193   3.555
  262WAT     H1  843   2.833   2.274   3.578
  262WAT     H2  844   2.753   2.161   3.638
  263WAT      O  845   2.378   1.227   3.602
  263WAT     H1  846   2.365   1.227   3.697
  263WAT     H2  847   2.295   1.261   3.567
  264WAT      O  848   3.530   2.573   3.122
  264WAT     H1  849   3.507   2.501   3.181
  264WAT     H2  850   3.491   2.548   3.038
  265WAT      O  851   2.108   2.976   3.200
  265WAT     H1  852   2.144   3.035   3.134
  265WAT     H2  853   2.094   3.030   3.277
  266WAT      O  854   3.488   2.365   3.288
  266WAT     H1  855   3.459   2.411   3.367
  266WAT     H2  856   3.568   2.319   3.315
  267WAT      O  857   2.710   2.714   3.281
  267WAT     H1  858   2.709   2.787   3.220
  267WAT     H2  859   2.618   2.689   3.291
  268WAT      O  860   2.270   2.236   3.356
  268WAT     H1  861   2.209   2.310   3.357
  268WAT     H2  862   2.317   2.245   3.273
  269WAT      O  863   3.564   1.548   3.404
  269WAT     H1  864   3.501   1.559   3.333
  269WAT     H2  865   3.514   1.570   3.483
  270WAT      O  866   3.008   2.720   3.148
  270WAT     H1  867   3.018   2.700   3.055
  270WAT     H2  868   2.918   2.695   3.168
  271WAT      O  869   2.761   1.776   3.546
  271WAT     H1  870   2.690   1.823   3.590
  271WAT     H2  871   2.789   1.710   3.609
  272WAT      O  872   3.164   1.448   3.690
  272WAT     H1  873   3.151   1.450   3.595
  272WAT     H2  874   3.259   1.453   3.702
  273WAT      O  875   2.873   2.972   3.617
  273WAT     H1  876   2.898   2.968   3.525
  273WAT     H2  877   2.778   2.959   3.616
  274WAT      O  878   2.581   1.607   3.283
  274WAT     H1  879   2.666   1.650   3.277
  274WAT     H2  880   2.544   1.638   3.366
  275WAT      O  881   3.473   2.064   3.775
  275WAT     H1  882   3.379   2.065   3.792
  275WAT     H2  883   3.505   1.985   3.819
  276WAT      O  884   2.471   2.232   3.131
  276WAT     H1  885   2.548   2.221   3.187
  276WAT     H2  886   2.479   2.162   3.065
  277WAT      O  887   2.340   1.975   3.199
  277WAT     H1  888   2.348   1.881   3.210
  277WAT     H2  889   2.430   2.008   3.210
  278WAT      O  890   2.420   2.990   3.909
  278WAT     H1  891   2.494   2.935   3.936
  278WAT     H2  892   2.459   3.077   3.895
  279WAT      O  893   2.109   2.597   3.497
  279WAT     H1  894   2.016   2.621   3.496
  279WAT     H2  895   2.156   2.680   3.485
  280WAT      O  896   2.732   2.908   3.092
  280WAT     H1  897   2.811   2.937   3.046
  280WAT     H2  898   2.680   2.865   3.024
  281WAT      O  899   3.637   2.830   3.234
  281WAT     H1  900   3.608   2.789   3.153
  281WAT     H2  901   3.617   2.923   3.222
  282WAT      O  902   2.783   2.430   3.078
  282WAT     H1  903   2.773   2.368   3.151
  282WAT     H2  904   2.767   2.377   3.000
  283WAT      O  905   3.107   2.336   3.138
  283WAT     H1  906   3.052   2.381   3.203
  283WAT     H2  907   3.170   2.285   3.191
  284WAT      O  908   2.674   2.232   3.328
  284WAT     H1  909   2.716   2.215   3.412
  284WAT     H2  910   2.687   2.151   3.279
  285WAT      O  911   2.925   2.134   3.053
  285WAT     H1  912   2.977   2.063   3.016
  285WAT     H2  913   2.990   2.198   3.083
  286WAT      O  914   2.564   1.839   3.023
  286WAT     H1  915   2.544   1.753   3.059
  286WAT     H2  916   2.547   1.830   2.929
  287WAT      O  917   3.312   1.320   3.276
  287WAT     H1  918   3.340   1.236   3.311
  287WAT     H2  919   3.234   1.343   3.327
  288WAT      O  920   2.443   1.549   3.021
  288WAT     H1  921   2.474   1.550   2.931
  288WAT     H2  922   2.517   1.514   3.071
  289WAT      O  923   2.765   1.443   3.120
  289WAT     H1  924   2.731   1.376   3.062
  289WAT     H2  925   2.785   1.397   3.201
  290WAT      O  926   2.982   2.942   3.282
  290WAT     H1  927   3.071   2.976   3.284
  290WAT     H2  928   2.985   2.870   3.219
  291WAT      O  929   2.346   2.480   3.105
  291WAT     H1  930   2.390   2.534   3.170
  291WAT     H2  931   2.394   2.397   3.106
  292WAT      O  932   2.067   2.758   3.850
  292WAT     H1  933   2.100   2.672   3.827
  292WAT     H2  934   2.110   2.779   3.933
  293WAT      O  935   2.527   2.592   3.616
  293WAT     H1  936   2.497   2.579   3.706
  293WAT     H2  937   2.516   2.506   3.575
  294WAT      O  938   2.099   2.096   3.760
  294WAT     H1  939   2.034   2.069   3.695
  294WAT     H2  940   2.183   2.085   3.715
  295WAT      O  941   3.755   2.273   3.052
  295WAT     H1  942   3.782   2.364   3.040
  295WAT     H2  943   3.736   2.267   3.146
  296WAT      O  944   3.394   1.576   3.182
  296WAT     H1  945   3.436   1.557   3.098
  296WAT     H2  946   3.364   1.491   3.213
  297WAT      O  947   3.744   2.067   3.552
  297WAT     H1  948   3.707   1.990   3.508
  297WAT     H2  949   3.671   2.105   3.600
  298WAT      O  950   2.021   1.817   3.354
  298WAT     H1  951   1.930   1.844   3.336
  298WAT     H2  952   2.069   1.844   3.276
  299WAT      O  953   3.672   1.890   3.882
  299WAT     H1  954   3.724   1.840   3.819
  299WAT     H2  955   3.730   1.903   3.956
  300WAT      O  956   2.275   1.723   3.145
  300WAT     H1  957   2.346   1.681   3.096
  300WAT     H2  958   2.203   1.730   3.082
  301WAT      O  959   2.240   1.328   3.049
  301WAT     H1  960   2.312   1.382   3.081
  301WAT     H2  961   2.267   1.301   2.961
  302WAT      O  962   3.621   1.815   3.476
  302WAT     H1  963   3.670   1.792   3.554
  302WAT     H2  964   3.601   1.731   3.434
  303WAT      O  965   3.554   2.943   3.715
  303WAT     H1  966   3.614   2.911   3.647
  303WAT     H2  967   3.580   2.896   3.794
  304WAT      O  968   3.503   1.372   3.961
  304WAT     H1  969   3.547   1.367   3.876
  304WAT     H2  970   3.476   1.464   3.968
  305WAT      O  971   3.689   1.335   3.762
  305WAT     H1  972   3.683   1.241   3.747
  305WAT     H2  973   3.767   1.346   3.816
  306WAT      O  974   2.120   2.949   3.658
  306WAT     H1  975   2.103   2.886   3.728
  306WAT     H2  976   2.033   2.970   3.623
  307WAT      O  977   2.182   1.332   3.408
  307WAT     H1  978   2.258   1.344   3.351
  307WAT     H2  979   2.136   1.416   3.404
  308WAT      O  980   2.836   1.544   3.707
  308WAT     H1  981   2.755   1.506   3.673
  308WAT     H2  982   2.887   1.468   3.737
  309WAT      O  983   3.287   1.210   3.831
  309WAT     H1  984   3.347   1.267   3.879
  309WAT     H2  985   3.213   1.267   3.809
  310WAT      O  986   3.601   1.250   3.359
  310WAT     H1  987   3.620   1.340   3.385
  310WAT     H2  988   3.522   1.227   3.408
  311WAT      O  989   2.281   2.818   3.402
  311WAT     H1  990   2.228   2.857   3.332
  311WAT     H2  991   2.273   2.881   3.475
  312WAT      O  992   2.420   1.385   3.262
  312WAT     H1  993   2.472   1.306   3.249
  312WAT     H2  994   2.483   1.453   3.286
  313WAT      O  995   2.639   1.359   3.568
  313WAT     H1  996   2.576   1.289   3.584
  313WAT     H2  997   2.585   1.435   3.546
  314WAT      O  998   3.756   2.974   3.535
  314WAT     H1  999   3.774   2.906   3.470
  314WAT     H2 1000   3.686   3.027   3.495
  315WAT      O 1001   2.541   3.013   3.290
  315WAT     H1 1002   2.614   2.985   3.235
  315WAT     H2 1003   2.566   2.989   3.379
  316WAT      O 1004   2.457   2.625   3.290
  316WAT     H1 1005   2.394   2.672   3.345
  316WAT     H2 1006   2.468   2.540   3.334
  317WAT      O 1007   3.202   2.030   1.905
  317WAT     H1 1008   3.194   1.939   1.878
  317WAT     H2 1009   3.161   2.080   1.835
  318WAT      O 1010   3.015   2.208   2.094
  318WAT     H1 1011   2.938   2.160   2.122
  318WAT     H2 1012   3.080   2.140   2.076
  319WAT      O 1013   3.417   2.648   1.971
  319WAT     H1 1014   3.371   2.571   2.004
  319WAT     H2 1015   3.499   2.651   2.022
  320WAT      O 1016   2.415   2.642   2.201
  320WAT     H1 1017   2.445   2.553   2.183
  320WAT     H2 1018   2.489   2.698   2.178
  321WAT      O 1019   3.040   2.877   1.934
  321WAT     H1 1020   2.978   2.923   1.876
  321WAT     H2 1021   3.126   2.892   1.893
  322WAT      O 1022   2.959   2.475   2.094
  322WAT     H1 1023   2.953   2.381   2.078
  322WAT     H2 1024   3.036   2.484   2.151
  323WAT      O 1025   2.179   1.536   2.327
  323WAT     H1 1026   2.161   1.446   2.355
  323WAT     H2 1027   2.138   1.591   2.394
  324WAT      O 1028   3.062   1.756   2.117
  324WAT     H1 1029   3.100   1.669   2.106
  324WAT     H2 1030   3.053   1.790   2.028
  325WAT      O 1031   3.441   1.506   1.810
  325WAT     H1 1032   3.523   1.457   1.814
  325WAT     H2 1033   3.444   1.565   1.886
  326WAT      O 1034   2.488   1.354   2.523
  326WAT     H1 1035   2.488   1.406   2.442
  326WAT     H2 1036   2.405   1.306   2.521
  327WAT      O 1037   3.127   2.365   1.673
  327WAT     H1 1038   3.065   2.412   1.616
  327WAT     H2 1039   3.178   2.435   1.715
  328WAT      O 1040   2.613   2.318   2.341
  328WAT     H1 1041   2.580   2.381   2.405
  328WAT     H2 1042   2.631   2.371   2.263
  329WAT      O 1043   3.464   1.700   2.087
  329WAT     H1 1044   3.394   1.728   2.145
  329WAT     H2 1045   3.500   1.781   2.051
  330WAT      O 1046   2.456   1.525   2.324
  330WAT     H1 1047   2.490   1.610   2.294
  330WAT     H2 1048   2.362   1.540   2.335
  331WAT      O 1049   2.534   2.515   2.522
  331WAT     H1 1050   2.596   2.582   2.494
  331WAT     H2 1051   2.448   2.556   2.513
  332WAT      O 1052   2.064   2.434   1.410
  332WAT     H1 1053   2.026   2.483   1.337
  332WAT     H2 1054   2.089   2.501   1.473
  333WAT      O 1055   3.626   2.661   2.314
  333WAT     H1 1056   3.558   2.728   2.313
  333WAT     H2 1057   3.680   2.681   2.237
  334WAT      O 1058   3.771   1.644   2.127
  334WAT     H1 1059   3.676   1.647   2.140
  334WAT     H2 1060   3.804   1.725   2.165
  335WAT      O 1061   2.824   1.274   1.956
  335WAT     H1 1062   2.855   1.219   1.884
  335WAT     H2 1063   2.731   1.288   1.938
  336WAT      O 1064   3.380   2.846   2.185
  336WAT     H1 1065   3.381   2.805   2.098
  336WAT     H2 1066   3.324   2.923   2.175
  337WAT      O 1067   3.509   2.518   1.694
  337WAT     H1 1068   3.498   2.424   1.707
  337WAT     H2 1069   3.509   2.554   1.783
  338WAT      O 1070   3.319   2.336   2.318
  338WAT     H1 1071   3.361   2.315   2.235
  338WAT     H2 1072   3.392   2.362   2.375
  339WAT      O 1073   3.063   2.081   1.630
  339WAT     H1 1074   2.971   2.074   1.653
  339WAT     H2 1075   3.078   2.174   1.618
  340WAT      O 1076   3.062   1.708   1.329
  340WAT     H1 1077   2.968   1.724   1.338
  340WAT     H2 1078   3.094   1.780   1.275
  341WAT      O 1079   3.714   2.176   2.327
  341WAT     H1 1080   3.631   2.183   2.280
  341WAT     H2 1081   3.774   2.234   2.280
  342WAT      O 1082   3.466   2.237   1.680
  342WAT     H1 1083   3.404   2.203   1.615
  342WAT     H2 1084   3.464   2.172   1.751
  343WAT      O 1085   3.410   1.855   2.422
  343WAT     H1 1086   3.369   1.937   2.447
  343WAT     H2 1087   3.337   1.796   2.402
  344WAT      O 1088   2.671   2.502   2.124
  344WAT     H1 1089   2.641   2.441   2.056
  344WAT     H2 1090   2.766   2.506   2.113
  345WAT      O 1091   3.479   2.859   2.491
  345WAT     H1 1092   3.432   2.940   2.471
  345WAT     H2 1093   3.411   2.794   2.506
  346WAT      O 1094   2.580   2.476   2.789
  346WAT     H1 1095   2.490   2.498   2.814
  346WAT     H2 1096   2.582   2.488   2.694
  347WAT      O 1097   3.284   2.161   1.381
  347WAT     H1 1098   3.328   2.077   1.366
  347WAT     H2 1099   3.355   2.224   1.389
  348WAT      O 1100   2.463   2.163   2.647
  348WAT     H1 1101   2.449   2.250   2.684
  348WAT     H2 1102   2.374   2.129   2.632
  349WAT      O 1103   3.095   2.655   1.778
  349WAT     H1 1104   3.139   2.729   1.736
  349WAT     H2 1105   3.089   2.679   1.870
  350WAT      O 1106   2.642   2.757   2.868
  350WAT     H1 1107   2.639   2.797   2.781
  350WAT     H2 1108   2.626   2.664   2.852
  351WAT      O 1109   3.642   1.286   1.212
  351WAT     H1 1110   3.611   1.295   1.302
  351WAT     H2 1111   3.718   1.344   1.207
  352WAT      O 1112   2.182   2.510   1.880
  352WAT     H1 1113   2.141   2.524   1.794
  352WAT     H2 1114   2.271   2.481   1.859
  353WAT      O 1115   3.778   2.554   2.713
  353WAT     H1 1116   3.790   2.531   2.622
  353WAT     H2 1117   3.782   2.471   2.761
  354WAT      O 1118   3.164   2.925   2.570
  354WAT     H1 1119   3.215   2.916   2.651
  354WAT     H2 1120   3.080   2.959   2.600
  355WAT      O 1121   3.362   2.953   1.513
  355WAT     H1 1122   3.346   2.924   1.603
  355WAT     H2 1123   3.345   2.876   1.460
  356WAT      O 1124   2.609   2.931   1.691
  356WAT     H1 1125   2.592   2.840   1.670
  356WAT     H2 1126   2.524   2.967   1.715
  357WAT      O 1127   3.332   2.704   1.369
  357WAT     H1 1128   3.262   2.704   1.303
  357WAT     H2 1129   3.406   2.662   1.326
  358WAT      O 1130   3.288   2.867   1.777
  358WAT     H1 1131   3.334   2.789   1.808
  358WAT     H2 1132   3.322   2.938   1.831
  359WAT      O 1133   3.763   1.760   2.810
  359WAT     H1 1134   3.701   1.811   2.757
  359WAT     H2 1135   3.731   1.670   2.804
  360WAT      O 1136   2.540   1.357   1.996
  360WAT     H1 1137   2.496   1.435   1.963
  360WAT     H2 1138   2.596   1.389   2.067
  361WAT      O 1139   2.969   1.644   2.557
  361WAT     H1 1140   2.923   1.665   2.638
  361WAT     H2 1141   2.929   1.562   2.526
  362WAT      O 1142   3.469   1.766   2.670
  362WAT     H1 1143   3.384   1.736   2.702
  362WAT     H2 1144   3.453   1.790   2.578
  363WAT      O 1145   3.179   1.916   2.880
  363WAT     H1 1146   3.211   1.832   2.846
  363WAT     H2 1147   3.258   1.968   2.894
  364WAT      O 1148   2.852   1.319   1.484
  364WAT     H1 1149   2.790   1.319   1.557
  364WAT     H2 1150   2.843   1.232   1.445
  365WAT      O 1151   2.744   1.411   2.182
  365WAT     H1 1152   2.774   1.502   2.174
  365WAT     H2 1153   2.799   1.363   2.121
  366WAT      O 1154   3.243   1.870   1.629
  366WAT     H1 1155   3.183   1.942   1.611
  366WAT     H2 1156   3.297   1.864   1.551
  367WAT      O 1157   2.764   1.959   2.836
  367WAT     H1 1158   2.754   1.865   2.821
  367WAT     H2 1159   2.848   1.981   2.796
  368WAT      O 1160   3.103   1.734   1.832
  368WAT     H1 1161   3.143   1.765   1.751
  368WAT     H2 1162   3.139   1.646   1.843
  369WAT      O 1163   2.277   1.600   2.651
  369WAT     H1 1164   2.237   1.685   2.672
  369WAT     H2 1165   2.208   1.537   2.670
  370WAT      O 1166   2.934   1.609   2.958
  370WAT     H1 1167   2.865   1.589   3.021
  370WAT     H2 1168   3.008   1.637   3.011
  371WAT      O 1169   2.007   1.393   2.054
  371WAT     H1 1170   1.978   1.450   2.126
  371WAT     H2 1171   2.081   1.345   2.091
  372WAT      O 1172   2.026   1.787   1.175
  372WAT     H1 1173   2.017   1.881   1.189
  372WAT     H2 1174   1.990   1.773   1.087
  373WAT      O 1175   3.162   1.993   2.241
  373WAT     H1 1176   3.089   2.044   2.276
  373WAT     H2 1177   3.122   1.911   2.211
  374WAT      O 1178   2.806   1.660   2.082
  374WAT     H1 1179   2.806   1.616   1.997
  374WAT     H2 1180   2.895   1.692   2.093
  375WAT      O 1181   2.812   1.760   1.381
  375WAT     H1 1182   2.824   1.756   1.476
  375WAT     H2 1183   2.773   1.847   1.366
  376WAT      O 1184   3.208   1.538   2.183
  376WAT     H1 1185   3.210   1.583   2.267
  376WAT     H2 1186   3.183   1.448   2.204
  377WAT      O 1187   2.713   1.991   1.321
  377WAT     H1 1188   2.656   1.947   1.258
  377WAT     H2 1189   2.784   2.027   1.268
  378WAT      O 1190   3.551   1.279   2.767
  378WAT     H1 1191   3.583   1.206   2.819
  378WAT     H2 1192   3.554   1.247   2.676
  379WAT      O 1193   2.221   2.381   2.709
  379WAT     H1 1194   2.182   2.317   2.768
  379WAT     H2 1195   2.252   2.452   2.766
  380WAT      O 1196   2.836   2.066   2.257
  380WAT     H1 1197   2.872   2.019   2.331
  380WAT     H2 1198   2.817   2.154   2.291
  381WAT      O 1199   2.615   1.970   2.488
  381WAT     H1 1200   2.584   2.058   2.511
  381WAT     H2 1201   2.710   1.976   2.492
  382WAT      O 1202   2.467   2.391   1.548
  382WAT     H1 1203   2.390   2.337   1.532
  382WAT     H2 1204   2.540   2.339   1.514
  383WAT      O 1205   3.543   2.291   2.127
  383WAT     H1 1206   3.615   2.340   2.088
  383WAT     H2 1207   3.523   2.223   2.063
  384WAT      O 1208   3.089   1.430   1.542
  384WAT     H1 1209   3.008   1.380   1.534
  384WAT     H2 1210   3.070   1.514   1.500
  385WAT      O 1211   3.082   2.298   2.716
  385WAT     H1 1212   3.075   2.206   2.691
  385WAT     H2 1213   3.019   2.307   2.788
  386WAT      O 1214   3.361   1.867   1.371
  386WAT     H1 1215   3.450   1.898   1.354
  386WAT     H2 1216   3.358   1.780   1.332
  387WAT      O 1217   2.961   2.484   1.439
  387WAT     H1 1218   2.995   2.559   1.390
  387WAT     H2 1219   2.878   2.516   1.475
  388WAT      O 1220   2.220   2.054   2.603
  388WAT     H1 1221   2.184   2.121   2.662
  388WAT     H2 1222   2.191   1.971   2.640
  389WAT      O 1223   2.540   2.100   2.892
  389WAT     H1 1224   2.510   2.115   2.802
  389WAT     H2 1225   2.618   2.044   2.882
  390WAT      O 1226   3.075   2.580   2.691
  390WAT     H1 1227   3.076   2.487   2.669
  390WAT     H2 1228   3.004   2.588   2.755
  391WAT      O 1229   3.588   1.998   1.318
  391WAT     H1 1230   3.580   2.041   1.233
  391WAT     H2 1231   3.660   2.044   1.361
  392WAT      O 1232   3.696   2.244   2.626
  392WAT     H1 1233   3.623   2.303   2.606
  392WAT     H2 1234   3.749   2.243   2.546
  393WAT      O 1235   3.691   2.684   1.591
  393WAT     H1 1236   3.627   2.618   1.618
  393WAT     H2 1237   3.652   2.724   1.513
  394WAT      O 1238   3.249   2.417   1.976
  394WAT     H1 1239   3.284   2.357   1.910
  394WAT     H2 1240   3.160   2.384   1.993
  395WAT      O 1241   2.857   2.493   1.716
  395WAT     H1 1242   2.926   2.547   1.754
  395WAT     H2 1243   2.779   2.547   1.720
  396WAT      O 1244   2.788   2.193   1.678
  396WAT     H1 1245   2.833   2.274   1.700
  396WAT     H2 1246   2.753   2.161   1.761
  397WAT      O 1247   3.018   2.744   2.401
  397WAT     H1 1248   3.082   2.765   2.468
  397WAT     H2 1249   3.054   2.668   2.355
  398WAT      O 1250   3.145   2.544   2.272
  398WAT     H1 1251   3.210   2.474   2.284
  398WAT     H2 1252   3.198   2.622   2.254
  399WAT      O 1253   3.530   2.573   1.245
  399WAT     H1 1254   3.507   2.501   1.304
  399WAT     H2 1255   3.491   2.548   1.161
  400WAT      O 1256   3.323   2.624   2.593
  400WAT     H1 1257   3.356   2.683   2.660
  400WAT     H2 1258   3.231   2.611   2.616
  401WAT      O 1259   2.108   2.976   1.322
  401WAT     H1 1260   2.144   3.035   1.257
  401WAT     H2 1261   2.094   3.030   1.400
  402WAT      O 1262   2.078   1.403   2.671
  402WAT     H1 1263   2.006   1.423   2.731
  402WAT     H2 1264   2.120   1.326   2.708
  403WAT      O 1265   3.488   2.365   1.411
  403WAT     H1 1266   3.459   2.411   1.490
  403WAT     H2 1267   3.568   2.319   1.438
  404WAT      O 1268   2.106   2.802   2.770
  404WAT     H1 1269   2.117   2.708   2.756
  404WAT     H2 1270   2.041   2.829   2.705
  405WAT      O 1271   2.906   2.629   2.910
  405WAT     H1 1272   2.874   2.557   2.964
  405WAT     H2 1273   2.838   2.697   2.917
  406WAT      O 1274   2.710   2.714   1.404
  406WAT     H1 1275   2.709   2.787   1.342
  406WAT     H2 1276   2.618   2.689   1.413
  407WAT      O 1277   3.227   1.653   2.446
  407WAT     H1 1278   3.264   1.570   2.479
  407WAT     H2 1279   3.141   1.659   2.487
  408WAT      O 1280   3.564   1.548   1.527
  408WAT     H1 1281   3.501   1.559   1.455
  408WAT     H2 1282   3.514   1.570   1.606
  409WAT      O 1283   3.008   2.720   1.270
  409WAT     H1 1284   3.018   2.700   1.177
  409WAT     H2 1285   2.918   2.695   1.291
  410WAT      O 1286   2.761   1.776   1.668
  410WAT     H1 1287   2.690   1.823   1.713
  410WAT     H2 1288   2.789   1.710   1.732
  411WAT      O 1289   2.923   1.918   2.468
  411WAT     H1 1290   2.973   1.965   2.535
  411WAT     H2 1291   2.937   1.826   2.489
  412WAT      O 1292   3.164   1.448   1.812
  412WAT     H1 1293   3.151   1.450   1.717
  412WAT     H2 1294   3.259   1.453   1.824
  413WAT      O 1295   2.873   2.972   1.740
  413WAT     H1 1296   2.898   2.968   1.647
  413WAT     H2 1297   2.778   2.959   1.739
  414WAT      O 1298   2.581   1.607   1.406
  414WAT     H1 1299   2.666   1.650   1.399
  414WAT     H2 1300   2.544   1.638   1.489
  415WAT      O 1301   3.644   1.540   2.553
  415WAT     H1 1302   3.594   1.614   2.587
  415WAT     H2 1303   3.725   1.578   2.521
  416WAT      O 1304   3.473   2.064   1.897
  416WAT     H1 1305   3.379   2.065   1.915
  416WAT     H2 1306   3.505   1.985   1.942
  417WAT      O 1307   2.471   2.232   1.253
  417WAT     H1 1308   2.548   2.221   1.310
  417WAT     H2 1309   2.479   2.162   1.188
  418WAT      O 1310   3.673   2.781   2.065
  418WAT     H1 1311   3.686   2.863   2.112
  418WAT     H2 1312   3.760   2.760   2.030
  419WAT      O 1313   2.420   2.990   2.032
  419WAT     H1 1314   2.494   2.935   2.059
  419WAT     H2 1315   2.459   3.077   2.018
  420WAT      O 1316   2.109   2.597   1.619
  420WAT     H1 1317   2.016   2.621   1.618
  420WAT     H2 1318   2.156   2.680   1.607
  421WAT      O 1319   2.321   2.909   2.951
  421WAT     H1 1320   2.401   2.941   2.992
  421WAT     H2 1321   2.270   2.873   3.023
  422WAT      O 1322   2.732   2.908   1.214
  422WAT     H1 1323   2.811   2.937   1.169
  422WAT     H2 1324   2.680   2.865   1.146
  423WAT      O 1325   3.205   2.520   2.946
  423WAT     H1 1326   3.144   2.522   2.871
  423WAT     H2 1327   3.174   2.446   2.999
  424WAT      O 1328   3.348   2.892   2.807
  424WAT     H1 1329   3.443   2.884   2.802
  424WAT     H2 1330   3.333   2.959   2.874
  425WAT      O 1331   3.637   2.830   1.357
  425WAT     H1 1332   3.608   2.789   1.275
  425WAT     H2 1333   3.617   2.923   1.345
  426WAT      O 1334   2.093   2.158   2.845
  426WAT     H1 1335   2.143   2.100   2.902
  426WAT     H2 1336   2.019   2.186   2.899
  427WAT      O 1337   2.783   2.430   1.201
  427WAT     H1 1338   2.773   2.368   1.273
  427WAT     H2 1339   2.767   2.377   1.122
  428WAT      O 1340   2.798   2.298   2.799
  428WAT     H1 1341   2.722   2.355   2.790
  428WAT     H2 1342   2.817   2.269   2.709
  429WAT      O 1343   3.107   2.336   1.261
  429WAT     H1 1344   3.052   2.381   1.325
  429WAT     H2 1345   3.170   2.285   1.313
  430WAT      O 1346   3.513   2.471   2.854
  430WAT     H1 1347   3.587   2.505   2.804
  430WAT     H2 1348   3.436   2.488   2.799
  431WAT      O 1349   2.296   1.972   2.935
  431WAT     H1 1350   2.300   1.942   3.026
  431WAT     H2 1351   2.382   2.012   2.919
  432WAT      O 1352   2.674   2.232   1.451
  432WAT     H1 1353   2.716   2.215   1.535
  432WAT     H2 1354   2.687   2.151   1.401
  433WAT      O 1355   2.490   1.830   2.731
  433WAT     H1 1356   2.437   1.781   2.669
  433WAT     H2 1357   2.557   1.873   2.678
  434WAT      O 1358   2.925   2.134   1.175
  434WAT     H1 1359   2.977   2.063   1.139
  434WAT     H2 1360   2.990   2.198   1.205
  435WAT      O 1361   3.380   2.276   2.708
  435WAT     H1 1362   3.422   2.292   2.793
  435WAT     H2 1363   3.287   2.289   2.724
  436WAT      O 1364   3.427   2.010   2.908
  436WAT     H1 1365   3.486   1.935   2.899
  436WAT     H2 1366   3.445   2.063   2.831
  437WAT      O 1367   2.539   1.526   2.739
  437WAT     H1 1368   2.530   1.465   2.667
  437WAT     H2 1369   2.481   1.599   2.717
  438WAT      O 1370   2.816   1.382   2.443
  438WAT     H1 1371   2.771   1.384   2.358
  438WAT     H2 1372   2.752   1.342   2.502
  439WAT      O 1373   2.856   2.272   2.505
  439WAT     H1 1374   2.898   2.356   2.488
  439WAT     H2 1375   2.764   2.285   2.482
  440WAT      O 1376   3.090   2.045   2.643
  440WAT     H1 1377   3.102   1.985   2.717
  440WAT     H2 1378   3.176   2.048   2.601
  441WAT      O 1379   3.324   2.100   2.501
  441WAT     H1 1380   3.271   2.153   2.440
  441WAT     H2 1381   3.358   2.163   2.564
  442WAT      O 1382   2.564   1.839   1.145
  442WAT     H1 1383   2.544   1.753   1.181
  442WAT     H2 1384   2.547   1.830   1.051
  443WAT      O 1385   2.641   2.902   2.616
  443WAT     H1 1386   2.588   2.975   2.584
  443WAT     H2 1387   2.667   2.854   2.537
  444WAT      O 1388   2.767   1.699   2.769
  444WAT     H1 1389   2.826   1.668   2.838
  444WAT     H2 1390   2.685   1.652   2.785
  445WAT      O 1391   3.249   1.661   2.792
  445WAT     H1 1392   3.180   1.594   2.786
  445WAT     H2 1393   3.321   1.616   2.837
  446WAT      O 1394   3.312   1.320   1.398
  446WAT     H1 1395   3.340   1.236   1.434
  446WAT     H2 1396   3.234   1.343   1.450
  447WAT      O 1397   2.443   1.549   1.144
  447WAT     H1 1398   2.474   1.550   1.053
  447WAT     H2 1399   2.517   1.514   1.194
  448WAT      O 1400   2.927   3.026   2.642
  448WAT     H1 1401   2.920   3.116   2.673
  448WAT     H2 1402   2.837   2.994   2.639
  449WAT      O 1403   2.765   1.443   1.243
  449WAT     H1 1404   2.731   1.376   1.185
  449WAT     H2 1405   2.785   1.397   1.324
  450WAT      O 1406   2.982   2.942   1.404
  450WAT     H1 1407   3.071   2.976   1.407
  450WAT     H2 1408   2.985   2.870   1.342
  451WAT      O 1409   2.346   2.480   1.227
  451WAT     H1 1410   2.390   2.534   1.293
  451WAT     H2 1411   2.394   2.397   1.228
  452WAT      O 1412   2.067   2.758   1.973
  452WAT     H1 1413   2.100   2.672   1.949
  452WAT     H2 1414   2.110   2.779   2.056
  453WAT      O 1415   2.527   2.592   1.739
  453WAT     H1 1416   2.497   2.579   1.829
  453WAT     H2 1417   2.516   2.506   1.698
  454WAT      O 1418   2.116   2.845   2.246
  454WAT     H1 1419   2.072   2.863   2.330
  454WAT     H2 1420   2.173   2.921   2.232
  455WAT      O 1421   3.680   2.795   2.675
  455WAT     H1 1422   3.620   2.801   2.601
  455WAT     H2 1423   3.693   2.701   2.688
  456WAT      O 1424   3.548   2.468   2.485
  456WAT     H1 1425   3.467   2.511   2.511
  456WAT     H2 1426   3.589   2.529   2.424
  457WAT      O 1427   3.755   2.273   1.175
  457WAT     H1 1428   3.782   2.364   1.162
  457WAT     H2 1429   3.736   2.267   1.269
  458WAT      O 1430   3.394   1.576   1.304
  458WAT     H1 1431   3.436   1.557   1.220
  458WAT     H2 1432   3.364   1.491   1.335
  459WAT      O 1433   3.744   2.067   1.674
  459WAT     H1 1434   3.707   1.990   1.631
  459WAT     H2 1435   3.671   2.105   1.723
  460WAT      O 1436   3.683   1.982   2.638
  460WAT     H1 1437   3.660   1.959   2.548
  460WAT     H2 1438   3.709   2.074   2.633
  461WAT      O 1439   2.158   1.826   2.727
  461WAT     H1 1440   2.069   1.823   2.761
  461WAT     H2 1441   2.212   1.846   2.803
  462WAT      O 1442   3.527   1.504   2.915
  462WAT     H1 1443   3.615   1.505   2.954
  462WAT     H2 1444   3.528   1.431   2.854
  463WAT      O 1445   3.672   1.890   2.004
  463WAT     H1 1446   3.724   1.840   1.941
  463WAT     H2 1447   3.730   1.903   2.079
  464WAT      O 1448   3.690   1.898   2.356
  464WAT     H1 1449   3.595   1.895   2.368
  464WAT     H2 1450   3.708   1.989   2.333
  465WAT      O 1451   2.240   1.328   1.171
  465WAT     H1 1452   2.312   1.382   1.203
  465WAT     H2 1453   2.267   1.301   1.084
  466WAT      O 1454   3.621   1.815   1.598
  466WAT     H1 1455   3.670   1.792   1.677
  466WAT     H2 1456   3.601   1.731   1.557
  467WAT      O 1457   2.209   1.253   2.162
  467WAT     H1 1458   2.273   1.198   2.118
  467WAT     H2 1459   2.251   1.279   2.244
  468WAT      O 1460   3.598   1.273   2.497
  468WAT     H1 1461   3.662   1.334   2.534
  468WAT     H2 1462   3.613   1.276   2.403
  469WAT      O 1463   3.554   2.943   1.838
  469WAT     H1 1464   3.614   2.911   1.770
  469WAT     H2 1465   3.580   2.896   1.917
  470WAT      O 1466   2.184   1.269   2.436
  470WAT     H1 1467   2.149   1.315   2.513
  470WAT     H2 1468   2.151   1.180   2.444
  471WAT      O 1469   2.345   2.586   2.852
  471WAT     H1 1470   2.340   2.549   2.941
  471WAT     H2 1471   2.358   2.680   2.867
  472WAT      O 1472   2.715   2.742   2.413
  472WAT     H1 1473   2.691   2.769   2.324
  472WAT     H2 1474   2.809   2.759   2.418
  473WAT      O 1475   2.935   1.388   2.788
  473WAT     H1 1476   2.929   1.447   2.863
  473WAT     H2 1477   3.029   1.377   2.774
  474WAT      O 1478   3.199   1.354   2.752
  474WAT     H1 1479   3.260   1.386   2.686
  474WAT     H2 1480   3.254   1.305   2.814
  475WAT      O 1481   2.251   1.222   2.763
  475WAT     H1 1482   2.306   1.204   2.687
  475WAT     H2 1483   2.258   1.143   2.817
  476WAT      O 1484   2.329   2.881   2.564
  476WAT     H1 1485   2.269   2.868   2.638
  476WAT     H2 1486   2.328   2.797   2.518
  477WAT      O 1487   3.273   1.210   2.385
  477WAT     H1 1488   3.186   1.243   2.364
  477WAT     H2 1489   3.262   1.163   2.467
  478WAT      O 1490   3.364   1.431   2.523
  478WAT     H1 1491   3.331   1.349   2.485
  478WAT     H2 1492   3.459   1.427   2.511
  479WAT      O 1493   3.609   3.008   2.221
  479WAT     H1 1494   3.563   3.083   2.183
  479WAT     H2 1495   3.546   2.936   2.215
  480WAT      O 1496   2.292   2.617   2.460
  480WAT     H1 1497   2.219   2.555   2.453
  480WAT     H2 1498   2.298   2.657   2.373
  481WAT      O 1499   2.652   2.839   2.138
  481WAT     H1 1500   2.704   2.778   2.086
  481WAT     H2 1501   2.717   2.889   2.187
  482WAT      O 1502   2.926   2.928   2.221
  482WAT     H1 1503   2.955   2.902   2.133
  482WAT     H2 1504   2.977   2.873   2.280
  483WAT      O 1505   3.048   1.302   2.279
  483WAT     H1 1506   2.970   1.349   2.307
  483WAT     H2 1507   3.018   1.211   2.268
  484WAT      O 1508   3.503   1.372   2.083
  484WAT     H1 1509   3.547   1.367   1.998
  484WAT     H2 1510   3.476   1.464   2.090
  485WAT      O 1511   3.689   1.335   1.884
  485WAT     H1 1512   3.683   1.241   1.870
  485WAT     H2 1513   3.767   1.346   1.939
  486WAT      O 1514   2.120   2.949   1.781
  486WAT     H1 1515   2.103   2.886   1.850
  486WAT     H2 1516   2.033   2.970   1.745
  487WAT      O 1517   2.836   1.544   1.830
  487WAT     H1 1518   2.755   1.506   1.796
  487WAT     H2 1519   2.887   1.468   1.860
  488WAT      O 1520   3.287   1.210   1.954
  488WAT     H1 1521   3.347   1.267   2.001
  488WAT     H2 1522   3.213   1.267   1.931
  489WAT      O 1523   3.601   1.250   1.481
  489WAT     H1 1524   3.620   1.340   1.508
  489WAT     H2 1525   3.522   1.227   1.530
  490WAT      O 1526   2.281   2.818   1.525
  490WAT     H1 1527   2.228   2.857   1.455
  490WAT     H2 1528   2.273   2.881   1.597
  491WAT      O 1529   2.420   1.385   1.385
  491WAT     H1 1530   2.472   1.306   1.372
  491WAT     H2 1531   2.483   1.453   1.408
  492WAT      O 1532   2.639   1.359   1.690
  492WAT     H1 1533   2.576   1.289   1.707
  492WAT     H2 1534   2.585   1.435   1.669
  493WAT      O 1535   2.933   3.020   2.957
  493WAT     H1 1536   3.025   2.997   2.962
  493WAT     H2 1537   2.931   3.103   2.909
  494WAT      O 1538   3.756   2.974   1.657
  494WAT     H1 1539   3.774   2.906   1.593
  494WAT     H2 1540   3.686   3.027   1.618
  495WAT      O 1541   2.651   1.287   2.934
  495WAT     H1 1542   2.623   1.337   2.857
  495WAT     H2 1543   2.690   1.207   2.897
  496WAT      O 1544   2.541   3.013   1.413
  496WAT     H1 1545   2.614   2.985   1.358
  496WAT     H2 1546   2.566   2.989   1.501
  497WAT      O 1547   2.457   2.625   1.413
  497WAT     H1 1548   2.394   2.672   1.468
  497WAT     H2 1549   2.468   2.540   1.456
  498WAT      O 1550   3.312   1.228   2.992
  498WAT     H1 1551   3.300   1.260   3.081
  498WAT     H2 1552   3.393   1.268   2.962
  499WAT      O 1553   3.590   2.943   2.940
  499WAT     H1 1554   3.669   2.893   2.919
  499WAT     H2 1555   3.619   3.011   3.001
  500WAT      O 1556   3.015   2.208   0.216
  500WAT     H1 1557   2.938   2.160   0.245
  500WAT     H2 1558   3.080   2.140   0.199
  501WAT      O 1559   2.417   2.239   0.304
  501WAT     H1 1560   2.334   2.213   0.344
  501WAT     H2 1561   2.478   2.246   0.377
  502WAT      O 1562   2.415   2.642   0.323
  502WAT     H1 1563   2.445   2.553   0.306
  502WAT     H2 1564   2.489   2.698   0.301
  503WAT      O 1565   2.054   1.995   0.271
  503WAT     H1 1566   2.111   1.918   0.271
  503WAT     H2 1567   2.054   2.025   0.180
  504WAT      O 1568   2.959   2.475   0.217
  504WAT     H1 1569   2.953   2.381   0.201
  504WAT     H2 1570   3.036   2.484   0.274
  505WAT      O 1571   2.179   1.536   0.449
  505WAT     H1 1572   2.161   1.446   0.477
  505WAT     H2 1573   2.138   1.591   0.517
  506WAT      O 1574   3.062   1.756   0.239
  506WAT     H1 1575   3.100   1.669   0.228
  506WAT     H2 1576   3.053   1.790   0.150
  507WAT      O 1577   2.240   1.785   0.310
  507WAT     H1 1578   2.308   1.812   0.372
  507WAT     H2 1579   2.209   1.702   0.344
  508WAT      O 1580   2.660   1.890   0.219
  508WAT     H1 1581   2.710   1.940   0.283
  508WAT     H2 1582   2.713   1.813   0.201
  509WAT      O 1583   2.488   1.354   0.646
  509WAT     H1 1584   2.488   1.406   0.565
  509WAT     H2 1585   2.405   1.306   0.643
  510WAT      O 1586   2.613   2.318   0.463
  510WAT     H1 1587   2.580   2.381   0.527
  510WAT     H2 1588   2.631   2.371   0.385
  511WAT      O 1589   3.464   1.700   0.210
  511WAT     H1 1590   3.394   1.728   0.268
  511WAT     H2 1591   3.500   1.781   0.174
  512WAT      O 1592   2.456   1.525   0.446
  512WAT     H1 1593   2.490   1.610   0.417
  512WAT     H2 1594   2.362   1.540   0.458
  513WAT      O 1595   2.534   2.515   0.645
  513WAT     H1 1596   2.596   2.582   0.617
  513WAT     H2 1597   2.448   2.556   0.636
  514WAT      O 1598   3.626   2.661   0.436
  514WAT     H1 1599   3.558   2.728   0.435
  514WAT     H2 1600   3.680   2.681   0.360
  515WAT      O 1601   3.771   1.644   0.249
  515WAT     H1 1602   3.676   1.647   0.262
  515WAT     H2 1603   3.804   1.725   0.288
  516WAT      O 1604   3.380   2.846   0.308
  516WAT     H1 1605   3.381   2.805   0.221
  516WAT     H2 1606   3.324   2.923   0.297
  517WAT      O 1607   3.319   2.336   0.441
  517WAT     H1 1608   3.361   2.315   0.357
  517WAT     H2 1609   3.392   2.362   0.498
  518WAT      O 1610   3.714   2.176   0.450
  518WAT     H1 1611   3.631   2.183   0.402
  518WAT     H2 1612   3.774   2.234   0.403
  519WAT      O 1613   3.410   1.855   0.544
  519WAT     H1 1614   3.369   1.937   0.570
  519WAT     H2 1615   3.337   1.796   0.525
  520WAT      O 1616   2.671   2.502   0.247
  520WAT     H1 1617   2.641   2.441   0.179
  520WAT     H2 1618   2.766   2.506   0.236
  521WAT      O 1619   2.495   1.811   0.408
  521WAT     H1 1620   2.550   1.822   0.331
  521WAT     H2 1621   2.547   1.848   0.480
  522WAT      O 1622   3.479   2.859   0.613
  522WAT     H1 1623   3.432   2.940   0.594
  522WAT     H2 1624   3.411   2.794   0.628
  523WAT      O 1625   2.580   2.476   0.912
  523WAT     H1 1626   2.490   2.498   0.937
  523WAT     H2 1627   2.582   2.488   0.817
  524WAT      O 1628   2.463   2.163   0.770
  524WAT     H1 1629   2.449   2.250   0.806
  524WAT     H2 1630   2.374   2.129   0.755
  525WAT      O 1631   2.642   2.757   0.990
  525WAT     H1 1632   2.639   2.797   0.904
  525WAT     H2 1633   2.626   2.664   0.974
  526WAT      O 1634   2.058   2.340   0.361
  526WAT     H1 1635   2.065   2.353   0.267
  526WAT     H2 1636   2.119   2.269   0.381
  527WAT      O 1637   3.778   2.554   0.836
  527WAT     H1 1638   3.790   2.531   0.744
  527WAT     H2 1639   3.782   2.471   0.883
  528WAT      O 1640   3.164   2.925   0.693
  528WAT     H1 1641   3.215   2.916   0.773
  528WAT     H2 1642   3.080   2.959   0.722
  529WAT      O 1643   3.763   1.760   0.933
  529WAT     H1 1644   3.701   1.811   0.880
  529WAT     H2 1645   3.731   1.670   0.927
  530WAT      O 1646   2.063   2.444   0.615
  530WAT     H1 1647   2.080   2.397   0.533
  530WAT     H2 1648   2.110   2.393   0.682
  531WAT      O 1649   2.969   1.644   0.679
  531WAT     H1 1650   2.923   1.665   0.760
  531WAT     H2 1651   2.929   1.562   0.649
  532WAT      O 1652   3.469   1.766   0.792
  532WAT     H1 1653   3.384   1.736   0.824
  532WAT     H2 1654   3.453   1.790   0.701
  533WAT      O 1655   3.179   1.916   1.002
  533WAT     H1 1656   3.211   1.832   0.968
  533WAT     H2 1657   3.258   1.968   1.017
  534WAT      O 1658   2.744   1.411   0.305
  534WAT     H1 1659   2.774   1.502   0.297
  534WAT     H2 1660   2.799   1.363   0.243
  535WAT      O 1661   2.764   1.959   0.958
  535WAT     H1 1662   2.754   1.865   0.943
  535WAT     H2 1663   2.848   1.981   0.919
  536WAT      O 1664   2.277   1.600   0.774
  536WAT     H1 1665   2.237   1.685   0.794
  536WAT     H2 1666   2.208   1.537   0.793
  537WAT      O 1667   2.934   1.609   1.080
  537WAT     H1 1668   2.865   1.589   1.144
  537WAT     H2 1669   3.008   1.637   1.134
  538WAT      O 1670   2.007   1.393   0.177
  538WAT     H1 1671   1.978   1.450   0.248
  538WAT     H2 1672   2.081   1.345   0.213
  539WAT      O 1673   3.162   1.993   0.364
  539WAT     H1 1674   3.089   2.044   0.399
  539WAT     H2 1675   3.122   1.911   0.334
  540WAT      O 1676   3.208   1.538   0.305
  540WAT     H1 1677   3.210   1.583   0.390
  540WAT     H2 1678   3.183   1.448   0.327
  541WAT      O 1679   3.551   1.279   0.889
  541WAT     H1 1680   3.583   1.206   0.942
  541WAT     H2 1681   3.554   1.247   0.799
  542WAT      O 1682   2.221   2.381   0.831
  542WAT     H1 1683   2.182   2.317   0.891
  542WAT     H2 1684   2.252   2.452   0.888
  543WAT      O 1685   2.836   2.066   0.379
  543WAT     H1 1686   2.872   2.019   0.454
  543WAT     H2 1687   2.817   2.154   0.413
  544WAT      O 1688   2.615   1.970   0.611
  544WAT     H1 1689   2.584   2.058   0.634
  544WAT     H2 1690   2.710   1.976   0.615
  545WAT      O 1691   3.543   2.291   0.250
  545WAT     H1 1692   3.615   2.340   0.211
  545WAT     H2 1693   3.523   2.223   0.186
  546WAT      O 1694   3.082   2.298   0.839
  546WAT     H1 1695   3.075   2.206   0.813
  546WAT     H2 1696   3.019   2.307   0.910
  547WAT      O 1697   2.220   2.054   0.726
  547WAT     H1 1698   2.184   2.121   0.785
  547WAT     H2 1699   2.191   1.971   0.763
  548WAT      O 1700   2.540   2.100   1.014
  548WAT     H1 1701   2.510   2.115   0.924
  548WAT     H2 1702   2.618   2.044   1.005
  549WAT      O 1703   3.075   2.580   0.814
  549WAT     H1 1704   3.076   2.487   0.792
  549WAT     H2 1705   3.004   2.588   0.878
  550WAT      O 1706   3.696   2.244   0.748
  550WAT     H1 1707   3.623   2.303   0.729
  550WAT     H2 1708   3.749   2.243   0.669
  551WAT      O 1709   3.018   2.744   0.523
  551WAT     H1 1710   3.082   2.765   0.591
  551WAT     H2 1711   3.054   2.668   0.478
  552WAT      O 1712   3.145   2.544   0.395
  552WAT     H1 1713   3.210   2.474   0.406
  552WAT     H2 1714   3.198   2.622   0.377
  553WAT      O 1715   3.323   2.624   0.715
  553WAT     H1 1716   3.356   2.683   0.783
  553WAT     H2 1717   3.231   2.611   0.738
  554WAT      O 1718   2.078   1.403   0.793
  554WAT     H1 1719   2.006   1.423   0.854
  554WAT     H2 1720   2.120   1.326   0.831
  555WAT      O 1721   2.106   2.802   0.892
  555WAT     H1 1722   2.117   2.708   0.878
  555WAT     H2 1723   2.041   2.829   0.827
  556WAT      O 1724   2.906   2.629   1.032
  556WAT     H1 1725   2.874   2.557   1.087
  556WAT     H2 1726   2.838   2.697   1.039
  557WAT      O 1727   3.227   1.653   0.569
  557WAT     H1 1728   3.264   1.570   0.601
  557WAT     H2 1729   3.141   1.659   0.610
  558WAT      O 1730   2.923   1.918   0.591
  558WAT     H1 1731   2.973   1.965   0.657
  558WAT     H2 1732   2.937   1.826   0.612
  559WAT      O 1733   3.644   1.540   0.675
  559WAT     H1 1734   3.594   1.614   0.709
  559WAT     H2 1735   3.725   1.578   0.644
  560WAT      O 1736   3.673   2.781   0.187
  560WAT     H1 1737   3.686   2.863   0.235
  560WAT     H2 1738   3.760   2.760   0.153
  561WAT      O 1739   2.321   2.909   1.073
  561WAT     H1 1740   2.401   2.941   1.115
  561WAT     H2 1741   2.270   2.873   1.146
  562WAT      O 1742   3.205   2.520   1.068
  562WAT     H1 1743   3.144   2.522   0.994
  562WAT     H2 1744   3.174   2.446   1.122
  563WAT      O 1745   3.348   2.892   0.929
  563WAT     H1 1746   3.443   2.884   0.924
  563WAT     H2 1747   3.333   2.959   0.997
  564WAT      O 1748   2.093   2.158   0.968
  564WAT     H1 1749   2.143   2.100   1.025
  564WAT     H2 1750   2.019   2.186   1.021
  565WAT      O 1751   2.798   2.298   0.921
  565WAT     H1 1752   2.722   2.355   0.913
  565WAT     H2 1753   2.817   2.269   0.832
  566WAT      O 1754   3.513   2.471   0.977
  566WAT     H1 1755   3.587   2.505   0.926
  566WAT     H2 1756   3.436   2.488   0.922
  567WAT      O 1757   2.296   1.972   1.057
  567WAT     H1 1758   2.300   1.942   1.148
  567WAT     H2 1759   2.382   2.012   1.041
  568WAT      O 1760   2.490   1.830   0.854
  568WAT     H1 1761   2.437   1.781   0.791
  568WAT     H2 1762   2.557   1.873   0.801
  569WAT      O 1763   3.380   2.276   0.830
  569WAT     H1 1764   3.422   2.292   0.915
  569WAT     H2 1765   3.287   2.289   0.847
  570WAT      O 1766   3.427   2.010   1.031
  570WAT     H1 1767   3.486   1.935   1.022
  570WAT     H2 1768   3.445   2.063   0.953
  571WAT      O 1769   2.539   1.526   0.862
  571WAT     H1 1770   2.530   1.465   0.789
  571WAT     H2 1771   2.481   1.599   0.839
  572WAT      O 1772   2.816   1.382   0.565
  572WAT     H1 1773   2.771   1.384   0.481
  572WAT     H2 1774   2.752   1.342   0.625
  573WAT      O 1775   2.856   2.272   0.627
  573WAT     H1 1776   2.898   2.356   0.610
  573WAT     H2 1777   2.764   2.285   0.604
  574WAT      O 1778   3.090   2.045   0.766
  574WAT     H1 1779   3.102   1.985   0.840
  574WAT     H2 1780   3.176   2.048   0.724
  575WAT      O 1781   3.324   2.100   0.623
  575WAT     H1 1782   3.271   2.153   0.563
  575WAT     H2 1783   3.358   2.163   0.686
  576WAT      O 1784   2.641   2.902   0.739
  576WAT     H1 1785   2.588   2.975   0.707
  576WAT     H2 1786   2.667   2.854   0.660
  577WAT      O 1787   2.767   1.699   0.891
  577WAT     H1 1788   2.826   1.668   0.960
  577WAT     H2 1789   2.685   1.652   0.907
  578WAT      O 1790   3.249   1.661   0.915
  578WAT     H1 1791   3.180   1.594   0.908
  578WAT     H2 1792   3.321   1.616   0.959
  579WAT      O 1793   2.927   3.026   0.765
  579WAT     H1 1794   2.920   3.116   0.795
  579WAT     H2 1795   2.837   2.994   0.762
  580WAT      O 1796   2.116   2.845   0.369
  580WAT     H1 1797   2.072   2.863   0.452
  580WAT     H2 1798   2.173   2.921   0.355
  581WAT      O 1799   3.680   2.795   0.798
  581WAT     H1 1800   3.620   2.801   0.723
  581WAT     H2 1801   3.693   2.701   0.811
  582WAT      O 1802   3.548   2.468   0.607
  582WAT     H1 1803   3.467   2.511   0.634
  582WAT     H2 1804   3.589   2.529   0.546
  583WAT      O 1805   2.203   2.135   0.459
  583WAT     H1 1806   2.240   2.126   0.547
  583WAT     H2 1807   2.146   2.059   0.449
  584WAT      O 1808   3.683   1.982   0.760
  584WAT     H1 1809   3.660   1.959   0.670
  584WAT     H2 1810   3.709   2.074   0.756
  585WAT      O 1811   2.158   1.826   0.849
  585WAT     H1 1812   2.069   1.823   0.883
  585WAT     H2 1813   2.212   1.846   0.926
  586WAT      O 1814   3.527   1.504   1.038
  586WAT     H1 1815   3.615   1.505   1.076
  586WAT     H2 1816   3.528   1.431   0.977
  587WAT      O 1817   3.690   1.898   0.479
  587WAT     H1 1818   3.595   1.895   0.490
  587WAT     H2 1819   3.708   1.989   0.456
  588WAT      O 1820   2.209   1.253   0.284
  588WAT     H1 1821   2.273   1.198   0.240
  588WAT     H2 1822   2.251   1.279   0.366
  589WAT      O 1823   3.598   1.273   0.620
  589WAT     H1 1824   3.662   1.334   0.657
  589WAT     H2 1825   3.613   1.276   0.525
  590WAT      O 1826   2.184   1.269   0.559
  590WAT     H1 1827   2.149   1.315   0.635
  590WAT     H2 1828   2.151   1.180   0.567
  591WAT      O 1829   2.345   2.586   0.975
  591WAT     H1 1830   2.340   2.549   1.063
  591WAT     H2 1831   2.358   2.680   0.989
  592WAT      O 1832   2.715   2.742   0.535
  592WAT     H1 1833   2.691   2.769   0.446
  592WAT     H2 1834   2.809   2.759   0.541
  593WAT      O 1835   2.935   1.388   0.911
  593WAT     H1 1836   2.929   1.447   0.986
  593WAT     H2 1837   3.029   1.377   0.896
  594WAT      O 1838   3.199   1.354   0.875
  594WAT     H1 1839   3.260   1.386   0.808
  594WAT     H2 1840   3.254   1.305   0.937
  595WAT      O 1841   2.251   1.222   0.886
  595WAT     H1 1842   2.306   1.204   0.810
  595WAT     H2 1843   2.258   1.143   0.940
  596WAT      O 1844   2.329   2.881   0.687
  596WAT     H1 1845   2.269   2.868   0.761
  596WAT     H2 1846   2.328   2.797   0.640
  597WAT      O 1847   3.273   1.210   0.507
  597WAT     H1 1848   3.186   1.243   0.487
  597WAT     H2 1849   3.262   1.163   0.590
  598WAT      O 1850   3.364   1.431   0.646
  598WAT     H1 1851   3.331   1.349   0.608
  598WAT     H2 1852   3.459   1.427   0.633
  599WAT      O 1853   3.609   3.008   0.343
  599WAT     H1 1854   3.563   3.083   0.306
  599WAT     H2 1855   3.546   2.936   0.337
  600WAT      O 1856   2.292   2.617   0.582
  600WAT     H1 1857   2.219   2.555   0.575
  600WAT     H2 1858   2.298   2.657   0.495
  601WAT      O 1859   2.652   2.839   0.261
  601WAT     H1 1860   2.704   2.778   0.208
  601WAT     H2 1861   2.717   2.889   0.310
  602WAT      O 1862   2.926   2.928   0.343
  602WAT     H1 1863   2.955   2.902   0.256
  602WAT     H2 1864   2.977   2.873   0.402
  603WAT      O 1865   3.048   1.302   0.401
  603WAT     H1 1866   2.970   1.349   0.429
  603WAT     H2 1867   3.018   1.211   0.390
  604WAT      O 1868   2.933   3.020   1.080
  604WAT     H1 1869   3.025   2.997   1.084
  604WAT     H2 1870   2.931   3.103   1.032
  605WAT      O 1871   2.651   1.287   1.056
  605WAT     H1 1872   2.623   1.337   0.980
  605WAT     H2 1873   2.690   1.207   1.020
  606WAT      O 1874   3.312   1.228   1.114
  606WAT     H1 1875   3.300   1.260   1.204
  606WAT     H2 1876   3.393   1.268   1.085
  607WAT      O 1877   3.590   2.943   1.062
  607WAT     H1 1878   3.669   2.893   1.042
  607WAT     H2 1879   3.619   3.011   1.123
  608WAT      O 1880   3.417   0.771   3.849
  608WAT     H1 1881   3.371   0.694   3.882
  608WAT     H2 1882   3.499   0.774   3.899
  609WAT      O 1883   3.040   1.000   3.811
  609WAT     H1 1884   2.978   1.045   3.754
  609WAT     H2 1885   3.126   1.015   3.771
  610WAT      O 1886   3.127   0.488   3.550
  610WAT     H1 1887   3.065   0.534   3.494
  610WAT     H2 1888   3.178   0.557   3.592
  611WAT      O 1889   2.064   0.556   3.288
  611WAT     H1 1890   2.026   0.605   3.215
  611WAT     H2 1891   2.089   0.624   3.351
  612WAT      O 1892   3.509   0.640   3.572
  612WAT     H1 1893   3.498   0.546   3.584
  612WAT     H2 1894   3.509   0.677   3.660
  613WAT      O 1895   3.063   0.203   3.507
  613WAT     H1 1896   2.971   0.197   3.530
  613WAT     H2 1897   3.078   0.297   3.496
  614WAT      O 1898   3.466   0.359   3.557
  614WAT     H1 1899   3.404   0.326   3.493
  614WAT     H2 1900   3.464   0.295   3.628
  615WAT      O 1901   2.624   0.256   3.785
  615WAT     H1 1902   2.583   0.185   3.736
  615WAT     H2 1903   2.632   0.221   3.874
  616WAT      O 1904   3.284   0.283   3.258
  616WAT     H1 1905   3.328   0.199   3.244
  616WAT     H2 1906   3.355   0.346   3.267
  617WAT      O 1907   3.095   0.777   3.655
  617WAT     H1 1908   3.139   0.851   3.614
  617WAT     H2 1909   3.089   0.801   3.747
  618WAT      O 1910   2.182   0.632   3.757
  618WAT     H1 1911   2.141   0.647   3.672
  618WAT     H2 1912   2.271   0.604   3.737
  619WAT      O 1913   3.362   1.076   3.391
  619WAT     H1 1914   3.346   1.047   3.480
  619WAT     H2 1915   3.345   0.998   3.337
  620WAT      O 1916   2.609   1.054   3.568
  620WAT     H1 1917   2.592   0.962   3.547
  620WAT     H2 1918   2.524   1.090   3.592
  621WAT      O 1919   3.332   0.827   3.247
  621WAT     H1 1920   3.262   0.827   3.181
  621WAT     H2 1921   3.406   0.784   3.204
  622WAT      O 1922   3.288   0.989   3.654
  622WAT     H1 1923   3.334   0.911   3.686
  622WAT     H2 1924   3.322   1.060   3.709
  623WAT      O 1925   2.467   0.513   3.426
  623WAT     H1 1926   2.390   0.459   3.410
  623WAT     H2 1927   2.540   0.462   3.392
  624WAT      O 1928   2.472   0.480   3.789
  624WAT     H1 1929   2.524   0.400   3.784
  624WAT     H2 1930   2.427   0.474   3.874
  625WAT      O 1931   2.961   0.607   3.317
  625WAT     H1 1932   2.995   0.681   3.267
  625WAT     H2 1933   2.878   0.638   3.353
  626WAT      O 1934   3.691   0.806   3.468
  626WAT     H1 1935   3.627   0.741   3.496
  626WAT     H2 1936   3.652   0.847   3.391
  627WAT      O 1937   3.249   0.539   3.853
  627WAT     H1 1938   3.284   0.479   3.787
  627WAT     H2 1939   3.160   0.507   3.870
  628WAT      O 1940   2.857   0.615   3.594
  628WAT     H1 1941   2.926   0.670   3.632
  628WAT     H2 1942   2.779   0.670   3.597
  629WAT      O 1943   2.071   0.177   3.143
  629WAT     H1 1944   2.158   0.205   3.171
  629WAT     H2 1945   2.022   0.258   3.131
  630WAT      O 1946   2.788   0.316   3.555
  630WAT     H1 1947   2.833   0.397   3.578
  630WAT     H2 1948   2.753   0.284   3.638
  631WAT      O 1949   3.530   0.695   3.122
  631WAT     H1 1950   3.507   0.624   3.181
  631WAT     H2 1951   3.491   0.671   3.038
  632WAT      O 1952   2.108   1.098   3.200
  632WAT     H1 1953   2.144   1.158   3.134
  632WAT     H2 1954   2.094   1.153   3.277
  633WAT      O 1955   3.488   0.487   3.288
  633WAT     H1 1956   3.459   0.533   3.367
  633WAT     H2 1957   3.568   0.441   3.315
  634WAT      O 1958   2.710   0.836   3.281
  634WAT     H1 1959   2.709   0.910   3.220
  634WAT     H2 1960   2.618   0.812   3.291
  635WAT      O 1961   2.270   0.359   3.356
  635WAT     H1 1962   2.209   0.433   3.357
  635WAT     H2 1963   2.317   0.368   3.273
  636WAT      O 1964   3.008   0.843   3.148
  636WAT     H1 1965   3.018   0.822   3.055
  636WAT     H2 1966   2.918   0.817   3.168
  637WAT      O 1967   2.873   1.095   3.617
  637WAT     H1 1968   2.898   1.091   3.525
  637WAT     H2 1969   2.778   1.082   3.616
  638WAT      O 1970   2.471   0.355   3.131
  638WAT     H1 1971   2.548   0.343   3.187
  638WAT     H2 1972   2.479   0.285   3.065
  639WAT      O 1973   2.420   1.113   3.909
  639WAT     H1 1974   2.494   1.058   3.936
  639WAT     H2 1975   2.459   1.199   3.895
  640WAT      O 1976   2.109   0.720   3.497
  640WAT     H1 1977   2.016   0.744   3.496
  640WAT     H2 1978   2.156   0.802   3.485
  641WAT      O 1979   2.732   1.030   3.092
  641WAT     H1 1980   2.811   1.059   3.046
  641WAT     H2 1981   2.680   0.987   3.024
  642WAT      O 1982   3.637   0.953   3.234
  642WAT     H1 1983   3.608   0.912   3.153
  642WAT     H2 1984   3.617   1.046   3.222
  643WAT      O 1985   2.783   0.552   3.078
  643WAT     H1 1986   2.773   0.491   3.151
  643WAT     H2 1987   2.767   0.500   3.000
  644WAT      O 1988   3.107   0.458   3.138
  644WAT     H1 1989   3.052   0.503   3.203
  644WAT     H2 1990   3.170   0.408   3.191
  645WAT      O 1991   2.674   0.354   3.328
  645WAT     H1 1992   2.716   0.338   3.412
  645WAT     H2 1993   2.687   0.273   3.279
  646WAT      O 1994   2.925   0.257   3.053
  646WAT     H1 1995   2.977   0.185   3.016
  646WAT     H2 1996   2.990   0.321   3.083
  647WAT      O 1997   2.982   1.065   3.282
  647WAT     H1 1998   3.071   1.099   3.284
  647WAT     H2 1999   2.985   0.993   3.219
  648WAT      O 2000   2.346   0.602   3.105
  648WAT     H1 2001   2.390   0.656   3.170
  648WAT     H2 2002   2.394   0.520   3.106
  649WAT      O 2003   2.067   0.881   3.850
  649WAT     H1 2004   2.100   0.794   3.827
  649WAT     H2 2005   2.110   0.902   3.933
  650WAT      O 2006   2.527   0.714   3.616
  650WAT     H1 2007   2.497   0.702   3.706
  650WAT     H2 2008   2.516   0.628   3.575
  651WAT      O 2009   2.099   0.219   3.760
  651WAT     H1 2010   2.034   0.192   3.695
  651WAT     H2 2011   2.183   0.208   3.715
  652WAT      O 2012   3.755   0.396   3.052
  652WAT     H1 2013   3.782   0.487   3.040
  652WAT     H2 2014   3.736   0.389   3.146
  653WAT      O 2015   3.554   1.066   3.715
  653WAT     H1 2016   3.614   1.033   3.647
  653WAT     H2 2017   3.580   1.018   3.794
  654WAT      O 2018   2.120   1.072   3.658
  654WAT     H1 2019   2.103   1.008   3.728
  654WAT     H2 2020   2.033   1.092   3.623
  655WAT      O 2021   2.281   0.941   3.402
  655WAT     H1 2022   2.228   0.979   3.332
  655WAT     H2 2023   2.273   1.004   3.475
  656WAT      O 2024   3.756   1.097   3.535
  656WAT     H1 2025   3.774   1.028   3.470
  656WAT     H2 2026   3.686   1.149   3.495
  657WAT      O 2027   2.541   1.136   3.290
  657WAT     H1 2028   2.614   1.107   3.235
  657WAT     H2 2029   2.566   1.112   3.379
  658WAT      O 2030   2.457   0.747   3.290
  658WAT     H1 2031   2.394   0.794   3.345
  658WAT     H2 2032   2.468   0.663   3.334
  659WAT      O 2033   3.015   0.330   2.094
  659WAT     H1 2034   2.938   0.282   2.122
  659WAT     H2 2035   3.080   0.262   2.076
  660WAT      O 2036   2.417   0.362   2.181
  660WAT     H1 2037   2.334   0.336   2.221
  660WAT     H2 2038   2.478   0.369   2.255
  661WAT      O 2039   3.417   0.771   1.971
  661WAT     H1 2040   3.371   0.694   2.004
  661WAT     H2 2041   3.499   0.774   2.022
  662WAT      O 2042   2.415   0.765   2.201
  662WAT     H1 2043   2.445   0.676   2.183
  662WAT     H2 2044   2.489   0.821   2.178
  663WAT      O 2045   3.040   1.000   1.934
  663WAT     H1 2046   2.978   1.045   1.876
  663WAT     H2 2047   3.126   1.015   1.893
  664WAT      O 2048   2.959   0.598   2.094
  664WAT     H1 2049   2.953   0.504   2.078
  664WAT     H2 2050   3.036   0.607   2.151
  665WAT      O 2051   3.127   0.488   1.673
  665WAT     H1 2052   3.065   0.534   1.616
  665WAT     H2 2053   3.178   0.557   1.715
  666WAT      O 2054   2.613   0.441   2.341
  666WAT     H1 2055   2.580   0.503   2.405
  666WAT     H2 2056   2.631   0.493   2.263
  667WAT      O 2057   2.534   0.637   2.522
  667WAT     H1 2058   2.596   0.705   2.494
  667WAT     H2 2059   2.448   0.678   2.513
  668WAT      O 2060   2.064   0.556   1.410
  668WAT     H1 2061   2.026   0.605   1.337
  668WAT     H2 2062   2.089   0.624   1.473
  669WAT      O 2063   3.626   0.784   2.314
  669WAT     H1 2064   3.558   0.851   2.313
  669WAT     H2 2065   3.680   0.804   2.237
  670WAT      O 2066   3.380   0.968   2.185
  670WAT     H1 2067   3.381   0.928   2.098
  670WAT     H2 2068   3.324   1.046   2.175
  671WAT      O 2069   3.509   0.640   1.694
  671WAT     H1 2070   3.498   0.546   1.707
  671WAT     H2 2071   3.509   0.677   1.783
  672WAT      O 2072   3.319   0.459   2.318
  672WAT     H1 2073   3.361   0.437   2.235
  672WAT     H2 2074   3.392   0.484   2.375
  673WAT      O 2075   3.063   0.203   1.630
  673WAT     H1 2076   2.971   0.197   1.653
  673WAT     H2 2077   3.078   0.297   1.618
  674WAT      O 2078   3.714   0.298   2.327
  674WAT     H1 2079   3.631   0.305   2.280
  674WAT     H2 2080   3.774   0.357   2.280
  675WAT      O 2081   3.466   0.359   1.680
  675WAT     H1 2082   3.404   0.326   1.615
  675WAT     H2 2083   3.464   0.295   1.751
  676WAT      O 2084   2.624   0.256   1.908
  676WAT     H1 2085   2.583   0.185   1.858
  676WAT     H2 2086   2.632   0.221   1.997
  677WAT      O 2087   2.671   0.624   2.124
  677WAT     H1 2088   2.641   0.564   2.056
  677WAT     H2 2089   2.766   0.628   2.113
  678WAT      O 2090   3.479   0.982   2.491
  678WAT     H1 2091   3.432   1.062   2.471
  678WAT     H2 2092   3.411   0.917   2.506
  679WAT      O 2093   2.580   0.598   2.789
  679WAT     H1 2094   2.490   0.621   2.814
  679WAT     H2 2095   2.582   0.611   2.694
  680WAT      O 2096   3.284   0.283   1.381
  680WAT     H1 2097   3.328   0.199   1.366
  680WAT     H2 2098   3.355   0.346   1.389
  681WAT      O 2099   2.463   0.285   2.647
  681WAT     H1 2100   2.449   0.373   2.684
  681WAT     H2 2101   2.374   0.251   2.632
  682WAT      O 2102   3.095   0.777   1.778
  682WAT     H1 2103   3.139   0.851   1.736
  682WAT     H2 2104   3.089   0.801   1.870
  683WAT      O 2105   2.642   0.880   2.868
  683WAT     H1 2106   2.639   0.920   2.781
  683WAT     H2 2107   2.626   0.787   2.852
  684WAT      O 2108   2.058   0.462   2.239
  684WAT     H1 2109   2.065   0.476   2.144
  684WAT     H2 2110   2.119   0.392   2.258
  685WAT      O 2111   2.182   0.632   1.880
  685WAT     H1 2112   2.141   0.647   1.794
  685WAT     H2 2113   2.271   0.604   1.859
  686WAT      O 2114   3.778   0.677   2.713
  686WAT     H1 2115   3.790   0.653   2.622
  686WAT     H2 2116   3.782   0.594   2.761
  687WAT      O 2117   3.164   1.047   2.570
  687WAT     H1 2118   3.215   1.038   2.651
  687WAT     H2 2119   3.080   1.082   2.600
  688WAT      O 2120   3.362   1.076   1.513
  688WAT     H1 2121   3.346   1.047   1.603
  688WAT     H2 2122   3.345   0.998   1.460
  689WAT      O 2123   2.609   1.054   1.691
  689WAT     H1 2124   2.592   0.962   1.670
  689WAT     H2 2125   2.524   1.090   1.715
  690WAT      O 2126   3.332   0.827   1.369
  690WAT     H1 2127   3.262   0.827   1.303
  690WAT     H2 2128   3.406   0.784   1.326
  691WAT      O 2129   3.288   0.989   1.777
  691WAT     H1 2130   3.334   0.911   1.808
  691WAT     H2 2131   3.322   1.060   1.831
  692WAT      O 2132   2.063   0.567   2.493
  692WAT     H1 2133   2.080   0.520   2.411
  692WAT     H2 2134   2.110   0.516   2.559
  693WAT      O 2135   2.221   0.504   2.709
  693WAT     H1 2136   2.182   0.440   2.768
  693WAT     H2 2137   2.252   0.574   2.766
  694WAT      O 2138   2.467   0.513   1.548
  694WAT     H1 2139   2.390   0.459   1.532
  694WAT     H2 2140   2.540   0.462   1.514
  695WAT      O 2141   3.543   0.413   2.127
  695WAT     H1 2142   3.615   0.463   2.088
  695WAT     H2 2143   3.523   0.345   2.063
  696WAT      O 2144   3.082   0.420   2.716
  696WAT     H1 2145   3.075   0.328   2.691
  696WAT     H2 2146   3.019   0.430   2.788
  697WAT      O 2147   2.472   0.480   1.912
  697WAT     H1 2148   2.524   0.400   1.907
  697WAT     H2 2149   2.427   0.474   1.996
  698WAT      O 2150   2.961   0.607   1.439
  698WAT     H1 2151   2.995   0.681   1.390
  698WAT     H2 2152   2.878   0.638   1.475
  699WAT      O 2153   2.540   0.223   2.892
  699WAT     H1 2154   2.510   0.237   2.802
  699WAT     H2 2155   2.618   0.167   2.882
  700WAT      O 2156   3.075   0.702   2.691
  700WAT     H1 2157   3.076   0.609   2.669
  700WAT     H2 2158   3.004   0.711   2.755
  701WAT      O 2159   3.696   0.367   2.626
  701WAT     H1 2160   3.623   0.426   2.606
  701WAT     H2 2161   3.749   0.366   2.546
  702WAT      O 2162   3.691   0.806   1.591
  702WAT     H1 2163   3.627   0.741   1.618
  702WAT     H2 2164   3.652   0.847   1.513
  703WAT      O 2165   3.249   0.539   1.976
  703WAT     H1 2166   3.284   0.479   1.910
  703WAT     H2 2167   3.160   0.507   1.993
  704WAT      O 2168   2.857   0.615   1.716
  704WAT     H1 2169   2.926   0.670   1.754
  704WAT     H2 2170   2.779   0.670   1.720
  705WAT      O 2171   2.071   0.177   1.266
  705WAT     H1 2172   2.158   0.205   1.294
  705WAT     H2 2173   2.022   0.258   1.254
  706WAT      O 2174   2.788   0.316   1.678
  706WAT     H1 2175   2.833   0.397   1.700
  706WAT     H2 2176   2.753   0.284   1.761
  707WAT      O 2177   3.018   0.867   2.401
  707WAT     H1 2178   3.082   0.887   2.468
  707WAT     H2 2179   3.054   0.791   2.355
  708WAT      O 2180   3.145   0.667   2.272
  708WAT     H1 2181   3.210   0.597   2.284
  708WAT     H2 2182   3.198   0.745   2.254
  709WAT      O 2183   3.530   0.695   1.245
  709WAT     H1 2184   3.507   0.624   1.304
  709WAT     H2 2185   3.491   0.671   1.161
  710WAT      O 2186   3.323   0.747   2.593
  710WAT     H1 2187   3.356   0.806   2.660
  710WAT     H2 2188   3.231   0.734   2.616
  711WAT      O 2189   2.108   1.098   1.322
  711WAT     H1 2190   2.144   1.158   1.257
  711WAT     H2 2191   2.094   1.153   1.400
  712WAT      O 2192   3.488   0.487   1.411
  712WAT     H1 2193   3.459   0.533   1.490
  712WAT     H2 2194   3.568   0.441   1.438
  713WAT      O 2195   2.106   0.925   2.770
  713WAT     H1 2196   2.117   0.831   2.756
  713WAT     H2 2197   2.041   0.951   2.705
  714WAT      O 2198   2.906   0.752   2.910
  714WAT     H1 2199   2.874   0.680   2.964
  714WAT     H2 2200   2.838   0.819   2.917
  715WAT      O 2201   2.710   0.836   1.404
  715WAT     H1 2202   2.709   0.910   1.342
  715WAT     H2 2203   2.618   0.812   1.413
  716WAT      O 2204   2.270   0.359   1.478
  716WAT     H1 2205   2.209   0.433   1.479
  716WAT     H2 2206   2.317   0.368   1.396
  717WAT      O 2207   3.008   0.843   1.270
  717WAT     H1 2208   3.018   0.822   1.177
  717WAT     H2 2209   2.918   0.817   1.291
  718WAT      O 2210   2.873   1.095   1.740
  718WAT     H1 2211   2.898   1.091   1.647
  718WAT     H2 2212   2.778   1.082   1.739
  719WAT      O 2213   2.471   0.355   1.253
  719WAT     H1 2214   2.548   0.343   1.310
  719WAT     H2 2215   2.479   0.285   1.188
  720WAT      O 2216   3.673   0.904   2.065
  720WAT     H1 2217   3.686   0.986   2.112
  720WAT     H2 2218   3.760   0.882   2.030
  721WAT      O 2219   2.420   1.113   2.032
  721WAT     H1 2220   2.494   1.058   2.059
  721WAT     H2 2221   2.459   1.199   2.018
  722WAT      O 2222   2.109   0.720   1.619
  722WAT     H1 2223   2.016   0.744   1.618
  722WAT     H2 2224   2.156   0.802   1.607
  723WAT      O 2225   2.321   1.031   2.951
  723WAT     H1 2226   2.401   1.063   2.992
  723WAT     H2 2227   2.270   0.995   3.023
  724WAT      O 2228   2.732   1.030   1.214
  724WAT     H1 2229   2.811   1.059   1.169
  724WAT     H2 2230   2.680   0.987   1.146
  725WAT      O 2231   3.205   0.642   2.946
  725WAT     H1 2232   3.144   0.644   2.871
  725WAT     H2 2233   3.174   0.569   2.999
  726WAT      O 2234   3.348   1.015   2.807
  726WAT     H1 2235   3.443   1.007   2.802
  726WAT     H2 2236   3.333   1.081   2.874
  727WAT      O 2237   3.637   0.953   1.357
  727WAT     H1 2238   3.608   0.912   1.275
  727WAT     H2 2239   3.617   1.046   1.345
  728WAT      O 2240   2.093   0.280   2.845
  728WAT     H1 2241   2.143   0.222   2.902
  728WAT     H2 2242   2.019   0.308   2.899
  729WAT      O 2243   2.783   0.552   1.201
  729WAT     H1 2244   2.773   0.491   1.273
  729WAT     H2 2245   2.767   0.500   1.122
  730WAT      O 2246   2.798   0.421   2.799
  730WAT     H1 2247   2.722   0.478   2.790
  730WAT     H2 2248   2.817   0.392   2.709
  731WAT      O 2249   3.107   0.458   1.261
  731WAT     H1 2250   3.052   0.503   1.325
  731WAT     H2 2251   3.170   0.408   1.313
  732WAT      O 2252   3.513   0.594   2.854
  732WAT     H1 2253   3.587   0.628   2.804
  732WAT     H2 2254   3.436   0.611   2.799
  733WAT      O 2255   2.674   0.354   1.451
  733WAT     H1 2256   2.716   0.338   1.535
  733WAT     H2 2257   2.687   0.273   1.401
  734WAT      O 2258   2.925   0.257   1.175
  734WAT     H1 2259   2.977   0.185   1.139
  734WAT     H2 2260   2.990   0.321   1.205
  735WAT      O 2261   3.380   0.399   2.708
  735WAT     H1 2262   3.422   0.414   2.793
  735WAT     H2 2263   3.287   0.412   2.724
  736WAT      O 2264   2.856   0.394   2.505
  736WAT     H1 2265   2.898   0.479   2.488
  736WAT     H2 2266   2.764   0.408   2.482
  737WAT      O 2267   3.324   0.223   2.501
  737WAT     H1 2268   3.271   0.275   2.440
  737WAT     H2 2269   3.358   0.286   2.564
  738WAT      O 2270   2.641   1.025   2.616
  738WAT     H1 2271   2.588   1.097   2.584
  738WAT     H2 2272   2.667   0.977   2.537
  739WAT      O 2273   2.927   1.148   2.642
  739WAT     H1 2274   2.920   1.239   2.673
  739WAT     H2 2275   2.837   1.116   2.639
  740WAT      O 2276   2.982   1.065   1.404
  740WAT     H1 2277   3.071   1.099   1.407
  740WAT     H2 2278   2.985   0.993   1.342
  741WAT      O 2279   2.346   0.602   1.227
  741WAT     H1 2280   2.390   0.656   1.293
  741WAT     H2 2281   2.394   0.520   1.228
  742WAT      O 2282   2.067   0.881   1.973
  742WAT     H1 2283   2.100   0.794   1.949
  742WAT     H2 2284   2.110   0.902   2.056
  743WAT      O 2285   2.527   0.714   1.739
  743WAT     H1 2286   2.497   0.702   1.829
  743WAT     H2 2287   2.516   0.628   1.698
  744WAT      O 2288   2.116   0.968   2.246
  744WAT     H1 2289   2.072   0.986   2.330
  744WAT     H2 2290   2.173   1.043   2.232
  745WAT      O 2291   3.680   0.918   2.675
  745WAT     H1 2292   3.620   0.924   2.601
  745WAT     H2 2293   3.693   0.824   2.688
  746WAT      O 2294   2.099   0.219   1.882
  746WAT     H1 2295   2.034   0.192   1.818
  746WAT     H2 2296   2.183   0.208   1.837
  747WAT      O 2297   3.548   0.590   2.485
  747WAT     H1 2298   3.467   0.633   2.511
  747WAT     H2 2299   3.589   0.652   2.424
  748WAT      O 2300   3.755   0.396   1.175
  748WAT     H1 2301   3.782   0.487   1.162
  748WAT     H2 2302   3.736   0.389   1.269
  749WAT      O 2303   2.203   0.257   2.336
  749WAT     H1 2304   2.240   0.249   2.424
  749WAT     H2 2305   2.146   0.181   2.326
  750WAT      O 2306   3.554   1.066   1.838
  750WAT     H1 2307   3.614   1.033   1.770
  750WAT     H2 2308   3.580   1.018   1.917
  751WAT      O 2309   2.345   0.709   2.852
  751WAT     H1 2310   2.340   0.672   2.941
  751WAT     H2 2311   2.358   0.803   2.867
  752WAT      O 2312   2.715   0.864   2.413
  752WAT     H1 2313   2.691   0.891   2.324
  752WAT     H2 2314   2.809   0.881   2.418
  753WAT      O 2315   2.329   1.003   2.564
  753WAT     H1 2316   2.269   0.990   2.638
  753WAT     H2 2317   2.328   0.920   2.518
  754WAT      O 2318   3.609   1.131   2.221
  754WAT     H1 2319   3.563   1.206   2.183
  754WAT     H2 2320   3.546   1.059   2.215
  755WAT      O 2321   2.292   0.740   2.460
  755WAT     H1 2322   2.219   0.678   2.453
  755WAT     H2 2323   2.298   0.779   2.373
  756WAT      O 2324   2.652   0.961   2.138
  756WAT     H1 2325   2.704   0.900   2.086
  756WAT     H2 2326   2.717   1.012   2.187
  757WAT      O 2327   2.926   1.050   2.221
  757WAT     H1 2328   2.955   1.025   2.133
  757WAT     H2 2329   2.977   0.995   2.280
  758WAT      O 2330   2.120   1.072   1.781
  758WAT     H1 2331   2.103   1.008   1.850
  758WAT     H2 2332   2.033   1.092   1.745
  759WAT      O 2333   2.281   0.941   1.525
  759WAT     H1 2334   2.228   0.979   1.455
  759WAT     H2 2335   2.273   1.004   1.597
  760WAT      O 2336   2.933   1.143   2.957
  760WAT     H1 2337   3.025   1.119   2.962
  760WAT     H2 2338   2.931   1.225   2.909
  761WAT      O 2339   3.756   1.097   1.657
  761WAT     H1 2340   3.774   1.028   1.593
  761WAT     H2 2341   3.686   1.149   1.618
  762WAT      O 2342   2.541   1.136   1.413
  762WAT     H1 2343   2.614   1.107   1.358
  762WAT     H2 2344   2.566   1.112   1.501
  763WAT      O 2345   2.457   0.747   1.413
  763WAT     H1 2346   2.394   0.794   1.468
  763WAT     H2 2347   2.468   0.663   1.456
  764WAT      O 2348   3.590   1.065   2.940
  764WAT     H1 2349   3.669   1.016   2.919
  764WAT     H2 2350   3.619   1.133   3.001
  765WAT      O 2351   3.015   0.330   0.216
  765WAT     H1 2352   2.938   0.282   0.245
  765WAT     H2 2353   3.080   0.262   0.199
  766WAT      O 2354   2.417   0.362   0.304
  766WAT     H1 2355   2.334   0.336   0.344
  766WAT     H2 2356   2.478   0.369   0.377
  767WAT      O 2357   2.415   0.765   0.323
  767WAT     H1 2358   2.445   0.676   0.306
  767WAT     H2 2359   2.489   0.821   0.301
  768WAT      O 2360   2.959   0.598   0.217
  768WAT     H1 2361   2.953   0.504   0.201
  768WAT     H2 2362   3.036   0.607   0.274
  769WAT      O 2363   2.613   0.441   0.463
  769WAT     H1 2364   2.580   0.503   0.527
  769WAT     H2 2365   2.631   0.493   0.385
  770WAT      O 2366   2.534   0.637   0.645
  770WAT     H1 2367   2.596   0.705   0.617
  770WAT     H2 2368   2.448   0.678   0.636
  771WAT      O 2369   3.626   0.784   0.436
  771WAT     H1 2370   3.558   0.851   0.435
  771WAT     H2 2371   3.680   0.804   0.360
  772WAT      O 2372   3.380   0.968   0.308
  772WAT     H1 2373   3.381   0.928   0.221
  772WAT     H2 2374   3.324   1.046   0.297
  773WAT      O 2375   3.319   0.459   0.441
  773WAT     H1 2376   3.361   0.437   0.357
  773WAT     H2 2377   3.392   0.484   0.498
  774WAT      O 2378   3.714   0.298   0.450
  774WAT     H1 2379   3.631   0.305   0.402
  774WAT     H2 2380   3.774   0.357   0.403
  775WAT      O 2381   2.671   0.624   0.247
  775WAT     H1 2382   2.641   0.564   0.179
  775WAT     H2 2383   2.766   0.628   0.236
  776WAT      O 2384   3.479   0.982   0.613
  776WAT     H1 2385   3.432   1.062   0.594
  776WAT     H2 2386   3.411   0.917   0.628
  777WAT      O 2387   2.580   0.598   0.912
  777WAT     H1 2388   2.490   0.621   0.937
  777WAT     H2 2389   2.582   0.611   0.817
  778WAT      O 2390   2.463   0.285   0.770
  778WAT     H1 2391   2.449   0.373   0.806
  778WAT     H2 2392   2.374   0.251   0.755
  779WAT      O 2393   2.642   0.880   0.990
  779WAT     H1 2394   2.639   0.920   0.904
  779WAT     H2 2395   2.626   0.787   0.974
  780WAT      O 2396   2.058   0.462   0.361
  780WAT     H1 2397   2.065   0.476   0.267
  780WAT     H2 2398   2.119   0.392   0.381
  781WAT      O 2399   3.778   0.677   0.836
  781WAT     H1 2400   3.790   0.653   0.744
  781WAT     H2 2401   3.782   0.594   0.883
  782WAT      O 2402   3.164   1.047   0.693
  782WAT     H1 2403   3.215   1.038   0.773
  782WAT     H2 2404   3.080   1.082   0.722
  783WAT      O 2405   2.063   0.567   0.615
  783WAT     H1 2406   2.080   0.520   0.533
  783WAT     H2 2407   2.110   0.516   0.682
  784WAT      O 2408   2.221   0.504   0.831
  784WAT     H1 2409   2.182   0.440   0.891
  784WAT     H2 2410   2.252   0.574   0.888
  785WAT      O 2411   3.543   0.413   0.250
  785WAT     H1 2412   3.615   0.463   0.211
  785WAT     H2 2413   3.523   0.345   0.186
  786WAT      O 2414   3.082   0.420   0.839
  786WAT     H1 2415   3.075   0.328   0.813
  786WAT     H2 2416   3.019   0.430   0.910
  787WAT      O 2417   2.540   0.223   1.014
  787WAT     H1 2418   2.510   0.237   0.924
  787WAT     H2 2419   2.618   0.167   1.005
  788WAT      O 2420   3.075   0.702   0.814
  788WAT     H1 2421   3.076   0.609   0.792
  788WAT     H2 2422   3.004   0.711   0.878
  789WAT      O 2423   3.696   0.367   0.748
  789WAT     H1 2424   3.623   0.426   0.729
  789WAT     H2 2425   3.749   0.366   0.669
  790WAT      O 2426   3.018   0.867   0.523
  790WAT     H1 2427   3.082   0.887   0.591
  790WAT     H2 2428   3.054   0.791   0.478
  791WAT      O 2429   3.145   0.667   0.395
  791WAT     H1 2430   3.210   0.597   0.406
  791WAT     H2 2431   3.198   0.745   0.377
  792WAT      O 2432   3.323   0.747   0.715
  792WAT     H1 2433   3.356   0.806   0.783
  792WAT     H2 2434   3.231   0.734   0.738
  793WAT      O 2435   2.106   0.925   0.892
  793WAT     H1 2436   2.117   0.831   0.878
  793WAT     H2 2437   2.041   0.951   0.827
  794WAT      O 2438   2.906   0.752   1.032
  794WAT     H1 2439   2.874   0.680   1.087
  794WAT     H2 2440   2.838   0.819   1.039
  795WAT      O 2441   3.673   0.904   0.187
  795WAT     H1 2442   3.686   0.986   0.235
  795WAT     H2 2443   3.760   0.882   0.153
  796WAT      O 2444   2.321   1.031   1.073
  796WAT     H1 2445   2.401   1.063   1.115
  796WAT     H2 2446   2.270   0.995   1.146
  797WAT      O 2447   3.205   0.642   1.068
  797WAT     H1 2448   3.144   0.644   0.994
  797WAT     H2 2449   3.174   0.569   1.122
  798WAT      O 2450   3.348   1.015   0.929
  798WAT     H1 2451   3.443   1.007   0.924
  798WAT     H2 2452   3.333   1.081   0.997
  799WAT      O 2453   2.093   0.280   0.968
  799WAT     H1 2454   2.143   0.222   1.025
  799WAT     H2 2455   2.019   0.308   1.021
  800WAT      O 2456   2.798   0.421   0.921
  800WAT     H1 2457   2.722   0.478   0.913
  800WAT     H2 2458   2.817   0.392   0.832
  801WAT      O 2459   3.513   0.594   0.977
  801WAT     H1 2460   3.587   0.628   0.926
  801WAT     H2 2461   3.436   0.611   0.922
  802WAT      O 2462   3.380   0.399   0.830
  802WAT     H1 2463   3.422   0.414   0.915
  802WAT     H2 2464   3.287   0.412   0.847
  803WAT      O 2465   2.856   0.394   0.627
  803WAT     H1 2466   2.898   0.479   0.610
  803WAT     H2 2467   2.764   0.408   0.604
  804WAT      O 2468   3.324   0.223   0.623
  804WAT     H1 2469   3.271   0.275   0.563
  804WAT     H2 2470   3.358   0.286   0.686
  805WAT      O 2471   2.641   1.025   0.739
  805WAT     H1 2472   2.588   1.097   0.707
  805WAT     H2 2473   2.667   0.977   0.660
  806WAT      O 2474   2.927   1.148   0.765
  806WAT     H1 2475   2.920   1.239   0.795
  806WAT     H2 2476   2.837   1.116   0.762
  807WAT      O 2477   2.116   0.968   0.369
  807WAT     H1 2478   2.072   0.986   0.452
  807WAT     H2 2479   2.173   1.043   0.355
  808WAT      O 2480   3.680   0.918   0.798
  808WAT     H1 2481   3.620   0.924   0.723
  808WAT     H2 2482   3.693   0.824   0.811
  809WAT      O 2483   3.548   0.590   0.607
  809WAT     H1 2484   3.467   0.633   0.634
  809WAT     H2 2485   3.589   0.652   0.546
  810WAT      O 2486   2.203   0.257   0.459
  810WAT     H1 2487   2.240   0.249   0.547
  810WAT     H2 2488   2.146   0.181   0.449
  811WAT      O 2489   2.345   0.709   0.975
  811WAT     H1 2490   2.340   0.672   1.063
  811WAT     H2 2491   2.358   0.803   0.989
  812WAT      O 2492   2.715   0.864   0.535
  812WAT     H1 2493   2.691   0.891   0.446
  812WAT     H2 2494   2.809   0.881   0.541
  813WAT      O 2495   2.329   1.003   0.687
  813WAT     H1 2496   2.269   0.990   0.761
  813WAT     H2 2497   2.328   0.920   0.640
  814WAT      O 2498   3.609   1.131   0.343
  814WAT     H1 2499   3.563   1.206   0.306
  814WAT     H2 2500   3.546   1.059   0.337
  815WAT      O 2501   2.292   0.740   0.582
  815WAT     H1 2502   2.219   0.678   0.575
  815WAT     H2 2503   2.298   0.779   0.495
  816WAT      O 2504   2.652   0.961   0.261
  816WAT     H1 2505   2.704   0.900   0.208
  816WAT     H2 2506   2.717   1.012   0.310
  817WAT      O 2507   2.926   1.050   0.343
  817WAT     H1 2508   2.955   1.025   0.256
  817WAT     H2 2509   2.977   0.995   0.402
  818WAT      O 2510   2.933   1.143   1.080
  818WAT     H1 2511   3.025   1.119   1.084
  818WAT     H2 2512   2.931   1.225   1.032
  819WAT      O 2513   3.590   1.065   1.062
  819WAT     H1 2514   3.669   1.016   1.042
  819WAT     H2 2515   3.619   1.133   1.123
  820WAT      O 2516   1.325   3.907   3.783
  820WAT     H1 2517   1.317   3.816   3.756
  820WAT     H2 2518   1.283   3.957   3.712
  821WAT      O 2519   0.380   3.612   3.437
  821WAT     H1 2520   0.292   3.647   3.427
  821WAT     H2 2521   0.409   3.592   3.348
  822WAT      O 2522   0.598   3.471   3.541
  822WAT     H1 2523   0.609   3.561   3.571
  822WAT     H2 2524   0.507   3.466   3.511
  823WAT      O 2525   1.563   3.383   3.688
  823WAT     H1 2526   1.645   3.334   3.692
  823WAT     H2 2527   1.567   3.442   3.763
  824WAT      O 2528   0.947   3.152   3.834
  824WAT     H1 2529   0.978   3.096   3.762
  824WAT     H2 2530   0.854   3.165   3.815
  825WAT      O 2531   1.186   3.958   3.507
  825WAT     H1 2532   1.093   3.951   3.530
  825WAT     H2 2533   1.201   4.052   3.496
  826WAT      O 2534   1.184   3.585   3.207
  826WAT     H1 2535   1.091   3.601   3.215
  826WAT     H2 2536   1.216   3.657   3.152
  827WAT      O 2537   0.746   4.011   3.785
  827WAT     H1 2538   0.706   3.939   3.736
  827WAT     H2 2539   0.755   3.976   3.874
  828WAT      O 2540   1.765   3.164   3.090
  828WAT     H1 2541   1.733   3.173   3.180
  828WAT     H2 2542   1.841   3.221   3.085
  829WAT      O 2543   0.416   3.900   3.535
  829WAT     H1 2544   0.404   3.973   3.474
  829WAT     H2 2545   0.385   3.823   3.488
  830WAT      O 2546   0.663   3.234   3.874
  830WAT     H1 2547   0.619   3.313   3.840
  830WAT     H2 2548   0.719   3.267   3.944
  831WAT      O 2549   0.975   3.197   3.362
  831WAT     H1 2550   0.912   3.196   3.434
  831WAT     H2 2551   0.966   3.110   3.322
  832WAT      O 2552   0.642   3.747   3.646
  832WAT     H1 2553   0.620   3.725   3.737
  832WAT     H2 2554   0.564   3.790   3.612
  833WAT      O 2555   1.365   3.747   3.506
  833WAT     H1 2556   1.305   3.820   3.488
  833WAT     H2 2557   1.420   3.741   3.428
  834WAT      O 2558   1.226   3.611   3.709
  834WAT     H1 2559   1.265   3.643   3.628
  834WAT     H2 2560   1.262   3.523   3.721
  835WAT      O 2561   0.928   3.538   3.959
  835WAT     H1 2562   0.928   3.494   3.874
  835WAT     H2 2563   1.018   3.570   3.970
  836WAT      O 2564   0.513   3.526   3.855
  836WAT     H1 2565   0.479   3.574   3.931
  836WAT     H2 2566   0.437   3.481   3.819
  837WAT      O 2567   0.934   3.638   3.258
  837WAT     H1 2568   0.946   3.634   3.353
  837WAT     H2 2569   0.896   3.724   3.243
  838WAT      O 2570   0.836   3.869   3.198
  838WAT     H1 2571   0.779   3.824   3.136
  838WAT     H2 2572   0.906   3.905   3.145
  839WAT      O 2573   0.245   3.418   3.747
  839WAT     H1 2574   0.216   3.382   3.831
  839WAT     H2 2575   0.238   3.345   3.686
  840WAT      O 2576   1.212   3.307   3.419
  840WAT     H1 2577   1.131   3.258   3.412
  840WAT     H2 2578   1.193   3.391   3.378
  841WAT      O 2579   1.483   3.745   3.249
  841WAT     H1 2580   1.572   3.776   3.231
  841WAT     H2 2581   1.481   3.657   3.210
  842WAT      O 2582   1.711   3.876   3.196
  842WAT     H1 2583   1.702   3.919   3.111
  842WAT     H2 2584   1.783   3.922   3.239
  843WAT      O 2585   0.500   3.105   3.602
  843WAT     H1 2586   0.488   3.104   3.697
  843WAT     H2 2587   0.418   3.139   3.567
  844WAT      O 2588   1.686   3.426   3.404
  844WAT     H1 2589   1.623   3.436   3.333
  844WAT     H2 2590   1.637   3.447   3.483
  845WAT      O 2591   0.883   3.653   3.546
  845WAT     H1 2592   0.812   3.700   3.590
  845WAT     H2 2593   0.912   3.588   3.609
  846WAT      O 2594   1.286   3.326   3.690
  846WAT     H1 2595   1.274   3.328   3.595
  846WAT     H2 2596   1.381   3.331   3.702
  847WAT      O 2597   0.704   3.484   3.283
  847WAT     H1 2598   0.788   3.528   3.277
  847WAT     H2 2599   0.667   3.515   3.366
  848WAT      O 2600   1.596   3.941   3.775
  848WAT     H1 2601   1.502   3.943   3.792
  848WAT     H2 2602   1.627   3.863   3.819
  849WAT      O 2603   0.463   3.853   3.199
  849WAT     H1 2604   0.471   3.758   3.210
  849WAT     H2 2605   0.552   3.886   3.210
  850WAT      O 2606   0.686   3.717   3.023
  850WAT     H1 2607   0.666   3.630   3.059
  850WAT     H2 2608   0.669   3.708   2.929
  851WAT      O 2609   1.434   3.198   3.276
  851WAT     H1 2610   1.462   3.113   3.311
  851WAT     H2 2611   1.357   3.221   3.327
  852WAT      O 2612   0.566   3.427   3.021
  852WAT     H1 2613   0.596   3.427   2.931
  852WAT     H2 2614   0.640   3.392   3.071
  853WAT      O 2615   0.888   3.321   3.120
  853WAT     H1 2616   0.853   3.253   3.062
  853WAT     H2 2617   0.908   3.275   3.201
  854WAT      O 2618   1.517   3.453   3.182
  854WAT     H1 2619   1.559   3.434   3.098
  854WAT     H2 2620   1.486   3.368   3.213
  855WAT      O 2621   1.867   3.944   3.552
  855WAT     H1 2622   1.829   3.868   3.508
  855WAT     H2 2623   1.794   3.983   3.600
  856WAT      O 2624   1.794   3.767   3.882
  856WAT     H1 2625   1.847   3.718   3.819
  856WAT     H2 2626   1.853   3.780   3.956
  857WAT      O 2627   0.398   3.600   3.145
  857WAT     H1 2628   0.469   3.558   3.096
  857WAT     H2 2629   0.326   3.607   3.082
  858WAT      O 2630   0.362   3.206   3.049
  858WAT     H1 2631   0.435   3.260   3.081
  858WAT     H2 2632   0.390   3.178   2.961
  859WAT      O 2633   1.743   3.693   3.476
  859WAT     H1 2634   1.793   3.669   3.554
  859WAT     H2 2635   1.723   3.609   3.434
  860WAT      O 2636   1.886   3.556   3.729
  860WAT     H1 2637   1.875   3.541   3.823
  860WAT     H2 2638   1.962   3.504   3.705
  861WAT      O 2639   1.975   3.339   3.053
  861WAT     H1 2640   2.068   3.326   3.032
  861WAT     H2 2641   1.973   3.347   3.148
  862WAT      O 2642   1.982   3.417   3.316
  862WAT     H1 2643   1.903   3.410   3.369
  862WAT     H2 2644   2.003   3.510   3.314
  863WAT      O 2645   1.626   3.249   3.961
  863WAT     H1 2646   1.670   3.244   3.876
  863WAT     H2 2647   1.599   3.341   3.968
  864WAT      O 2648   1.812   3.213   3.762
  864WAT     H1 2649   1.806   3.118   3.747
  864WAT     H2 2650   1.890   3.223   3.816
  865WAT      O 2651   0.305   3.210   3.408
  865WAT     H1 2652   0.381   3.221   3.351
  865WAT     H2 2653   0.259   3.293   3.404
  866WAT      O 2654   0.959   3.421   3.707
  866WAT     H1 2655   0.878   3.384   3.673
  866WAT     H2 2656   1.009   3.346   3.737
  867WAT      O 2657   1.409   3.088   3.831
  867WAT     H1 2658   1.470   3.145   3.879
  867WAT     H2 2659   1.335   3.144   3.809
  868WAT      O 2660   1.724   3.128   3.359
  868WAT     H1 2661   1.743   3.218   3.385
  868WAT     H2 2662   1.645   3.105   3.408
  869WAT      O 2663   0.542   3.262   3.262
  869WAT     H1 2664   0.595   3.184   3.249
  869WAT     H2 2665   0.605   3.330   3.286
  870WAT      O 2666   0.761   3.236   3.568
  870WAT     H1 2667   0.698   3.166   3.584
  870WAT     H2 2668   0.708   3.312   3.546
  871WAT      O 2669   1.325   3.907   1.905
  871WAT     H1 2670   1.317   3.816   1.878
  871WAT     H2 2671   1.283   3.957   1.835
  872WAT      O 2672   0.380   3.612   1.560
  872WAT     H1 2673   0.292   3.647   1.549
  872WAT     H2 2674   0.409   3.592   1.470
  873WAT      O 2675   0.177   3.872   2.148
  873WAT     H1 2676   0.234   3.796   2.148
  873WAT     H2 2677   0.177   3.902   2.057
  874WAT      O 2678   0.301   3.413   2.327
  874WAT     H1 2679   0.283   3.324   2.355
  874WAT     H2 2680   0.261   3.468   2.394
  875WAT      O 2681   1.185   3.633   2.117
  875WAT     H1 2682   1.223   3.546   2.106
  875WAT     H2 2683   1.175   3.667   2.028
  876WAT      O 2684   0.598   3.471   1.663
  876WAT     H1 2685   0.609   3.561   1.694
  876WAT     H2 2686   0.507   3.466   1.634
  877WAT      O 2687   1.563   3.383   1.810
  877WAT     H1 2688   1.645   3.334   1.814
  877WAT     H2 2689   1.567   3.442   1.886
  878WAT      O 2690   0.363   3.663   2.188
  878WAT     H1 2691   0.431   3.689   2.249
  878WAT     H2 2692   0.331   3.579   2.221
  879WAT      O 2693   0.782   3.768   2.096
  879WAT     H1 2694   0.833   3.817   2.160
  879WAT     H2 2695   0.835   3.690   2.079
  880WAT      O 2696   1.992   3.585   2.467
  880WAT     H1 2697   1.922   3.623   2.415
  880WAT     H2 2698   2.019   3.654   2.527
  881WAT      O 2699   0.611   3.232   2.523
  881WAT     H1 2700   0.611   3.283   2.442
  881WAT     H2 2701   0.528   3.184   2.521
  882WAT      O 2702   1.587   3.577   2.087
  882WAT     H1 2703   1.516   3.606   2.145
  882WAT     H2 2704   1.623   3.658   2.051
  883WAT      O 2705   0.579   3.403   2.324
  883WAT     H1 2706   0.613   3.487   2.294
  883WAT     H2 2707   0.485   3.418   2.335
  884WAT      O 2708   1.894   3.522   2.127
  884WAT     H1 2709   1.799   3.525   2.140
  884WAT     H2 2710   1.926   3.603   2.165
  885WAT      O 2711   0.947   3.152   1.956
  885WAT     H1 2712   0.978   3.096   1.884
  885WAT     H2 2713   0.854   3.165   1.938
  886WAT      O 2714   1.186   3.958   1.630
  886WAT     H1 2715   1.093   3.951   1.653
  886WAT     H2 2716   1.201   4.052   1.618
  887WAT      O 2717   1.184   3.585   1.329
  887WAT     H1 2718   1.091   3.601   1.338
  887WAT     H2 2719   1.216   3.657   1.275
  888WAT      O 2720   1.533   3.732   2.422
  888WAT     H1 2721   1.492   3.815   2.447
  888WAT     H2 2722   1.460   3.674   2.402
  889WAT      O 2723   0.746   4.011   1.908
  889WAT     H1 2724   0.706   3.939   1.858
  889WAT     H2 2725   0.755   3.976   1.997
  890WAT      O 2726   0.618   3.688   2.286
  890WAT     H1 2727   0.673   3.699   2.208
  890WAT     H2 2728   0.669   3.725   2.357
  891WAT      O 2729   1.765   3.164   1.212
  891WAT     H1 2730   1.733   3.173   1.302
  891WAT     H2 2731   1.841   3.221   1.207
  892WAT      O 2732   0.416   3.900   1.658
  892WAT     H1 2733   0.404   3.973   1.597
  892WAT     H2 2734   0.385   3.823   1.610
  893WAT      O 2735   1.886   3.637   2.810
  893WAT     H1 2736   1.824   3.688   2.757
  893WAT     H2 2737   1.854   3.547   2.804
  894WAT      O 2738   0.663   3.234   1.996
  894WAT     H1 2739   0.619   3.313   1.963
  894WAT     H2 2740   0.719   3.267   2.067
  895WAT      O 2741   1.092   3.521   2.557
  895WAT     H1 2742   1.046   3.542   2.638
  895WAT     H2 2743   1.052   3.440   2.526
  896WAT      O 2744   1.592   3.643   2.670
  896WAT     H1 2745   1.507   3.613   2.702
  896WAT     H2 2746   1.576   3.668   2.578
  897WAT      O 2747   1.301   3.793   2.880
  897WAT     H1 2748   1.334   3.710   2.846
  897WAT     H2 2749   1.380   3.846   2.894
  898WAT      O 2750   0.975   3.197   1.484
  898WAT     H1 2751   0.912   3.196   1.557
  898WAT     H2 2752   0.966   3.110   1.445
  899WAT      O 2753   0.867   3.289   2.182
  899WAT     H1 2754   0.897   3.380   2.174
  899WAT     H2 2755   0.922   3.240   2.121
  900WAT      O 2756   0.642   3.747   1.769
  900WAT     H1 2757   0.620   3.725   1.859
  900WAT     H2 2758   0.564   3.790   1.734
  901WAT      O 2759   1.365   3.747   1.629
  901WAT     H1 2760   1.305   3.820   1.611
  901WAT     H2 2761   1.420   3.741   1.551
  902WAT      O 2762   0.886   3.837   2.836
  902WAT     H1 2763   0.877   3.743   2.821
  902WAT     H2 2764   0.970   3.859   2.796
  903WAT      O 2765   1.226   3.611   1.832
  903WAT     H1 2766   1.265   3.643   1.751
  903WAT     H2 2767   1.262   3.523   1.843
  904WAT      O 2768   0.399   3.478   2.651
  904WAT     H1 2769   0.360   3.563   2.672
  904WAT     H2 2770   0.330   3.414   2.670
  905WAT      O 2771   1.057   3.486   2.958
  905WAT     H1 2772   0.988   3.467   3.021
  905WAT     H2 2773   1.131   3.514   3.011
  906WAT      O 2774   1.284   3.870   2.241
  906WAT     H1 2775   1.211   3.921   2.276
  906WAT     H2 2776   1.245   3.788   2.211
  907WAT      O 2777   0.928   3.538   2.082
  907WAT     H1 2778   0.928   3.494   1.997
  907WAT     H2 2779   1.018   3.570   2.093
  908WAT      O 2780   0.513   3.526   1.978
  908WAT     H1 2781   0.479   3.574   2.054
  908WAT     H2 2782   0.437   3.481   1.942
  909WAT      O 2783   0.934   3.638   1.381
  909WAT     H1 2784   0.946   3.634   1.476
  909WAT     H2 2785   0.896   3.724   1.366
  910WAT      O 2786   1.331   3.415   2.183
  910WAT     H1 2787   1.332   3.461   2.267
  910WAT     H2 2788   1.306   3.326   2.204
  911WAT      O 2789   0.836   3.869   1.321
  911WAT     H1 2790   0.779   3.824   1.258
  911WAT     H2 2791   0.906   3.905   1.268
  912WAT      O 2792   1.673   3.157   2.767
  912WAT     H1 2793   1.706   3.084   2.819
  912WAT     H2 2794   1.677   3.125   2.676
  913WAT      O 2795   0.958   3.944   2.257
  913WAT     H1 2796   0.995   3.896   2.331
  913WAT     H2 2797   0.939   4.031   2.291
  914WAT      O 2798   0.245   3.418   1.870
  914WAT     H1 2799   0.216   3.382   1.953
  914WAT     H2 2800   0.238   3.345   1.808
  915WAT      O 2801   0.737   3.848   2.488
  915WAT     H1 2802   0.707   3.936   2.511
  915WAT     H2 2803   0.833   3.854   2.492
  916WAT      O 2804   1.212   3.307   1.542
  916WAT     H1 2805   1.131   3.258   1.534
  916WAT     H2 2806   1.193   3.391   1.500
  917WAT      O 2807   1.483   3.745   1.371
  917WAT     H1 2808   1.572   3.776   1.354
  917WAT     H2 2809   1.481   3.657   1.332
  918WAT      O 2810   0.343   3.932   2.603
  918WAT     H1 2811   0.307   3.998   2.662
  918WAT     H2 2812   0.313   3.849   2.640
  919WAT      O 2813   0.663   3.978   2.892
  919WAT     H1 2814   0.633   3.992   2.802
  919WAT     H2 2815   0.740   3.922   2.882
  920WAT      O 2816   1.711   3.876   1.318
  920WAT     H1 2817   1.702   3.919   1.233
  920WAT     H2 2818   1.783   3.922   1.361
  921WAT      O 2819   0.500   3.105   1.725
  921WAT     H1 2820   0.488   3.104   1.820
  921WAT     H2 2821   0.418   3.139   1.690
  922WAT      O 2822   1.350   3.530   2.446
  922WAT     H1 2823   1.387   3.448   2.479
  922WAT     H2 2824   1.264   3.536   2.487
  923WAT      O 2825   1.686   3.426   1.527
  923WAT     H1 2826   1.623   3.436   1.455
  923WAT     H2 2827   1.637   3.447   1.606
  924WAT      O 2828   0.883   3.653   1.668
  924WAT     H1 2829   0.812   3.700   1.713
  924WAT     H2 2830   0.912   3.588   1.732
  925WAT      O 2831   1.046   3.795   2.468
  925WAT     H1 2832   1.096   3.843   2.535
  925WAT     H2 2833   1.060   3.703   2.489
  926WAT      O 2834   1.286   3.326   1.812
  926WAT     H1 2835   1.274   3.328   1.717
  926WAT     H2 2836   1.381   3.331   1.824
  927WAT      O 2837   0.704   3.484   1.406
  927WAT     H1 2838   0.788   3.528   1.399
  927WAT     H2 2839   0.667   3.515   1.489
  928WAT      O 2840   1.766   3.417   2.553
  928WAT     H1 2841   1.716   3.491   2.587
  928WAT     H2 2842   1.848   3.456   2.521
  929WAT      O 2843   1.596   3.941   1.897
  929WAT     H1 2844   1.502   3.943   1.915
  929WAT     H2 2845   1.627   3.863   1.942
  930WAT      O 2846   0.463   3.853   1.322
  930WAT     H1 2847   0.471   3.758   1.333
  930WAT     H2 2848   0.552   3.886   1.332
  931WAT      O 2849   0.419   3.849   2.935
  931WAT     H1 2850   0.423   3.819   3.026
  931WAT     H2 2851   0.504   3.889   2.919
  932WAT      O 2852   0.613   3.707   2.731
  932WAT     H1 2853   0.560   3.658   2.669
  932WAT     H2 2854   0.680   3.750   2.678
  933WAT      O 2855   1.550   3.888   2.908
  933WAT     H1 2856   1.608   3.812   2.899
  933WAT     H2 2857   1.568   3.941   2.831
  934WAT      O 2858   0.662   3.404   2.739
  934WAT     H1 2859   0.652   3.342   2.667
  934WAT     H2 2860   0.604   3.476   2.717
  935WAT      O 2861   0.938   3.260   2.443
  935WAT     H1 2862   0.893   3.262   2.358
  935WAT     H2 2863   0.875   3.220   2.502
  936WAT      O 2864   1.212   3.922   2.643
  936WAT     H1 2865   1.224   3.863   2.717
  936WAT     H2 2866   1.298   3.926   2.601
  937WAT      O 2867   1.446   3.978   2.501
  937WAT     H1 2868   1.394   4.030   2.440
  937WAT     H2 2869   1.481   4.041   2.564
  938WAT      O 2870   0.686   3.717   1.145
  938WAT     H1 2871   0.666   3.630   1.181
  938WAT     H2 2872   0.669   3.708   1.051
  939WAT      O 2873   0.889   3.576   2.769
  939WAT     H1 2874   0.948   3.546   2.838
  939WAT     H2 2875   0.807   3.529   2.785
  940WAT      O 2876   1.371   3.538   2.792
  940WAT     H1 2877   1.302   3.472   2.786
  940WAT     H2 2878   1.443   3.493   2.837
  941WAT      O 2879   1.434   3.198   1.398
  941WAT     H1 2880   1.462   3.113   1.434
  941WAT     H2 2881   1.357   3.221   1.450
  942WAT      O 2882   0.566   3.427   1.144
  942WAT     H1 2883   0.596   3.427   1.053
  942WAT     H2 2884   0.640   3.392   1.194
  943WAT      O 2885   0.888   3.321   1.243
  943WAT     H1 2886   0.853   3.253   1.185
  943WAT     H2 2887   0.908   3.275   1.324
  944WAT      O 2888   1.517   3.453   1.304
  944WAT     H1 2889   1.559   3.434   1.220
  944WAT     H2 2890   1.486   3.368   1.335
  945WAT      O 2891   1.867   3.944   1.674
  945WAT     H1 2892   1.829   3.868   1.631
  945WAT     H2 2893   1.794   3.983   1.723
  946WAT      O 2894   0.326   4.012   2.336
  946WAT     H1 2895   0.362   4.004   2.424
  946WAT     H2 2896   0.269   3.936   2.326
  947WAT      O 2897   1.806   3.859   2.638
  947WAT     H1 2898   1.783   3.836   2.548
  947WAT     H2 2899   1.832   3.951   2.633
  948WAT      O 2900   0.281   3.703   2.727
  948WAT     H1 2901   0.191   3.700   2.761
  948WAT     H2 2902   0.335   3.723   2.803
  949WAT      O 2903   1.650   3.382   2.915
  949WAT     H1 2904   1.737   3.383   2.954
  949WAT     H2 2905   1.651   3.308   2.854
  950WAT      O 2906   1.794   3.767   2.004
  950WAT     H1 2907   1.847   3.718   1.941
  950WAT     H2 2908   1.853   3.780   2.079
  951WAT      O 2909   1.812   3.775   2.356
  951WAT     H1 2910   1.717   3.772   2.368
  951WAT     H2 2911   1.830   3.866   2.333
  952WAT      O 2912   0.398   3.600   1.267
  952WAT     H1 2913   0.469   3.558   1.219
  952WAT     H2 2914   0.326   3.607   1.204
  953WAT      O 2915   0.362   3.206   1.171
  953WAT     H1 2916   0.435   3.260   1.203
  953WAT     H2 2917   0.390   3.178   1.084
  954WAT      O 2918   1.743   3.693   1.598
  954WAT     H1 2919   1.793   3.669   1.677
  954WAT     H2 2920   1.723   3.609   1.557
  955WAT      O 2921   0.331   3.131   2.162
  955WAT     H1 2922   0.396   3.076   2.118
  955WAT     H2 2923   0.373   3.156   2.244
  956WAT      O 2924   1.886   3.556   1.852
  956WAT     H1 2925   1.875   3.541   1.945
  956WAT     H2 2926   1.962   3.504   1.827
  957WAT      O 2927   1.721   3.150   2.497
  957WAT     H1 2928   1.785   3.212   2.534
  957WAT     H2 2929   1.736   3.154   2.403
  958WAT      O 2930   1.975   3.339   1.176
  958WAT     H1 2931   2.068   3.326   1.155
  958WAT     H2 2932   1.973   3.347   1.271
  959WAT      O 2933   1.982   3.417   1.438
  959WAT     H1 2934   1.903   3.410   1.491
  959WAT     H2 2935   2.003   3.510   1.437
  960WAT      O 2936   0.307   3.146   2.436
  960WAT     H1 2937   0.272   3.192   2.513
  960WAT     H2 2938   0.273   3.057   2.444
  961WAT      O 2939   1.058   3.266   2.788
  961WAT     H1 2940   1.052   3.325   2.863
  961WAT     H2 2941   1.152   3.255   2.774
  962WAT      O 2942   1.322   3.231   2.752
  962WAT     H1 2943   1.383   3.263   2.686
  962WAT     H2 2944   1.376   3.183   2.814
  963WAT      O 2945   0.374   3.099   2.763
  963WAT     H1 2946   0.429   3.081   2.687
  963WAT     H2 2947   0.380   3.020   2.817
  964WAT      O 2948   1.396   3.088   2.385
  964WAT     H1 2949   1.308   3.121   2.364
  964WAT     H2 2950   1.385   3.040   2.467
  965WAT      O 2951   1.486   3.308   2.523
  965WAT     H1 2952   1.454   3.227   2.485
  965WAT     H2 2953   1.581   3.304   2.511
  966WAT      O 2954   1.170   3.179   2.279
  966WAT     H1 2955   1.092   3.227   2.307
  966WAT     H2 2956   1.141   3.089   2.268
  967WAT      O 2957   1.626   3.249   2.083
  967WAT     H1 2958   1.670   3.244   1.998
  967WAT     H2 2959   1.599   3.341   2.090
  968WAT      O 2960   1.812   3.213   1.884
  968WAT     H1 2961   1.806   3.118   1.870
  968WAT     H2 2962   1.890   3.223   1.939
  969WAT      O 2963   0.305   3.210   1.531
  969WAT     H1 2964   0.381   3.221   1.473
  969WAT     H2 2965   0.259   3.293   1.526
  970WAT      O 2966   0.959   3.421   1.830
  970WAT     H1 2967   0.878   3.384   1.796
  970WAT     H2 2968   1.009   3.346   1.860
  971WAT      O 2969   1.409   3.088   1.954
  971WAT     H1 2970   1.470   3.145   2.001
  971WAT     H2 2971   1.335   3.144   1.931
  972WAT      O 2972   1.724   3.128   1.481
  972WAT     H1 2973   1.743   3.218   1.508
  972WAT     H2 2974   1.645   3.105   1.530
  973WAT      O 2975   0.542   3.262   1.385
  973WAT     H1 2976   0.595   3.184   1.372
  973WAT     H2 2977   0.605   3.330   1.408
  974WAT      O 2978   0.761   3.236   1.690
  974WAT     H1 2979   0.698   3.166   1.707
  974WAT     H2 2980   0.708   3.312   1.669
  975WAT      O 2981   0.774   3.164   2.934
  975WAT     H1 2982   0.746   3.214   2.857
  975WAT     H2 2983   0.812   3.084   2.897
  976WAT      O 2984   1.434   3.105   2.992
  976WAT     H1 2985   1.423   3.137   3.081
  976WAT     H2 2986   1.516   3.146   2.962
  977WAT      O 2987   0.177   3.872   0.271
  977WAT     H1 2988   0.234   3.796   0.271
  977WAT     H2 2989   0.177   3.902   0.180
  978WAT      O 2990   0.301   3.413   0.449
  978WAT     H1 2991   0.283   3.324   0.477
  978WAT     H2 2992   0.261   3.468   0.517
  979WAT      O 2993   1.185   3.633   0.239
  979WAT     H1 2994   1.223   3.546   0.228
  979WAT     H2 2995   1.175   3.667   0.150
  980WAT      O 2996   0.363   3.663   0.310
  980WAT     H1 2997   0.431   3.689   0.372
  980WAT     H2 2998   0.331   3.579   0.344
  981WAT      O 2999   0.782   3.768   0.219
  981WAT     H1 3000   0.833   3.817   0.283
  981WAT     H2 3001   0.835   3.690   0.201
  982WAT      O 3002   1.992   3.585   0.589
  982WAT     H1 3003   1.922   3.623   0.537
  982WAT     H2 3004   2.019   3.654   0.649
  983WAT      O 3005   0.611   3.232   0.646
  983WAT     H1 3006   0.611   3.283   0.565
  983WAT     H2 3007   0.528   3.184   0.643
  984WAT      O 3008   1.587   3.577   0.210
  984WAT     H1 3009   1.516   3.606   0.268
  984WAT     H2 3010   1.623   3.658   0.174
  985WAT      O 3011   0.579   3.403   0.446
  985WAT     H1 3012   0.613   3.487   0.417
  985WAT     H2 3013   0.485   3.418   0.458
  986WAT      O 3014   1.894   3.522   0.249
  986WAT     H1 3015   1.799   3.525   0.262
  986WAT     H2 3016   1.926   3.603   0.288
  987WAT      O 3017   1.533   3.732   0.544
  987WAT     H1 3018   1.492   3.815   0.570
  987WAT     H2 3019   1.460   3.674   0.525
  988WAT      O 3020   0.618   3.688   0.408
  988WAT     H1 3021   0.673   3.699   0.331
  988WAT     H2 3022   0.669   3.725   0.480
  989WAT      O 3023   1.886   3.637   0.933
  989WAT     H1 3024   1.824   3.688   0.880
  989WAT     H2 3025   1.854   3.547   0.927
  990WAT      O 3026   1.092   3.521   0.679
  990WAT     H1 3027   1.046   3.542   0.760
  990WAT     H2 3028   1.052   3.440   0.649
  991WAT      O 3029   1.592   3.643   0.792
  991WAT     H1 3030   1.507   3.613   0.824
  991WAT     H2 3031   1.576   3.668   0.701
  992WAT      O 3032   1.301   3.793   1.002
  992WAT     H1 3033   1.334   3.710   0.968
  992WAT     H2 3034   1.380   3.846   1.017
  993WAT      O 3035   0.867   3.289   0.305
  993WAT     H1 3036   0.897   3.380   0.297
  993WAT     H2 3037   0.922   3.240   0.243
  994WAT      O 3038   0.886   3.837   0.958
  994WAT     H1 3039   0.877   3.743   0.943
  994WAT     H2 3040   0.970   3.859   0.919
  995WAT      O 3041   0.399   3.478   0.774
  995WAT     H1 3042   0.360   3.563   0.794
  995WAT     H2 3043   0.330   3.414   0.793
  996WAT      O 3044   1.057   3.486   1.080
  996WAT     H1 3045   0.988   3.467   1.144
  996WAT     H2 3046   1.131   3.514   1.134
  997WAT      O 3047   1.284   3.870   0.364
  997WAT     H1 3048   1.211   3.921   0.399
  997WAT     H2 3049   1.245   3.788   0.334
  998WAT      O 3050   1.331   3.415   0.305
  998WAT     H1 3051   1.332   3.461   0.390
  998WAT     H2 3052   1.306   3.326   0.327
  999WAT      O 3053   1.673   3.157   0.889
  999WAT     H1 3054   1.706   3.084   0.942
  999WAT     H2 3055   1.677   3.125   0.799
 1000WAT      O 3056   0.958   3.944   0.379
 1000WAT     H1 3057   0.995   3.896   0.454
 1000WAT     H2 3058   0.939   4.031   0.413
 1001WAT      O 3059   0.737   3.848   0.611
 1001WAT     H1 3060   0.707   3.936   0.634
 1001WAT     H2 3061   0.833   3.854   0.615
 1002WAT      O 3062   0.343   3.932   0.726
 1002WAT     H1 3063   0.307   3.998   0.785
 1002WAT     H2 3064   0.313   3.849   0.763
 1003WAT      O 3065   0.663   3.978   1.014
 1003WAT     H1 3066   0.633   3.992   0.924
 1003WAT     H2 3067   0.740   3.922   1.005
 1004WAT      O 3068   1.350   3.530   0.569
 1004WAT     H1 3069   1.387   3.448   0.601
 1004WAT     H2 3070   1.264   3.536   0.610
 1005WAT      O 3071   1.046   3.795   0.591
 1005WAT     H1 3072   1.096   3.843   0.657
 1005WAT     H2 3073   1.060   3.703   0.612
 1006WAT      O 3074   1.766   3.417   0.675
 1006WAT     H1 3075   1.716   3.491   0.709
 1006WAT     H2 3076   1.848   3.456   0.644
 1007WAT      O 3077   0.419   3.849   1.057
 1007WAT     H1 3078   0.423   3.819   1.148
 1007WAT     H2 3079   0.504   3.889   1.041
 1008WAT      O 3080   0.613   3.707   0.854
 1008WAT     H1 3081   0.560   3.658   0.791
 1008WAT     H2 3082   0.680   3.750   0.801
 1009WAT      O 3083   1.550   3.888   1.031
 1009WAT     H1 3084   1.608   3.812   1.022
 1009WAT     H2 3085   1.568   3.941   0.953
 1010WAT      O 3086   0.662   3.404   0.862
 1010WAT     H1 3087   0.652   3.342   0.789
 1010WAT     H2 3088   0.604   3.476   0.839
 1011WAT      O 3089   0.938   3.260   0.565
 1011WAT     H1 3090   0.893   3.262   0.481
 1011WAT     H2 3091   0.875   3.220   0.625
 1012WAT      O 3092   1.212   3.922   0.766
 1012WAT     H1 3093   1.224   3.863   0.840
 1012WAT     H2 3094   1.298   3.926   0.724
 1013WAT      O 3095   1.446   3.978   0.623
 1013WAT     H1 3096   1.394   4.030   0.563
 1013WAT     H2 3097   1.481   4.041   0.686
 1014WAT      O 3098   0.889   3.576   0.891
 1014WAT     H1 3099   0.948   3.546   0.960
 1014WAT     H2 3100   0.807   3.529   0.907
 1015WAT      O 3101   1.371   3.538   0.915
 1015WAT     H1 3102   1.302   3.472   0.908
 1015WAT     H2 3103   1.443   3.493   0.959
 1016WAT      O 3104   0.326   4.012   0.459
 1016WAT     H1 3105   0.362   4.004   0.547
 1016WAT     H2 3106   0.269   3.936   0.449
 1017WAT      O 3107   1.806   3.859   0.760
 1017WAT     H1 3108   1.783   3.836   0.670
 1017WAT     H2 3109   1.832   3.951   0.756
 1018WAT      O 3110   0.281   3.703   0.849
 1018WAT     H1 3111   0.191   3.700   0.883
 1018WAT     H2 3112   0.335   3.723   0.926
 1019WAT      O 3113   1.650   3.382   1.038
 1019WAT     H1 3114   1.737   3.383   1.076
 1019WAT     H2 3115   1.651   3.308   0.977
 1020WAT      O 3116   1.812   3.775   0.479
 1020WAT     H1 3117   1.717   3.772   0.490
 1020WAT     H2 3118   1.830   3.866   0.456
 1021WAT      O 3119   0.331   3.131   0.284
 1021WAT     H1 3120   0.396   3.076   0.240
 1021WAT     H2 3121   0.373   3.156   0.366
 1022WAT      O 3122   1.721   3.150   0.620
 1022WAT     H1 3123   1.785   3.212   0.657
 1022WAT     H2 3124   1.736   3.154   0.525
 1023WAT      O 3125   0.307   3.146   0.559
 1023WAT     H1 3126   0.272   3.192   0.635
 1023WAT     H2 3127   0.273   3.057   0.567
 1024WAT      O 3128   1.058   3.266   0.911
 1024WAT     H1 3129   1.052   3.325   0.986
 1024WAT     H2 3130   1.152   3.255   0.896
 1025WAT      O 3131   1.322   3.231   0.875
 1025WAT     H1 3132   1.383   3.263   0.808
 1025WAT     H2 3133   1.376   3.183   0.937
 1026WAT      O 3134   0.374   3.099   0.886
 1026WAT     H1 3135   0.429   3.081   0.810
 1026WAT     H2 3136   0.380   3.020   0.940
 1027WAT      O 3137   1.396   3.088   0.507
 1027WAT     H1 3138   1.308   3.121   0.487
 1027WAT     H2 3139   1.385   3.040   0.590
 1028WAT      O 3140   1.486   3.308   0.646
 1028WAT     H1 3141   1.454   3.227   0.608
 1028WAT     H2 3142   1.581   3.304   0.633
 1029WAT      O 3143   1.170   3.179   0.401
 1029WAT     H1 3144   1.092   3.227   0.429
 1029WAT     H2 3145   1.141   3.089   0.390
 1030WAT      O 3146   0.774   3.164   1.056
 1030WAT     H1 3147   0.746   3.214   0.980
 1030WAT     H2 3148   0.812   3.084   1.020
 1031WAT      O 3149   1.434   3.105   1.114
 1031WAT     H1 3150   1.423   3.137   1.204
 1031WAT     H2 3151   1.516   3.146   1.085
 1032WAT      O 3152   1.325   2.030   3.783
 1032WAT     H1 3153   1.317   1.939   3.756
 1032WAT     H2 3154   1.283   2.080   3.712
 1033WAT      O 3155   1.540   2.648   3.849
 1033WAT     H1 3156   1.494   2.571   3.882
 1033WAT     H2 3157   1.621   2.651   3.899
 1034WAT      O 3158   0.380   1.735   3.437
 1034WAT     H1 3159   0.292   1.769   3.427
 1034WAT     H2 3160   0.409   1.715   3.348
 1035WAT      O 3161   1.163   2.877   3.811
 1035WAT     H1 3162   1.101   2.923   3.754
 1035WAT     H2 3163   1.248   2.892   3.771
 1036WAT      O 3164   0.598   1.593   3.541
 1036WAT     H1 3165   0.609   1.683   3.571
 1036WAT     H2 3166   0.507   1.588   3.511
 1037WAT      O 3167   1.563   1.506   3.688
 1037WAT     H1 3168   1.645   1.457   3.692
 1037WAT     H2 3169   1.567   1.565   3.763
 1038WAT      O 3170   1.249   2.365   3.550
 1038WAT     H1 3171   1.187   2.412   3.494
 1038WAT     H2 3172   1.300   2.435   3.592
 1039WAT      O 3173   0.947   1.274   3.834
 1039WAT     H1 3174   0.978   1.219   3.762
 1039WAT     H2 3175   0.854   1.288   3.815
 1040WAT      O 3176   1.632   2.518   3.572
 1040WAT     H1 3177   1.621   2.424   3.584
 1040WAT     H2 3178   1.631   2.554   3.660
 1041WAT      O 3179   1.186   2.081   3.507
 1041WAT     H1 3180   1.093   2.074   3.530
 1041WAT     H2 3181   1.201   2.174   3.496
 1042WAT      O 3182   1.184   1.708   3.207
 1042WAT     H1 3183   1.091   1.724   3.215
 1042WAT     H2 3184   1.216   1.780   3.152
 1043WAT      O 3185   1.589   2.237   3.557
 1043WAT     H1 3186   1.527   2.203   3.493
 1043WAT     H2 3187   1.587   2.172   3.628
 1044WAT      O 3188   0.746   2.133   3.785
 1044WAT     H1 3189   0.706   2.062   3.736
 1044WAT     H2 3190   0.755   2.099   3.874
 1045WAT      O 3191   1.406   2.161   3.258
 1045WAT     H1 3192   1.450   2.077   3.244
 1045WAT     H2 3193   1.478   2.224   3.267
 1046WAT      O 3194   1.217   2.655   3.655
 1046WAT     H1 3195   1.261   2.729   3.614
 1046WAT     H2 3196   1.211   2.679   3.747
 1047WAT      O 3197   1.765   1.286   3.090
 1047WAT     H1 3198   1.733   1.295   3.180
 1047WAT     H2 3199   1.841   1.344   3.085
 1048WAT      O 3200   0.416   2.023   3.535
 1048WAT     H1 3201   0.404   2.095   3.474
 1048WAT     H2 3202   0.385   1.946   3.488
 1049WAT      O 3203   0.305   2.510   3.757
 1049WAT     H1 3204   0.264   2.524   3.672
 1049WAT     H2 3205   0.394   2.481   3.737
 1050WAT      O 3206   1.484   2.953   3.391
 1050WAT     H1 3207   1.468   2.924   3.480
 1050WAT     H2 3208   1.468   2.876   3.337
 1051WAT      O 3209   0.732   2.931   3.568
 1051WAT     H1 3210   0.714   2.840   3.547
 1051WAT     H2 3211   0.647   2.967   3.592
 1052WAT      O 3212   1.454   2.704   3.247
 1052WAT     H1 3213   1.385   2.704   3.181
 1052WAT     H2 3214   1.529   2.662   3.204
 1053WAT      O 3215   1.411   2.867   3.654
 1053WAT     H1 3216   1.456   2.789   3.686
 1053WAT     H2 3217   1.445   2.938   3.709
 1054WAT      O 3218   0.663   1.357   3.874
 1054WAT     H1 3219   0.619   1.435   3.840
 1054WAT     H2 3220   0.719   1.389   3.944
 1055WAT      O 3221   0.975   1.319   3.362
 1055WAT     H1 3222   0.912   1.319   3.434
 1055WAT     H2 3223   0.966   1.232   3.322
 1056WAT      O 3224   0.642   1.869   3.646
 1056WAT     H1 3225   0.620   1.848   3.737
 1056WAT     H2 3226   0.564   1.913   3.612
 1057WAT      O 3227   1.365   1.870   3.506
 1057WAT     H1 3228   1.305   1.942   3.488
 1057WAT     H2 3229   1.420   1.864   3.428
 1058WAT      O 3230   1.226   1.734   3.709
 1058WAT     H1 3231   1.265   1.765   3.628
 1058WAT     H2 3232   1.262   1.646   3.721
 1059WAT      O 3233   0.928   1.660   3.959
 1059WAT     H1 3234   0.928   1.616   3.874
 1059WAT     H2 3235   1.018   1.692   3.970
 1060WAT      O 3236   0.513   1.648   3.855
 1060WAT     H1 3237   0.479   1.696   3.931
 1060WAT     H2 3238   0.437   1.603   3.819
 1061WAT      O 3239   0.934   1.760   3.258
 1061WAT     H1 3240   0.946   1.756   3.353
 1061WAT     H2 3241   0.896   1.847   3.243
 1062WAT      O 3242   0.836   1.991   3.198
 1062WAT     H1 3243   0.779   1.947   3.136
 1062WAT     H2 3244   0.906   2.027   3.145
 1063WAT      O 3245   0.245   1.541   3.747
 1063WAT     H1 3246   0.216   1.504   3.831
 1063WAT     H2 3247   0.238   1.467   3.686
 1064WAT      O 3248   0.590   2.391   3.426
 1064WAT     H1 3249   0.513   2.337   3.410
 1064WAT     H2 3250   0.663   2.339   3.392
 1065WAT      O 3251   1.212   1.430   3.419
 1065WAT     H1 3252   1.131   1.380   3.412
 1065WAT     H2 3253   1.193   1.514   3.378
 1066WAT      O 3254   1.483   1.867   3.249
 1066WAT     H1 3255   1.572   1.898   3.231
 1066WAT     H2 3256   1.481   1.780   3.210
 1067WAT      O 3257   0.594   2.358   3.789
 1067WAT     H1 3258   0.646   2.277   3.784
 1067WAT     H2 3259   0.549   2.352   3.874
 1068WAT      O 3260   1.083   2.484   3.317
 1068WAT     H1 3261   1.117   2.559   3.267
 1068WAT     H2 3262   1.000   2.516   3.353
 1069WAT      O 3263   1.711   1.998   3.196
 1069WAT     H1 3264   1.702   2.041   3.111
 1069WAT     H2 3265   1.783   2.044   3.239
 1070WAT      O 3266   1.814   2.684   3.468
 1070WAT     H1 3267   1.749   2.618   3.496
 1070WAT     H2 3268   1.775   2.724   3.391
 1071WAT      O 3269   1.371   2.417   3.853
 1071WAT     H1 3270   1.407   2.357   3.787
 1071WAT     H2 3271   1.283   2.384   3.870
 1072WAT      O 3272   0.980   2.493   3.594
 1072WAT     H1 3273   1.049   2.547   3.632
 1072WAT     H2 3274   0.901   2.547   3.597
 1073WAT      O 3275   0.910   2.193   3.555
 1073WAT     H1 3276   0.956   2.274   3.578
 1073WAT     H2 3277   0.875   2.161   3.638
 1074WAT      O 3278   0.500   1.227   3.602
 1074WAT     H1 3279   0.488   1.227   3.697
 1074WAT     H2 3280   0.418   1.261   3.567
 1075WAT      O 3281   1.652   2.573   3.122
 1075WAT     H1 3282   1.630   2.501   3.181
 1075WAT     H2 3283   1.613   2.548   3.038
 1076WAT      O 3284   0.231   2.976   3.200
 1076WAT     H1 3285   0.267   3.035   3.134
 1076WAT     H2 3286   0.217   3.030   3.277
 1077WAT      O 3287   1.611   2.365   3.288
 1077WAT     H1 3288   1.582   2.411   3.367
 1077WAT     H2 3289   1.690   2.319   3.315
 1078WAT      O 3290   0.832   2.714   3.281
 1078WAT     H1 3291   0.831   2.787   3.220
 1078WAT     H2 3292   0.740   2.689   3.291
 1079WAT      O 3293   0.392   2.236   3.356
 1079WAT     H1 3294   0.332   2.310   3.357
 1079WAT     H2 3295   0.440   2.245   3.273
 1080WAT      O 3296   1.686   1.548   3.404
 1080WAT     H1 3297   1.623   1.559   3.333
 1080WAT     H2 3298   1.637   1.570   3.483
 1081WAT      O 3299   1.131   2.720   3.148
 1081WAT     H1 3300   1.141   2.700   3.055
 1081WAT     H2 3301   1.041   2.695   3.168
 1082WAT      O 3302   0.883   1.776   3.546
 1082WAT     H1 3303   0.812   1.823   3.590
 1082WAT     H2 3304   0.912   1.710   3.609
 1083WAT      O 3305   1.286   1.448   3.690
 1083WAT     H1 3306   1.274   1.450   3.595
 1083WAT     H2 3307   1.381   1.453   3.702
 1084WAT      O 3308   0.995   2.972   3.617
 1084WAT     H1 3309   1.021   2.968   3.525
 1084WAT     H2 3310   0.900   2.959   3.616
 1085WAT      O 3311   0.704   1.607   3.283
 1085WAT     H1 3312   0.788   1.650   3.277
 1085WAT     H2 3313   0.667   1.638   3.366
 1086WAT      O 3314   1.596   2.064   3.775
 1086WAT     H1 3315   1.502   2.065   3.792
 1086WAT     H2 3316   1.627   1.985   3.819
 1087WAT      O 3317   0.593   2.232   3.131
 1087WAT     H1 3318   0.670   2.221   3.187
 1087WAT     H2 3319   0.601   2.162   3.065
 1088WAT      O 3320   0.463   1.975   3.199
 1088WAT     H1 3321   0.471   1.881   3.210
 1088WAT     H2 3322   0.552   2.008   3.210
 1089WAT      O 3323   0.543   2.990   3.909
 1089WAT     H1 3324   0.617   2.935   3.936
 1089WAT     H2 3325   0.581   3.077   3.895
 1090WAT      O 3326   0.854   2.908   3.092
 1090WAT     H1 3327   0.933   2.937   3.046
 1090WAT     H2 3328   0.802   2.865   3.024
 1091WAT      O 3329   1.759   2.830   3.234
 1091WAT     H1 3330   1.731   2.789   3.153
 1091WAT     H2 3331   1.740   2.923   3.222
 1092WAT      O 3332   0.906   2.430   3.078
 1092WAT     H1 3333   0.895   2.368   3.151
 1092WAT     H2 3334   0.889   2.377   3.000
 1093WAT      O 3335   1.230   2.336   3.138
 1093WAT     H1 3336   1.175   2.381   3.203
 1093WAT     H2 3337   1.292   2.285   3.191
 1094WAT      O 3338   0.797   2.232   3.328
 1094WAT     H1 3339   0.839   2.215   3.412
 1094WAT     H2 3340   0.809   2.151   3.279
 1095WAT      O 3341   1.048   2.134   3.053
 1095WAT     H1 3342   1.100   2.063   3.016
 1095WAT     H2 3343   1.113   2.198   3.083
 1096WAT      O 3344   0.686   1.839   3.023
 1096WAT     H1 3345   0.666   1.753   3.059
 1096WAT     H2 3346   0.669   1.830   2.929
 1097WAT      O 3347   1.434   1.320   3.276
 1097WAT     H1 3348   1.462   1.236   3.311
 1097WAT     H2 3349   1.357   1.343   3.327
 1098WAT      O 3350   0.566   1.549   3.021
 1098WAT     H1 3351   0.596   1.550   2.931
 1098WAT     H2 3352   0.640   1.514   3.071
 1099WAT      O 3353   0.888   1.443   3.120
 1099WAT     H1 3354   0.853   1.376   3.062
 1099WAT     H2 3355   0.908   1.397   3.201
 1100WAT      O 3356   1.104   2.942   3.282
 1100WAT     H1 3357   1.194   2.976   3.284
 1100WAT     H2 3358   1.108   2.870   3.219
 1101WAT      O 3359   0.468   2.480   3.105
 1101WAT     H1 3360   0.512   2.534   3.170
 1101WAT     H2 3361   0.517   2.397   3.106
 1102WAT      O 3362   0.190   2.758   3.850
 1102WAT     H1 3363   0.223   2.672   3.827
 1102WAT     H2 3364   0.233   2.779   3.933
 1103WAT      O 3365   0.649   2.592   3.616
 1103WAT     H1 3366   0.619   2.579   3.706
 1103WAT     H2 3367   0.639   2.506   3.575
 1104WAT      O 3368   1.926   2.569   3.086
 1104WAT     H1 3369   1.843   2.576   3.133
 1104WAT     H2 3370   1.944   2.659   3.056
 1105WAT      O 3371   1.872   2.244   3.337
 1105WAT     H1 3372   1.948   2.301   3.347
 1105WAT     H2 3373   1.873   2.187   3.414
 1106WAT      O 3374   1.973   2.329   3.821
 1106WAT     H1 3375   2.010   2.251   3.780
 1106WAT     H2 3376   2.037   2.398   3.803
 1107WAT      O 3377   1.877   2.273   3.052
 1107WAT     H1 3378   1.905   2.364   3.040
 1107WAT     H2 3379   1.858   2.267   3.146
 1108WAT      O 3380   1.517   1.576   3.182
 1108WAT     H1 3381   1.559   1.557   3.098
 1108WAT     H2 3382   1.486   1.491   3.213
 1109WAT      O 3383   1.867   2.067   3.552
 1109WAT     H1 3384   1.829   1.990   3.508
 1109WAT     H2 3385   1.794   2.105   3.600
 1110WAT      O 3386   1.794   1.890   3.882
 1110WAT     H1 3387   1.847   1.840   3.819
 1110WAT     H2 3388   1.853   1.903   3.956
 1111WAT      O 3389   0.398   1.723   3.145
 1111WAT     H1 3390   0.469   1.681   3.096
 1111WAT     H2 3391   0.326   1.730   3.082
 1112WAT      O 3392   0.362   1.328   3.049
 1112WAT     H1 3393   0.435   1.382   3.081
 1112WAT     H2 3394   0.390   1.301   2.961
 1113WAT      O 3395   1.743   1.815   3.476
 1113WAT     H1 3396   1.793   1.792   3.554
 1113WAT     H2 3397   1.723   1.731   3.434
 1114WAT      O 3398   1.886   1.679   3.729
 1114WAT     H1 3399   1.875   1.663   3.823
 1114WAT     H2 3400   1.962   1.626   3.705
 1115WAT      O 3401   1.975   1.462   3.053
 1115WAT     H1 3402   2.068   1.449   3.032
 1115WAT     H2 3403   1.973   1.470   3.148
 1116WAT      O 3404   1.982   1.539   3.316
 1116WAT     H1 3405   1.903   1.533   3.369
 1116WAT     H2 3406   2.003   1.633   3.314
 1117WAT      O 3407   1.677   2.943   3.715
 1117WAT     H1 3408   1.736   2.911   3.647
 1117WAT     H2 3409   1.702   2.896   3.794
 1118WAT      O 3410   1.626   1.372   3.961
 1118WAT     H1 3411   1.670   1.367   3.876
 1118WAT     H2 3412   1.599   1.464   3.968
 1119WAT      O 3413   1.812   1.335   3.762
 1119WAT     H1 3414   1.806   1.241   3.747
 1119WAT     H2 3415   1.890   1.346   3.816
 1120WAT      O 3416   0.305   1.332   3.408
 1120WAT     H1 3417   0.381   1.344   3.351
 1120WAT     H2 3418   0.259   1.416   3.404
 1121WAT      O 3419   0.959   1.544   3.707
 1121WAT     H1 3420   0.878   1.506   3.673
 1121WAT     H2 3421   1.009   1.468   3.737
 1122WAT      O 3422   1.409   1.210   3.831
 1122WAT     H1 3423   1.470   1.267   3.879
 1122WAT     H2 3424   1.335   1.267   3.809
 1123WAT      O 3425   1.724   1.250   3.359
 1123WAT     H1 3426   1.743   1.340   3.385
 1123WAT     H2 3427   1.645   1.227   3.408
 1124WAT      O 3428   0.403   2.818   3.402
 1124WAT     H1 3429   0.351   2.857   3.332
 1124WAT     H2 3430   0.396   2.881   3.475
 1125WAT      O 3431   0.542   1.385   3.262
 1125WAT     H1 3432   0.595   1.306   3.249
 1125WAT     H2 3433   0.605   1.453   3.286
 1126WAT      O 3434   0.761   1.359   3.568
 1126WAT     H1 3435   0.698   1.289   3.584
 1126WAT     H2 3436   0.708   1.435   3.546
 1127WAT      O 3437   1.879   2.974   3.535
 1127WAT     H1 3438   1.896   2.906   3.470
 1127WAT     H2 3439   1.809   3.027   3.495
 1128WAT      O 3440   0.663   3.013   3.290
 1128WAT     H1 3441   0.736   2.985   3.235
 1128WAT     H2 3442   0.689   2.989   3.379
 1129WAT      O 3443   0.579   2.625   3.290
 1129WAT     H1 3444   0.516   2.672   3.345
 1129WAT     H2 3445   0.591   2.540   3.334
 1130WAT      O 3446   1.325   2.030   1.905
 1130WAT     H1 3447   1.317   1.939   1.878
 1130WAT     H2 3448   1.283   2.080   1.835
 1131WAT      O 3449   1.138   2.208   2.094
 1131WAT     H1 3450   1.060   2.160   2.122
 1131WAT     H2 3451   1.203   2.140   2.076
 1132WAT      O 3452   0.540   2.239   2.181
 1132WAT     H1 3453   0.456   2.213   2.221
 1132WAT     H2 3454   0.600   2.246   2.255
 1133WAT      O 3455   0.538   2.642   2.201
 1133WAT     H1 3456   0.568   2.553   2.183
 1133WAT     H2 3457   0.612   2.698   2.178
 1134WAT      O 3458   0.380   1.735   1.560
 1134WAT     H1 3459   0.292   1.769   1.549
 1134WAT     H2 3460   0.409   1.715   1.470
 1135WAT      O 3461   0.177   1.995   2.148
 1135WAT     H1 3462   0.234   1.918   2.148
 1135WAT     H2 3463   0.177   2.025   2.057
 1136WAT      O 3464   1.163   2.877   1.934
 1136WAT     H1 3465   1.101   2.923   1.876
 1136WAT     H2 3466   1.248   2.892   1.893
 1137WAT      O 3467   1.082   2.475   2.094
 1137WAT     H1 3468   1.075   2.381   2.078
 1137WAT     H2 3469   1.158   2.484   2.151
 1138WAT      O 3470   0.301   1.536   2.327
 1138WAT     H1 3471   0.283   1.446   2.355
 1138WAT     H2 3472   0.261   1.591   2.394
 1139WAT      O 3473   1.185   1.756   2.117
 1139WAT     H1 3474   1.223   1.669   2.106
 1139WAT     H2 3475   1.175   1.790   2.028
 1140WAT      O 3476   0.598   1.593   1.663
 1140WAT     H1 3477   0.609   1.683   1.694
 1140WAT     H2 3478   0.507   1.588   1.634
 1141WAT      O 3479   1.563   1.506   1.810
 1141WAT     H1 3480   1.645   1.457   1.814
 1141WAT     H2 3481   1.567   1.565   1.886
 1142WAT      O 3482   0.363   1.785   2.188
 1142WAT     H1 3483   0.431   1.812   2.249
 1142WAT     H2 3484   0.331   1.702   2.221
 1143WAT      O 3485   0.782   1.890   2.096
 1143WAT     H1 3486   0.833   1.940   2.160
 1143WAT     H2 3487   0.835   1.813   2.079
 1144WAT      O 3488   0.611   1.354   2.523
 1144WAT     H1 3489   0.611   1.406   2.442
 1144WAT     H2 3490   0.528   1.306   2.521
 1145WAT      O 3491   1.249   2.365   1.673
 1145WAT     H1 3492   1.187   2.412   1.616
 1145WAT     H2 3493   1.300   2.435   1.715
 1146WAT      O 3494   0.736   2.318   2.341
 1146WAT     H1 3495   0.702   2.381   2.405
 1146WAT     H2 3496   0.753   2.371   2.263
 1147WAT      O 3497   1.587   1.700   2.087
 1147WAT     H1 3498   1.516   1.728   2.145
 1147WAT     H2 3499   1.623   1.781   2.051
 1148WAT      O 3500   0.579   1.525   2.324
 1148WAT     H1 3501   0.613   1.610   2.294
 1148WAT     H2 3502   0.485   1.540   2.335
 1149WAT      O 3503   0.657   2.515   2.522
 1149WAT     H1 3504   0.719   2.582   2.494
 1149WAT     H2 3505   0.571   2.556   2.513
 1150WAT      O 3506   0.947   1.274   1.956
 1150WAT     H1 3507   0.978   1.219   1.884
 1150WAT     H2 3508   0.854   1.288   1.938
 1151WAT      O 3509   1.632   2.518   1.694
 1151WAT     H1 3510   1.621   2.424   1.707
 1151WAT     H2 3511   1.631   2.554   1.783
 1152WAT      O 3512   1.186   2.081   1.630
 1152WAT     H1 3513   1.093   2.074   1.653
 1152WAT     H2 3514   1.201   2.174   1.618
 1153WAT      O 3515   1.184   1.708   1.329
 1153WAT     H1 3516   1.091   1.724   1.338
 1153WAT     H2 3517   1.216   1.780   1.275
 1154WAT      O 3518   1.589   2.237   1.680
 1154WAT     H1 3519   1.527   2.203   1.615
 1154WAT     H2 3520   1.587   2.172   1.751
 1155WAT      O 3521   0.746   2.133   1.908
 1155WAT     H1 3522   0.706   2.062   1.858
 1155WAT     H2 3523   0.755   2.099   1.997
 1156WAT      O 3524   0.793   2.502   2.124
 1156WAT     H1 3525   0.763   2.441   2.056
 1156WAT     H2 3526   0.888   2.506   2.113
 1157WAT      O 3527   0.618   1.811   2.286
 1157WAT     H1 3528   0.673   1.822   2.208
 1157WAT     H2 3529   0.669   1.848   2.357
 1158WAT      O 3530   0.702   2.476   2.789
 1158WAT     H1 3531   0.613   2.498   2.814
 1158WAT     H2 3532   0.705   2.488   2.694
 1159WAT      O 3533   1.406   2.161   1.381
 1159WAT     H1 3534   1.450   2.077   1.366
 1159WAT     H2 3535   1.478   2.224   1.389
 1160WAT      O 3536   0.585   2.163   2.647
 1160WAT     H1 3537   0.571   2.250   2.684
 1160WAT     H2 3538   0.497   2.129   2.632
 1161WAT      O 3539   1.217   2.655   1.778
 1161WAT     H1 3540   1.261   2.729   1.736
 1161WAT     H2 3541   1.211   2.679   1.870
 1162WAT      O 3542   0.765   2.757   2.868
 1162WAT     H1 3543   0.762   2.797   2.781
 1162WAT     H2 3544   0.749   2.664   2.852
 1163WAT      O 3545   1.765   1.286   1.212
 1163WAT     H1 3546   1.733   1.295   1.302
 1163WAT     H2 3547   1.841   1.344   1.207
 1164WAT      O 3548   0.416   2.023   1.658
 1164WAT     H1 3549   0.404   2.095   1.597
 1164WAT     H2 3550   0.385   1.946   1.610
 1165WAT      O 3551   1.960   2.835   2.997
 1165WAT     H1 3552   2.008   2.883   3.065
 1165WAT     H2 3553   2.022   2.829   2.925
 1166WAT      O 3554   0.180   2.340   2.239
 1166WAT     H1 3555   0.188   2.353   2.144
 1166WAT     H2 3556   0.242   2.269   2.258
 1167WAT      O 3557   0.305   2.510   1.880
 1167WAT     H1 3558   0.264   2.524   1.794
 1167WAT     H2 3559   0.394   2.481   1.859
 1168WAT      O 3560   1.287   2.925   2.570
 1168WAT     H1 3561   1.338   2.916   2.651
 1168WAT     H2 3562   1.202   2.959   2.600
 1169WAT      O 3563   1.484   2.953   1.513
 1169WAT     H1 3564   1.468   2.924   1.603
 1169WAT     H2 3565   1.468   2.876   1.460
 1170WAT      O 3566   0.732   2.931   1.691
 1170WAT     H1 3567   0.714   2.840   1.670
 1170WAT     H2 3568   0.647   2.967   1.715
 1171WAT      O 3569   1.454   2.704   1.369
 1171WAT     H1 3570   1.385   2.704   1.303
 1171WAT     H2 3571   1.529   2.662   1.326
 1172WAT      O 3572   1.411   2.867   1.777
 1172WAT     H1 3573   1.456   2.789   1.808
 1172WAT     H2 3574   1.445   2.938   1.831
 1173WAT      O 3575   0.186   2.444   2.493
 1173WAT     H1 3576   0.202   2.397   2.411
 1173WAT     H2 3577   0.232   2.393   2.559
 1174WAT      O 3578   0.663   1.357   1.996
 1174WAT     H1 3579   0.619   1.435   1.963
 1174WAT     H2 3580   0.719   1.389   2.067
 1175WAT      O 3581   1.092   1.644   2.557
 1175WAT     H1 3582   1.046   1.665   2.638
 1175WAT     H2 3583   1.052   1.562   2.526
 1176WAT      O 3584   1.301   1.916   2.880
 1176WAT     H1 3585   1.334   1.832   2.846
 1176WAT     H2 3586   1.380   1.968   2.894
 1177WAT      O 3587   0.975   1.319   1.484
 1177WAT     H1 3588   0.912   1.319   1.557
 1177WAT     H2 3589   0.966   1.232   1.445
 1178WAT      O 3590   0.867   1.411   2.182
 1178WAT     H1 3591   0.897   1.502   2.174
 1178WAT     H2 3592   0.922   1.363   2.121
 1179WAT      O 3593   0.642   1.869   1.769
 1179WAT     H1 3594   0.620   1.848   1.859
 1179WAT     H2 3595   0.564   1.913   1.734
 1180WAT      O 3596   1.365   1.870   1.629
 1180WAT     H1 3597   1.305   1.942   1.611
 1180WAT     H2 3598   1.420   1.864   1.551
 1181WAT      O 3599   0.886   1.959   2.836
 1181WAT     H1 3600   0.877   1.865   2.821
 1181WAT     H2 3601   0.970   1.981   2.796
 1182WAT      O 3602   1.226   1.734   1.832
 1182WAT     H1 3603   1.265   1.765   1.751
 1182WAT     H2 3604   1.262   1.646   1.843
 1183WAT      O 3605   0.399   1.600   2.651
 1183WAT     H1 3606   0.360   1.685   2.672
 1183WAT     H2 3607   0.330   1.537   2.670
 1184WAT      O 3608   1.057   1.609   2.958
 1184WAT     H1 3609   0.988   1.589   3.021
 1184WAT     H2 3610   1.131   1.637   3.011
 1185WAT      O 3611   1.284   1.993   2.241
 1185WAT     H1 3612   1.211   2.044   2.276
 1185WAT     H2 3613   1.245   1.911   2.211
 1186WAT      O 3614   0.928   1.660   2.082
 1186WAT     H1 3615   0.928   1.616   1.997
 1186WAT     H2 3616   1.018   1.692   2.093
 1187WAT      O 3617   0.513   1.648   1.978
 1187WAT     H1 3618   0.479   1.696   2.054
 1187WAT     H2 3619   0.437   1.603   1.942
 1188WAT      O 3620   0.934   1.760   1.381
 1188WAT     H1 3621   0.946   1.756   1.476
 1188WAT     H2 3622   0.896   1.847   1.366
 1189WAT      O 3623   1.331   1.538   2.183
 1189WAT     H1 3624   1.332   1.583   2.267
 1189WAT     H2 3625   1.306   1.448   2.204
 1190WAT      O 3626   0.836   1.991   1.321
 1190WAT     H1 3627   0.779   1.947   1.258
 1190WAT     H2 3628   0.906   2.027   1.268
 1191WAT      O 3629   1.673   1.279   2.767
 1191WAT     H1 3630   1.706   1.206   2.819
 1191WAT     H2 3631   1.677   1.247   2.676
 1192WAT      O 3632   0.343   2.381   2.709
 1192WAT     H1 3633   0.305   2.317   2.768
 1192WAT     H2 3634   0.374   2.452   2.766
 1193WAT      O 3635   0.958   2.066   2.257
 1193WAT     H1 3636   0.995   2.019   2.331
 1193WAT     H2 3637   0.939   2.154   2.291
 1194WAT      O 3638   0.245   1.541   1.870
 1194WAT     H1 3639   0.216   1.504   1.953
 1194WAT     H2 3640   0.238   1.467   1.808
 1195WAT      O 3641   0.737   1.970   2.488
 1195WAT     H1 3642   0.707   2.058   2.511
 1195WAT     H2 3643   0.833   1.976   2.492
 1196WAT      O 3644   0.590   2.391   1.548
 1196WAT     H1 3645   0.513   2.337   1.532
 1196WAT     H2 3646   0.663   2.339   1.514
 1197WAT      O 3647   1.212   1.430   1.542
 1197WAT     H1 3648   1.131   1.380   1.534
 1197WAT     H2 3649   1.193   1.514   1.500
 1198WAT      O 3650   1.204   2.298   2.716
 1198WAT     H1 3651   1.197   2.206   2.691
 1198WAT     H2 3652   1.141   2.307   2.788
 1199WAT      O 3653   1.483   1.867   1.371
 1199WAT     H1 3654   1.572   1.898   1.354
 1199WAT     H2 3655   1.481   1.780   1.332
 1200WAT      O 3656   0.594   2.358   1.912
 1200WAT     H1 3657   0.646   2.277   1.907
 1200WAT     H2 3658   0.549   2.352   1.996
 1201WAT      O 3659   1.083   2.484   1.439
 1201WAT     H1 3660   1.117   2.559   1.390
 1201WAT     H2 3661   1.000   2.516   1.475
 1202WAT      O 3662   0.343   2.054   2.603
 1202WAT     H1 3663   0.307   2.121   2.662
 1202WAT     H2 3664   0.313   1.971   2.640
 1203WAT      O 3665   0.663   2.100   2.892
 1203WAT     H1 3666   0.633   2.115   2.802
 1203WAT     H2 3667   0.740   2.044   2.882
 1204WAT      O 3668   1.197   2.580   2.691
 1204WAT     H1 3669   1.199   2.487   2.669
 1204WAT     H2 3670   1.127   2.588   2.755
 1205WAT      O 3671   1.711   1.998   1.318
 1205WAT     H1 3672   1.702   2.041   1.233
 1205WAT     H2 3673   1.783   2.044   1.361
 1206WAT      O 3674   1.814   2.684   1.591
 1206WAT     H1 3675   1.749   2.618   1.618
 1206WAT     H2 3676   1.775   2.724   1.513
 1207WAT      O 3677   0.980   2.493   1.716
 1207WAT     H1 3678   1.049   2.547   1.754
 1207WAT     H2 3679   0.901   2.547   1.720
 1208WAT      O 3680   0.910   2.193   1.678
 1208WAT     H1 3681   0.956   2.274   1.700
 1208WAT     H2 3682   0.875   2.161   1.761
 1209WAT      O 3683   1.141   2.744   2.401
 1209WAT     H1 3684   1.205   2.765   2.468
 1209WAT     H2 3685   1.177   2.668   2.355
 1210WAT      O 3686   0.500   1.227   1.725
 1210WAT     H1 3687   0.488   1.227   1.820
 1210WAT     H2 3688   0.418   1.261   1.690
 1211WAT      O 3689   1.652   2.573   1.245
 1211WAT     H1 3690   1.630   2.501   1.304
 1211WAT     H2 3691   1.613   2.548   1.161
 1212WAT      O 3692   0.231   2.976   1.322
 1212WAT     H1 3693   0.267   3.035   1.257
 1212WAT     H2 3694   0.217   3.030   1.400
 1213WAT      O 3695   1.611   2.365   1.411
 1213WAT     H1 3696   1.582   2.411   1.490
 1213WAT     H2 3697   1.690   2.319   1.438
 1214WAT      O 3698   1.028   2.629   2.910
 1214WAT     H1 3699   0.996   2.557   2.964
 1214WAT     H2 3700   0.961   2.697   2.917
 1215WAT      O 3701   0.832   2.714   1.404
 1215WAT     H1 3702   0.831   2.787   1.342
 1215WAT     H2 3703   0.740   2.689   1.413
 1216WAT      O 3704   0.392   2.236   1.478
 1216WAT     H1 3705   0.332   2.310   1.479
 1216WAT     H2 3706   0.440   2.245   1.396
 1217WAT      O 3707   1.686   1.548   1.527
 1217WAT     H1 3708   1.623   1.559   1.455
 1217WAT     H2 3709   1.637   1.570   1.606
 1218WAT      O 3710   1.131   2.720   1.270
 1218WAT     H1 3711   1.141   2.700   1.177
 1218WAT     H2 3712   1.041   2.695   1.291
 1219WAT      O 3713   0.883   1.776   1.668
 1219WAT     H1 3714   0.812   1.823   1.713
 1219WAT     H2 3715   0.912   1.710   1.732
 1220WAT      O 3716   1.046   1.918   2.468
 1220WAT     H1 3717   1.096   1.965   2.535
 1220WAT     H2 3718   1.060   1.826   2.489
 1221WAT      O 3719   1.286   1.448   1.812
 1221WAT     H1 3720   1.274   1.450   1.717
 1221WAT     H2 3721   1.381   1.453   1.824
 1222WAT      O 3722   0.995   2.972   1.740
 1222WAT     H1 3723   1.021   2.968   1.647
 1222WAT     H2 3724   0.900   2.959   1.739
 1223WAT      O 3725   0.704   1.607   1.406
 1223WAT     H1 3726   0.788   1.650   1.399
 1223WAT     H2 3727   0.667   1.638   1.489
 1224WAT      O 3728   1.596   2.064   1.897
 1224WAT     H1 3729   1.502   2.065   1.915
 1224WAT     H2 3730   1.627   1.985   1.942
 1225WAT      O 3731   0.593   2.232   1.253
 1225WAT     H1 3732   0.670   2.221   1.310
 1225WAT     H2 3733   0.601   2.162   1.188
 1226WAT      O 3734   0.463   1.975   1.322
 1226WAT     H1 3735   0.471   1.881   1.333
 1226WAT     H2 3736   0.552   2.008   1.332
 1227WAT      O 3737   0.543   2.990   2.032
 1227WAT     H1 3738   0.617   2.935   2.059
 1227WAT     H2 3739   0.581   3.077   2.018
 1228WAT      O 3740   0.444   2.909   2.951
 1228WAT     H1 3741   0.524   2.941   2.992
 1228WAT     H2 3742   0.392   2.873   3.023
 1229WAT      O 3743   0.854   2.908   1.214
 1229WAT     H1 3744   0.933   2.937   1.169
 1229WAT     H2 3745   0.802   2.865   1.146
 1230WAT      O 3746   1.327   2.520   2.946
 1230WAT     H1 3747   1.267   2.522   2.871
 1230WAT     H2 3748   1.297   2.446   2.999
 1231WAT      O 3749   1.470   2.892   2.807
 1231WAT     H1 3750   1.566   2.884   2.802
 1231WAT     H2 3751   1.456   2.959   2.874
 1232WAT      O 3752   1.759   2.830   1.357
 1232WAT     H1 3753   1.731   2.789   1.275
 1232WAT     H2 3754   1.740   2.923   1.345
 1233WAT      O 3755   0.906   2.430   1.201
 1233WAT     H1 3756   0.895   2.368   1.273
 1233WAT     H2 3757   0.889   2.377   1.122
 1234WAT      O 3758   0.921   2.298   2.799
 1234WAT     H1 3759   0.844   2.355   2.790
 1234WAT     H2 3760   0.939   2.269   2.709
 1235WAT      O 3761   1.230   2.336   1.261
 1235WAT     H1 3762   1.175   2.381   1.325
 1235WAT     H2 3763   1.292   2.285   1.313
 1236WAT      O 3764   0.419   1.972   2.935
 1236WAT     H1 3765   0.423   1.942   3.026
 1236WAT     H2 3766   0.504   2.012   2.919
 1237WAT      O 3767   0.797   2.232   1.451
 1237WAT     H1 3768   0.839   2.215   1.535
 1237WAT     H2 3769   0.809   2.151   1.401
 1238WAT      O 3770   0.613   1.830   2.731
 1238WAT     H1 3771   0.560   1.781   2.669
 1238WAT     H2 3772   0.680   1.873   2.678
 1239WAT      O 3773   1.048   2.134   1.175
 1239WAT     H1 3774   1.100   2.063   1.139
 1239WAT     H2 3775   1.113   2.198   1.205
 1240WAT      O 3776   1.550   2.010   2.908
 1240WAT     H1 3777   1.608   1.935   2.899
 1240WAT     H2 3778   1.568   2.063   2.831
 1241WAT      O 3779   0.662   1.526   2.739
 1241WAT     H1 3780   0.652   1.465   2.667
 1241WAT     H2 3781   0.604   1.599   2.717
 1242WAT      O 3782   0.938   1.382   2.443
 1242WAT     H1 3783   0.893   1.384   2.358
 1242WAT     H2 3784   0.875   1.342   2.502
 1243WAT      O 3785   0.979   2.272   2.505
 1243WAT     H1 3786   1.021   2.356   2.488
 1243WAT     H2 3787   0.887   2.285   2.482
 1244WAT      O 3788   1.212   2.045   2.643
 1244WAT     H1 3789   1.224   1.985   2.717
 1244WAT     H2 3790   1.298   2.048   2.601
 1245WAT      O 3791   0.686   1.839   1.145
 1245WAT     H1 3792   0.666   1.753   1.181
 1245WAT     H2 3793   0.669   1.830   1.051
 1246WAT      O 3794   0.764   2.902   2.616
 1246WAT     H1 3795   0.710   2.975   2.584
 1246WAT     H2 3796   0.789   2.854   2.537
 1247WAT      O 3797   0.889   1.699   2.769
 1247WAT     H1 3798   0.948   1.668   2.838
 1247WAT     H2 3799   0.807   1.652   2.785
 1248WAT      O 3800   1.371   1.661   2.792
 1248WAT     H1 3801   1.302   1.594   2.786
 1248WAT     H2 3802   1.443   1.616   2.837
 1249WAT      O 3803   1.434   1.320   1.398
 1249WAT     H1 3804   1.462   1.236   1.434
 1249WAT     H2 3805   1.357   1.343   1.450
 1250WAT      O 3806   0.566   1.549   1.144
 1250WAT     H1 3807   0.596   1.550   1.053
 1250WAT     H2 3808   0.640   1.514   1.194
 1251WAT      O 3809   1.050   3.026   2.642
 1251WAT     H1 3810   1.042   3.116   2.673
 1251WAT     H2 3811   0.959   2.994   2.639
 1252WAT      O 3812   0.888   1.443   1.243
 1252WAT     H1 3813   0.853   1.376   1.185
 1252WAT     H2 3814   0.908   1.397   1.324
 1253WAT      O 3815   1.104   2.942   1.404
 1253WAT     H1 3816   1.194   2.976   1.407
 1253WAT     H2 3817   1.108   2.870   1.342
 1254WAT      O 3818   0.468   2.480   1.227
 1254WAT     H1 3819   0.512   2.534   1.293
 1254WAT     H2 3820   0.517   2.397   1.228
 1255WAT      O 3821   0.190   2.758   1.973
 1255WAT     H1 3822   0.223   2.672   1.949
 1255WAT     H2 3823   0.233   2.779   2.056
 1256WAT      O 3824   0.649   2.592   1.739
 1256WAT     H1 3825   0.619   2.579   1.829
 1256WAT     H2 3826   0.639   2.506   1.698
 1257WAT      O 3827   0.239   2.845   2.246
 1257WAT     H1 3828   0.195   2.863   2.330
 1257WAT     H2 3829   0.295   2.921   2.232
 1258WAT      O 3830   1.926   2.569   1.209
 1258WAT     H1 3831   1.843   2.576   1.256
 1258WAT     H2 3832   1.944   2.659   1.179
 1259WAT      O 3833   1.877   2.273   1.175
 1259WAT     H1 3834   1.905   2.364   1.162
 1259WAT     H2 3835   1.858   2.267   1.269
 1260WAT      O 3836   1.517   1.576   1.304
 1260WAT     H1 3837   1.559   1.557   1.220
 1260WAT     H2 3838   1.486   1.491   1.335
 1261WAT      O 3839   0.326   2.135   2.336
 1261WAT     H1 3840   0.362   2.126   2.424
 1261WAT     H2 3841   0.269   2.059   2.326
 1262WAT      O 3842   0.281   1.826   2.727
 1262WAT     H1 3843   0.191   1.823   2.761
 1262WAT     H2 3844   0.335   1.846   2.803
 1263WAT      O 3845   1.650   1.504   2.915
 1263WAT     H1 3846   1.737   1.505   2.954
 1263WAT     H2 3847   1.651   1.431   2.854
 1264WAT      O 3848   0.398   1.723   1.267
 1264WAT     H1 3849   0.469   1.681   1.219
 1264WAT     H2 3850   0.326   1.730   1.204
 1265WAT      O 3851   0.362   1.328   1.171
 1265WAT     H1 3852   0.435   1.382   1.203
 1265WAT     H2 3853   0.390   1.301   1.084
 1266WAT      O 3854   1.743   1.815   1.598
 1266WAT     H1 3855   1.793   1.792   1.677
 1266WAT     H2 3856   1.723   1.731   1.557
 1267WAT      O 3857   0.331   1.253   2.162
 1267WAT     H1 3858   0.396   1.198   2.118
 1267WAT     H2 3859   0.373   1.279   2.244
 1268WAT      O 3860   1.721   1.273   2.497
 1268WAT     H1 3861   1.785   1.334   2.534
 1268WAT     H2 3862   1.736   1.276   2.403
 1269WAT      O 3863   1.975   1.462   1.176
 1269WAT     H1 3864   2.068   1.449   1.155
 1269WAT     H2 3865   1.973   1.470   1.271
 1270WAT      O 3866   1.677   2.943   1.838
 1270WAT     H1 3867   1.736   2.911   1.770
 1270WAT     H2 3868   1.702   2.896   1.917
 1271WAT      O 3869   0.307   1.269   2.436
 1271WAT     H1 3870   0.272   1.315   2.513
 1271WAT     H2 3871   0.273   1.180   2.444
 1272WAT      O 3872   0.467   2.586   2.852
 1272WAT     H1 3873   0.463   2.549   2.941
 1272WAT     H2 3874   0.480   2.680   2.867
 1273WAT      O 3875   0.837   2.742   2.413
 1273WAT     H1 3876   0.813   2.769   2.324
 1273WAT     H2 3877   0.931   2.759   2.418
 1274WAT      O 3878   1.058   1.388   2.788
 1274WAT     H1 3879   1.052   1.447   2.863
 1274WAT     H2 3880   1.152   1.377   2.774
 1275WAT      O 3881   1.322   1.354   2.752
 1275WAT     H1 3882   1.383   1.386   2.686
 1275WAT     H2 3883   1.376   1.305   2.814
 1276WAT      O 3884   1.963   2.944   2.493
 1276WAT     H1 3885   1.914   2.983   2.421
 1276WAT     H2 3886   1.902   2.881   2.532
 1277WAT      O 3887   0.374   1.222   2.763
 1277WAT     H1 3888   0.429   1.204   2.687
 1277WAT     H2 3889   0.380   1.143   2.817
 1278WAT      O 3890   0.451   2.881   2.564
 1278WAT     H1 3891   0.392   2.868   2.638
 1278WAT     H2 3892   0.450   2.797   2.518
 1279WAT      O 3893   1.396   1.210   2.385
 1279WAT     H1 3894   1.308   1.243   2.364
 1279WAT     H2 3895   1.385   1.163   2.467
 1280WAT      O 3896   1.486   1.431   2.523
 1280WAT     H1 3897   1.454   1.349   2.485
 1280WAT     H2 3898   1.581   1.427   2.511
 1281WAT      O 3899   1.732   3.008   2.221
 1281WAT     H1 3900   1.686   3.083   2.183
 1281WAT     H2 3901   1.669   2.936   2.215
 1282WAT      O 3902   0.414   2.617   2.460
 1282WAT     H1 3903   0.342   2.555   2.453
 1282WAT     H2 3904   0.420   2.657   2.373
 1283WAT      O 3905   0.775   2.839   2.138
 1283WAT     H1 3906   0.826   2.778   2.086
 1283WAT     H2 3907   0.840   2.889   2.187
 1284WAT      O 3908   1.049   2.928   2.221
 1284WAT     H1 3909   1.077   2.902   2.133
 1284WAT     H2 3910   1.100   2.873   2.280
 1285WAT      O 3911   1.170   1.302   2.279
 1285WAT     H1 3912   1.092   1.349   2.307
 1285WAT     H2 3913   1.141   1.211   2.268
 1286WAT      O 3914   1.626   1.372   2.083
 1286WAT     H1 3915   1.670   1.367   1.998
 1286WAT     H2 3916   1.599   1.464   2.090
 1287WAT      O 3917   1.812   1.335   1.884
 1287WAT     H1 3918   1.806   1.241   1.870
 1287WAT     H2 3919   1.890   1.346   1.939
 1288WAT      O 3920   0.305   1.332   1.531
 1288WAT     H1 3921   0.381   1.344   1.473
 1288WAT     H2 3922   0.259   1.416   1.526
 1289WAT      O 3923   0.959   1.544   1.830
 1289WAT     H1 3924   0.878   1.506   1.796
 1289WAT     H2 3925   1.009   1.468   1.860
 1290WAT      O 3926   1.409   1.210   1.954
 1290WAT     H1 3927   1.470   1.267   2.001
 1290WAT     H2 3928   1.335   1.267   1.931
 1291WAT      O 3929   1.724   1.250   1.481
 1291WAT     H1 3930   1.743   1.340   1.508
 1291WAT     H2 3931   1.645   1.227   1.530
 1292WAT      O 3932   0.403   2.818   1.525
 1292WAT     H1 3933   0.351   2.857   1.455
 1292WAT     H2 3934   0.396   2.881   1.597
 1293WAT      O 3935   0.542   1.385   1.385
 1293WAT     H1 3936   0.595   1.306   1.372
 1293WAT     H2 3937   0.605   1.453   1.408
 1294WAT      O 3938   0.761   1.359   1.690
 1294WAT     H1 3939   0.698   1.289   1.707
 1294WAT     H2 3940   0.708   1.435   1.669
 1295WAT      O 3941   1.055   3.020   2.957
 1295WAT     H1 3942   1.148   2.997   2.962
 1295WAT     H2 3943   1.054   3.103   2.909
 1296WAT      O 3944   1.879   2.974   1.657
 1296WAT     H1 3945   1.896   2.906   1.593
 1296WAT     H2 3946   1.809   3.027   1.618
 1297WAT      O 3947   0.774   1.287   2.934
 1297WAT     H1 3948   0.746   1.337   2.857
 1297WAT     H2 3949   0.812   1.207   2.897
 1298WAT      O 3950   0.663   3.013   1.413
 1298WAT     H1 3951   0.736   2.985   1.358
 1298WAT     H2 3952   0.689   2.989   1.501
 1299WAT      O 3953   0.579   2.625   1.413
 1299WAT     H1 3954   0.516   2.672   1.468
 1299WAT     H2 3955   0.591   2.540   1.456
 1300WAT      O 3956   1.434   1.228   2.992
 1300WAT     H1 3957   1.423   1.260   3.081
 1300WAT     H2 3958   1.516   1.268   2.962
 1301WAT      O 3959   1.712   2.943   2.940
 1301WAT     H1 3960   1.791   2.893   2.919
 1301WAT     H2 3961   1.741   3.011   3.001
 1302WAT      O 3962   1.138   2.208   0.216
 1302WAT     H1 3963   1.060   2.160   0.245
 1302WAT     H2 3964   1.203   2.140   0.199
 1303WAT      O 3965   0.540   2.239   0.304
 1303WAT     H1 3966   0.456   2.213   0.344
 1303WAT     H2 3967   0.600   2.246   0.377
 1304WAT      O 3968   0.538   2.642   0.323
 1304WAT     H1 3969   0.568   2.553   0.306
 1304WAT     H2 3970   0.612   2.698   0.301
 1305WAT      O 3971   0.177   1.995   0.271
 1305WAT     H1 3972   0.234   1.918   0.271
 1305WAT     H2 3973   0.177   2.025   0.180
 1306WAT      O 3974   1.082   2.475   0.217
 1306WAT     H1 3975   1.075   2.381   0.201
 1306WAT     H2 3976   1.158   2.484   0.274
 1307WAT      O 3977   0.301   1.536   0.449
 1307WAT     H1 3978   0.283   1.446   0.477
 1307WAT     H2 3979   0.261   1.591   0.517
 1308WAT      O 3980   1.185   1.756   0.239
 1308WAT     H1 3981   1.223   1.669   0.228
 1308WAT     H2 3982   1.175   1.790   0.150
 1309WAT      O 3983   0.363   1.785   0.310
 1309WAT     H1 3984   0.431   1.812   0.372
 1309WAT     H2 3985   0.331   1.702   0.344
 1310WAT      O 3986   0.782   1.890   0.219
 1310WAT     H1 3987   0.833   1.940   0.283
 1310WAT     H2 3988   0.835   1.813   0.201
 1311WAT      O 3989   1.992   1.707   0.589
 1311WAT     H1 3990   1.922   1.746   0.537
 1311WAT     H2 3991   2.019   1.777   0.649
 1312WAT      O 3992   0.611   1.354   0.646
 1312WAT     H1 3993   0.611   1.406   0.565
 1312WAT     H2 3994   0.528   1.306   0.643
 1313WAT      O 3995   0.736   2.318   0.463
 1313WAT     H1 3996   0.702   2.381   0.527
 1313WAT     H2 3997   0.753   2.371   0.385
 1314WAT      O 3998   1.587   1.700   0.210
 1314WAT     H1 3999   1.516   1.728   0.268
 1314WAT     H2 4000   1.623   1.781   0.174
 1315WAT      O 4001   0.579   1.525   0.446
 1315WAT     H1 4002   0.613   1.610   0.417
 1315WAT     H2 4003   0.485   1.540   0.458
 1316WAT      O 4004   0.657   2.515   0.645
 1316WAT     H1 4005   0.719   2.582   0.617
 1316WAT     H2 4006   0.571   2.556   0.636
 1317WAT      O 4007   1.749   2.661   0.436
 1317WAT     H1 4008   1.680   2.728   0.435
 1317WAT     H2 4009   1.802   2.681   0.360
 1318WAT      O 4010   1.894   1.644   0.249
 1318WAT     H1 4011   1.799   1.647   0.262
 1318WAT     H2 4012   1.926   1.725   0.288
 1319WAT      O 4013   1.502   2.846   0.308
 1319WAT     H1 4014   1.503   2.805   0.221
 1319WAT     H2 4015   1.447   2.923   0.297
 1320WAT      O 4016   1.442   2.336   0.441
 1320WAT     H1 4017   1.484   2.315   0.357
 1320WAT     H2 4018   1.514   2.362   0.498
 1321WAT      O 4019   1.837   2.176   0.450
 1321WAT     H1 4020   1.754   2.183   0.402
 1321WAT     H2 4021   1.896   2.234   0.403
 1322WAT      O 4022   1.533   1.855   0.544
 1322WAT     H1 4023   1.492   1.937   0.570
 1322WAT     H2 4024   1.460   1.796   0.525
 1323WAT      O 4025   0.793   2.502   0.247
 1323WAT     H1 4026   0.763   2.441   0.179
 1323WAT     H2 4027   0.888   2.506   0.236
 1324WAT      O 4028   0.618   1.811   0.408
 1324WAT     H1 4029   0.673   1.822   0.331
 1324WAT     H2 4030   0.669   1.848   0.480
 1325WAT      O 4031   1.602   2.859   0.613
 1325WAT     H1 4032   1.554   2.940   0.594
 1325WAT     H2 4033   1.534   2.794   0.628
 1326WAT      O 4034   0.702   2.476   0.912
 1326WAT     H1 4035   0.613   2.498   0.937
 1326WAT     H2 4036   0.705   2.488   0.817
 1327WAT      O 4037   0.585   2.163   0.770
 1327WAT     H1 4038   0.571   2.250   0.806
 1327WAT     H2 4039   0.497   2.129   0.755
 1328WAT      O 4040   0.765   2.757   0.990
 1328WAT     H1 4041   0.762   2.797   0.904
 1328WAT     H2 4042   0.749   2.664   0.974
 1329WAT      O 4043   1.960   2.835   1.120
 1329WAT     H1 4044   2.008   2.883   1.188
 1329WAT     H2 4045   2.022   2.829   1.047
 1330WAT      O 4046   0.180   2.340   0.361
 1330WAT     H1 4047   0.188   2.353   0.267
 1330WAT     H2 4048   0.242   2.269   0.381
 1331WAT      O 4049   1.900   2.554   0.836
 1331WAT     H1 4050   1.913   2.531   0.744
 1331WAT     H2 4051   1.905   2.471   0.883
 1332WAT      O 4052   1.287   2.925   0.693
 1332WAT     H1 4053   1.338   2.916   0.773
 1332WAT     H2 4054   1.202   2.959   0.722
 1333WAT      O 4055   1.886   1.760   0.933
 1333WAT     H1 4056   1.824   1.811   0.880
 1333WAT     H2 4057   1.854   1.670   0.927
 1334WAT      O 4058   0.186   2.444   0.615
 1334WAT     H1 4059   0.202   2.397   0.533
 1334WAT     H2 4060   0.232   2.393   0.682
 1335WAT      O 4061   1.092   1.644   0.679
 1335WAT     H1 4062   1.046   1.665   0.760
 1335WAT     H2 4063   1.052   1.562   0.649
 1336WAT      O 4064   1.592   1.766   0.792
 1336WAT     H1 4065   1.507   1.736   0.824
 1336WAT     H2 4066   1.576   1.790   0.701
 1337WAT      O 4067   1.301   1.916   1.002
 1337WAT     H1 4068   1.334   1.832   0.968
 1337WAT     H2 4069   1.380   1.968   1.017
 1338WAT      O 4070   0.867   1.411   0.305
 1338WAT     H1 4071   0.897   1.502   0.297
 1338WAT     H2 4072   0.922   1.363   0.243
 1339WAT      O 4073   0.886   1.959   0.958
 1339WAT     H1 4074   0.877   1.865   0.943
 1339WAT     H2 4075   0.970   1.981   0.919
 1340WAT      O 4076   0.399   1.600   0.774
 1340WAT     H1 4077   0.360   1.685   0.794
 1340WAT     H2 4078   0.330   1.537   0.793
 1341WAT      O 4079   1.057   1.609   1.080
 1341WAT     H1 4080   0.988   1.589   1.144
 1341WAT     H2 4081   1.131   1.637   1.134
 1342WAT      O 4082   1.284   1.993   0.364
 1342WAT     H1 4083   1.211   2.044   0.399
 1342WAT     H2 4084   1.245   1.911   0.334
 1343WAT      O 4085   1.331   1.538   0.305
 1343WAT     H1 4086   1.332   1.583   0.390
 1343WAT     H2 4087   1.306   1.448   0.327
 1344WAT      O 4088   1.673   1.279   0.889
 1344WAT     H1 4089   1.706   1.206   0.942
 1344WAT     H2 4090   1.677   1.247   0.799
 1345WAT      O 4091   0.343   2.381   0.831
 1345WAT     H1 4092   0.305   2.317   0.891
 1345WAT     H2 4093   0.374   2.452   0.888
 1346WAT      O 4094   0.958   2.066   0.379
 1346WAT     H1 4095   0.995   2.019   0.454
 1346WAT     H2 4096   0.939   2.154   0.413
 1347WAT      O 4097   0.737   1.970   0.611
 1347WAT     H1 4098   0.707   2.058   0.634
 1347WAT     H2 4099   0.833   1.976   0.615
 1348WAT      O 4100   1.666   2.291   0.250
 1348WAT     H1 4101   1.738   2.340   0.211
 1348WAT     H2 4102   1.646   2.223   0.186
 1349WAT      O 4103   1.204   2.298   0.839
 1349WAT     H1 4104   1.197   2.206   0.813
 1349WAT     H2 4105   1.141   2.307   0.910
 1350WAT      O 4106   0.343   2.054   0.726
 1350WAT     H1 4107   0.307   2.121   0.785
 1350WAT     H2 4108   0.313   1.971   0.763
 1351WAT      O 4109   0.663   2.100   1.014
 1351WAT     H1 4110   0.633   2.115   0.924
 1351WAT     H2 4111   0.740   2.044   1.005
 1352WAT      O 4112   1.197   2.580   0.814
 1352WAT     H1 4113   1.199   2.487   0.792
 1352WAT     H2 4114   1.127   2.588   0.878
 1353WAT      O 4115   1.818   2.244   0.748
 1353WAT     H1 4116   1.746   2.303   0.729
 1353WAT     H2 4117   1.871   2.243   0.669
 1354WAT      O 4118   1.141   2.744   0.523
 1354WAT     H1 4119   1.205   2.765   0.591
 1354WAT     H2 4120   1.177   2.668   0.478
 1355WAT      O 4121   1.268   2.544   0.395
 1355WAT     H1 4122   1.332   2.474   0.406
 1355WAT     H2 4123   1.320   2.622   0.377
 1356WAT      O 4124   1.445   2.624   0.715
 1356WAT     H1 4125   1.479   2.683   0.783
 1356WAT     H2 4126   1.353   2.611   0.738
 1357WAT      O 4127   1.028   2.629   1.032
 1357WAT     H1 4128   0.996   2.557   1.087
 1357WAT     H2 4129   0.961   2.697   1.039
 1358WAT      O 4130   1.350   1.653   0.569
 1358WAT     H1 4131   1.387   1.570   0.601
 1358WAT     H2 4132   1.264   1.659   0.610
 1359WAT      O 4133   1.046   1.918   0.591
 1359WAT     H1 4134   1.096   1.965   0.657
 1359WAT     H2 4135   1.060   1.826   0.612
 1360WAT      O 4136   1.766   1.540   0.675
 1360WAT     H1 4137   1.716   1.614   0.709
 1360WAT     H2 4138   1.848   1.578   0.644
 1361WAT      O 4139   1.796   2.781   0.187
 1361WAT     H1 4140   1.808   2.863   0.235
 1361WAT     H2 4141   1.883   2.760   0.153
 1362WAT      O 4142   0.444   2.909   1.073
 1362WAT     H1 4143   0.524   2.941   1.115
 1362WAT     H2 4144   0.392   2.873   1.146
 1363WAT      O 4145   1.327   2.520   1.068
 1363WAT     H1 4146   1.267   2.522   0.994
 1363WAT     H2 4147   1.297   2.446   1.122
 1364WAT      O 4148   1.470   2.892   0.929
 1364WAT     H1 4149   1.566   2.884   0.924
 1364WAT     H2 4150   1.456   2.959   0.997
 1365WAT      O 4151   0.921   2.298   0.921
 1365WAT     H1 4152   0.844   2.355   0.913
 1365WAT     H2 4153   0.939   2.269   0.832
 1366WAT      O 4154   1.635   2.471   0.977
 1366WAT     H1 4155   1.709   2.505   0.926
 1366WAT     H2 4156   1.559   2.488   0.922
 1367WAT      O 4157   0.419   1.972   1.057
 1367WAT     H1 4158   0.423   1.942   1.148
 1367WAT     H2 4159   0.504   2.012   1.041
 1368WAT      O 4160   0.613   1.830   0.854
 1368WAT     H1 4161   0.560   1.781   0.791
 1368WAT     H2 4162   0.680   1.873   0.801
 1369WAT      O 4163   1.503   2.276   0.830
 1369WAT     H1 4164   1.544   2.292   0.915
 1369WAT     H2 4165   1.409   2.289   0.847
 1370WAT      O 4166   1.550   2.010   1.031
 1370WAT     H1 4167   1.608   1.935   1.022
 1370WAT     H2 4168   1.568   2.063   0.953
 1371WAT      O 4169   0.662   1.526   0.862
 1371WAT     H1 4170   0.652   1.465   0.789
 1371WAT     H2 4171   0.604   1.599   0.839
 1372WAT      O 4172   0.938   1.382   0.565
 1372WAT     H1 4173   0.893   1.384   0.481
 1372WAT     H2 4174   0.875   1.342   0.625
 1373WAT      O 4175   0.979   2.272   0.627
 1373WAT     H1 4176   1.021   2.356   0.610
 1373WAT     H2 4177   0.887   2.285   0.604
 1374WAT      O 4178   1.212   2.045   0.766
 1374WAT     H1 4179   1.224   1.985   0.840
 1374WAT     H2 4180   1.298   2.048   0.724
 1375WAT      O 4181   1.446   2.100   0.623
 1375WAT     H1 4182   1.394   2.153   0.563
 1375WAT     H2 4183   1.481   2.163   0.686
 1376WAT      O 4184   0.764   2.902   0.739
 1376WAT     H1 4185   0.710   2.975   0.707
 1376WAT     H2 4186   0.789   2.854   0.660
 1377WAT      O 4187   0.889   1.699   0.891
 1377WAT     H1 4188   0.948   1.668   0.960
 1377WAT     H2 4189   0.807   1.652   0.907
 1378WAT      O 4190   1.371   1.661   0.915
 1378WAT     H1 4191   1.302   1.594   0.908
 1378WAT     H2 4192   1.443   1.616   0.959
 1379WAT      O 4193   1.050   3.026   0.765
 1379WAT     H1 4194   1.042   3.116   0.795
 1379WAT     H2 4195   0.959   2.994   0.762
 1380WAT      O 4196   0.239   2.845   0.369
 1380WAT     H1 4197   0.195   2.863   0.452
 1380WAT     H2 4198   0.295   2.921   0.355
 1381WAT      O 4199   1.802   2.795   0.798
 1381WAT     H1 4200   1.742   2.801   0.723
 1381WAT     H2 4201   1.815   2.701   0.811
 1382WAT      O 4202   1.671   2.468   0.607
 1382WAT     H1 4203   1.589   2.511   0.634
 1382WAT     H2 4204   1.712   2.529   0.546
 1383WAT      O 4205   0.326   2.135   0.459
 1383WAT     H1 4206   0.362   2.126   0.547
 1383WAT     H2 4207   0.269   2.059   0.449
 1384WAT      O 4208   1.806   1.982   0.760
 1384WAT     H1 4209   1.783   1.959   0.670
 1384WAT     H2 4210   1.832   2.074   0.756
 1385WAT      O 4211   0.281   1.826   0.849
 1385WAT     H1 4212   0.191   1.823   0.883
 1385WAT     H2 4213   0.335   1.846   0.926
 1386WAT      O 4214   1.650   1.504   1.038
 1386WAT     H1 4215   1.737   1.505   1.076
 1386WAT     H2 4216   1.651   1.431   0.977
 1387WAT      O 4217   1.812   1.898   0.479
 1387WAT     H1 4218   1.717   1.895   0.490
 1387WAT     H2 4219   1.830   1.989   0.456
 1388WAT      O 4220   0.331   1.253   0.284
 1388WAT     H1 4221   0.396   1.198   0.240
 1388WAT     H2 4222   0.373   1.279   0.366
 1389WAT      O 4223   1.721   1.273   0.620
 1389WAT     H1 4224   1.785   1.334   0.657
 1389WAT     H2 4225   1.736   1.276   0.525
 1390WAT      O 4226   0.307   1.269   0.559
 1390WAT     H1 4227   0.272   1.315   0.635
 1390WAT     H2 4228   0.273   1.180   0.567
 1391WAT      O 4229   0.467   2.586   0.975
 1391WAT     H1 4230   0.463   2.549   1.063
 1391WAT     H2 4231   0.480   2.680   0.989
 1392WAT      O 4232   0.837   2.742   0.535
 1392WAT     H1 4233   0.813   2.769   0.446
 1392WAT     H2 4234   0.931   2.759   0.541
 1393WAT      O 4235   1.058   1.388   0.911
 1393WAT     H1 4236   1.052   1.447   0.986
 1393WAT     H2 4237   1.152   1.377   0.896
 1394WAT      O 4238   1.322   1.354   0.875
 1394WAT     H1 4239   1.383   1.386   0.808
 1394WAT     H2 4240   1.376   1.305   0.937
 1395WAT      O 4241   1.963   2.944   0.615
 1395WAT     H1 4242   1.914   2.983   0.544
 1395WAT     H2 4243   1.902   2.881   0.655
 1396WAT      O 4244   0.374   1.222   0.886
 1396WAT     H1 4245   0.429   1.204   0.810
 1396WAT     H2 4246   0.380   1.143   0.940
 1397WAT      O 4247   0.451   2.881   0.687
 1397WAT     H1 4248   0.392   2.868   0.761
 1397WAT     H2 4249   0.450   2.797   0.640
 1398WAT      O 4250   1.396   1.210   0.507
 1398WAT     H1 4251   1.308   1.243   0.487
 1398WAT     H2 4252   1.385   1.163   0.590
 1399WAT      O 4253   1.486   1.431   0.646
 1399WAT     H1 4254   1.454   1.349   0.608
 1399WAT     H2 4255   1.581   1.427   0.633
 1400WAT      O 4256   1.732   3.008   0.343
 1400WAT     H1 4257   1.686   3.083   0.306
 1400WAT     H2 4258   1.669   2.936   0.337
 1401WAT      O 4259   0.414   2.617   0.582
 1401WAT     H1 4260   0.342   2.555   0.575
 1401WAT     H2 4261   0.420   2.657   0.495
 1402WAT      O 4262   0.775   2.839   0.261
 1402WAT     H1 4263   0.826   2.778   0.208
 1402WAT     H2 4264   0.840   2.889   0.310
 1403WAT      O 4265   1.049   2.928   0.343
 1403WAT     H1 4266   1.077   2.902   0.256
 1403WAT     H2 4267   1.100   2.873   0.402
 1404WAT      O 4268   1.170   1.302   0.401
 1404WAT     H1 4269   1.092   1.349   0.429
 1404WAT     H2 4270   1.141   1.211   0.390
 1405WAT      O 4271   1.055   3.020   1.080
 1405WAT     H1 4272   1.148   2.997   1.084
 1405WAT     H2 4273   1.054   3.103   1.032
 1406WAT      O 4274   0.774   1.287   1.056
 1406WAT     H1 4275   0.746   1.337   0.980
 1406WAT     H2 4276   0.812   1.207   1.020
 1407WAT      O 4277   1.434   1.228   1.114
 1407WAT     H1 4278   1.423   1.260   1.204
 1407WAT     H2 4279   1.516   1.268   1.085
 1408WAT      O 4280   1.712   2.943   1.062
 1408WAT     H1 4281   1.791   2.893   1.042
 1408WAT     H2 4282   1.741   3.011   1.123
 1409WAT      O 4283   1.540   0.771   3.849
 1409WAT     H1 4284   1.494   0.694   3.882
 1409WAT     H2 4285   1.621   0.774   3.899
 1410WAT      O 4286   1.163   1.000   3.811
 1410WAT     H1 4287   1.101   1.045   3.754
 1410WAT     H2 4288   1.248   1.015   3.771
 1411WAT      O 4289   1.249   0.488   3.550
 1411WAT     H1 4290   1.187   0.534   3.494
 1411WAT     H2 4291   1.300   0.557   3.592
 1412WAT      O 4292   1.632   0.640   3.572
 1412WAT     H1 4293   1.621   0.546   3.584
 1412WAT     H2 4294   1.631   0.677   3.660
 1413WAT      O 4295   1.186   0.203   3.507
 1413WAT     H1 4296   1.093   0.197   3.530
 1413WAT     H2 4297   1.201   0.297   3.496
 1414WAT      O 4298   1.589   0.359   3.557
 1414WAT     H1 4299   1.527   0.326   3.493
 1414WAT     H2 4300   1.587   0.295   3.628
 1415WAT      O 4301   0.746   0.256   3.785
 1415WAT     H1 4302   0.706   0.185   3.736
 1415WAT     H2 4303   0.755   0.221   3.874
 1416WAT      O 4304   1.406   0.283   3.258
 1416WAT     H1 4305   1.450   0.199   3.244
 1416WAT     H2 4306   1.478   0.346   3.267
 1417WAT      O 4307   1.217   0.777   3.655
 1417WAT     H1 4308   1.261   0.851   3.614
 1417WAT     H2 4309   1.211   0.801   3.747
 1418WAT      O 4310   0.305   0.632   3.757
 1418WAT     H1 4311   0.264   0.647   3.672
 1418WAT     H2 4312   0.394   0.604   3.737
 1419WAT      O 4313   1.484   1.076   3.391
 1419WAT     H1 4314   1.468   1.047   3.480
 1419WAT     H2 4315   1.468   0.998   3.337
 1420WAT      O 4316   0.732   1.054   3.568
 1420WAT     H1 4317   0.714   0.962   3.547
 1420WAT     H2 4318   0.647   1.090   3.592
 1421WAT      O 4319   1.454   0.827   3.247
 1421WAT     H1 4320   1.385   0.827   3.181
 1421WAT     H2 4321   1.529   0.784   3.204
 1422WAT      O 4322   1.411   0.989   3.654
 1422WAT     H1 4323   1.456   0.911   3.686
 1422WAT     H2 4324   1.445   1.060   3.709
 1423WAT      O 4325   0.590   0.513   3.426
 1423WAT     H1 4326   0.513   0.459   3.410
 1423WAT     H2 4327   0.663   0.462   3.392
 1424WAT      O 4328   0.594   0.480   3.789
 1424WAT     H1 4329   0.646   0.400   3.784
 1424WAT     H2 4330   0.549   0.474   3.874
 1425WAT      O 4331   1.083   0.607   3.317
 1425WAT     H1 4332   1.117   0.681   3.267
 1425WAT     H2 4333   1.000   0.638   3.353
 1426WAT      O 4334   1.814   0.806   3.468
 1426WAT     H1 4335   1.749   0.741   3.496
 1426WAT     H2 4336   1.775   0.847   3.391
 1427WAT      O 4337   1.371   0.539   3.853
 1427WAT     H1 4338   1.407   0.479   3.787
 1427WAT     H2 4339   1.283   0.507   3.870
 1428WAT      O 4340   0.980   0.615   3.594
 1428WAT     H1 4341   1.049   0.670   3.632
 1428WAT     H2 4342   0.901   0.670   3.597
 1429WAT      O 4343   0.910   0.316   3.555
 1429WAT     H1 4344   0.956   0.397   3.578
 1429WAT     H2 4345   0.875   0.284   3.638
 1430WAT      O 4346   1.652   0.695   3.122
 1430WAT     H1 4347   1.630   0.624   3.181
 1430WAT     H2 4348   1.613   0.671   3.038
 1431WAT      O 4349   0.231   1.098   3.200
 1431WAT     H1 4350   0.267   1.158   3.134
 1431WAT     H2 4351   0.217   1.153   3.277
 1432WAT      O 4352   1.611   0.487   3.288
 1432WAT     H1 4353   1.582   0.533   3.367
 1432WAT     H2 4354   1.690   0.441   3.315
 1433WAT      O 4355   0.832   0.836   3.281
 1433WAT     H1 4356   0.831   0.910   3.220
 1433WAT     H2 4357   0.740   0.812   3.291
 1434WAT      O 4358   0.392   0.359   3.356
 1434WAT     H1 4359   0.332   0.433   3.357
 1434WAT     H2 4360   0.440   0.368   3.273
 1435WAT      O 4361   1.131   0.843   3.148
 1435WAT     H1 4362   1.141   0.822   3.055
 1435WAT     H2 4363   1.041   0.817   3.168
 1436WAT      O 4364   0.995   1.095   3.617
 1436WAT     H1 4365   1.021   1.091   3.525
 1436WAT     H2 4366   0.900   1.082   3.616
 1437WAT      O 4367   0.593   0.355   3.131
 1437WAT     H1 4368   0.670   0.343   3.187
 1437WAT     H2 4369   0.601   0.285   3.065
 1438WAT      O 4370   0.543   1.113   3.909
 1438WAT     H1 4371   0.617   1.058   3.936
 1438WAT     H2 4372   0.581   1.199   3.895
 1439WAT      O 4373   0.854   1.030   3.092
 1439WAT     H1 4374   0.933   1.059   3.046
 1439WAT     H2 4375   0.802   0.987   3.024
 1440WAT      O 4376   1.759   0.953   3.234
 1440WAT     H1 4377   1.731   0.912   3.153
 1440WAT     H2 4378   1.740   1.046   3.222
 1441WAT      O 4379   0.906   0.552   3.078
 1441WAT     H1 4380   0.895   0.491   3.151
 1441WAT     H2 4381   0.889   0.500   3.000
 1442WAT      O 4382   1.230   0.458   3.138
 1442WAT     H1 4383   1.175   0.503   3.203
 1442WAT     H2 4384   1.292   0.408   3.191
 1443WAT      O 4385   0.797   0.354   3.328
 1443WAT     H1 4386   0.839   0.338   3.412
 1443WAT     H2 4387   0.809   0.273   3.279
 1444WAT      O 4388   1.048   0.257   3.053
 1444WAT     H1 4389   1.100   0.185   3.016
 1444WAT     H2 4390   1.113   0.321   3.083
 1445WAT      O 4391   1.104   1.065   3.282
 1445WAT     H1 4392   1.194   1.099   3.284
 1445WAT     H2 4393   1.108   0.993   3.219
 1446WAT      O 4394   0.468   0.602   3.105
 1446WAT     H1 4395   0.512   0.656   3.170
 1446WAT     H2 4396   0.517   0.520   3.106
 1447WAT      O 4397   0.190   0.881   3.850
 1447WAT     H1 4398   0.223   0.794   3.827
 1447WAT     H2 4399   0.233   0.902   3.933
 1448WAT      O 4400   0.649   0.714   3.616
 1448WAT     H1 4401   0.619   0.702   3.706
 1448WAT     H2 4402   0.639   0.628   3.575
 1449WAT      O 4403   1.926   0.692   3.086
 1449WAT     H1 4404   1.843   0.699   3.133
 1449WAT     H2 4405   1.944   0.781   3.056
 1450WAT      O 4406   1.872   0.367   3.337
 1450WAT     H1 4407   1.948   0.423   3.347
 1450WAT     H2 4408   1.873   0.310   3.414
 1451WAT      O 4409   1.973   0.452   3.821
 1451WAT     H1 4410   2.010   0.374   3.780
 1451WAT     H2 4411   2.037   0.521   3.803
 1452WAT      O 4412   1.877   0.396   3.052
 1452WAT     H1 4413   1.905   0.487   3.040
 1452WAT     H2 4414   1.858   0.389   3.146
 1453WAT      O 4415   1.677   1.066   3.715
 1453WAT     H1 4416   1.736   1.033   3.647
 1453WAT     H2 4417   1.702   1.018   3.794
 1454WAT      O 4418   0.403   0.941   3.402
 1454WAT     H1 4419   0.351   0.979   3.332
 1454WAT     H2 4420   0.396   1.004   3.475
 1455WAT      O 4421   1.879   1.097   3.535
 1455WAT     H1 4422   1.896   1.028   3.470
 1455WAT     H2 4423   1.809   1.149   3.495
 1456WAT      O 4424   0.663   1.136   3.290
 1456WAT     H1 4425   0.736   1.107   3.235
 1456WAT     H2 4426   0.689   1.112   3.379
 1457WAT      O 4427   0.579   0.747   3.290
 1457WAT     H1 4428   0.516   0.794   3.345
 1457WAT     H2 4429   0.591   0.663   3.334
 1458WAT      O 4430   1.138   0.330   2.094
 1458WAT     H1 4431   1.060   0.282   2.122
 1458WAT     H2 4432   1.203   0.262   2.076
 1459WAT      O 4433   0.540   0.362   2.181
 1459WAT     H1 4434   0.456   0.336   2.221
 1459WAT     H2 4435   0.600   0.369   2.255
 1460WAT      O 4436   1.540   0.771   1.971
 1460WAT     H1 4437   1.494   0.694   2.004
 1460WAT     H2 4438   1.621   0.774   2.022
 1461WAT      O 4439   0.538   0.765   2.201
 1461WAT     H1 4440   0.568   0.676   2.183
 1461WAT     H2 4441   0.612   0.821   2.178
 1462WAT      O 4442   1.163   1.000   1.934
 1462WAT     H1 4443   1.101   1.045   1.876
 1462WAT     H2 4444   1.248   1.015   1.893
 1463WAT      O 4445   1.082   0.598   2.094
 1463WAT     H1 4446   1.075   0.504   2.078
 1463WAT     H2 4447   1.158   0.607   2.151
 1464WAT      O 4448   1.249   0.488   1.673
 1464WAT     H1 4449   1.187   0.534   1.616
 1464WAT     H2 4450   1.300   0.557   1.715
 1465WAT      O 4451   0.736   0.441   2.341
 1465WAT     H1 4452   0.702   0.503   2.405
 1465WAT     H2 4453   0.753   0.493   2.263
 1466WAT      O 4454   0.657   0.637   2.522
 1466WAT     H1 4455   0.719   0.705   2.494
 1466WAT     H2 4456   0.571   0.678   2.513
 1467WAT      O 4457   1.749   0.784   2.314
 1467WAT     H1 4458   1.680   0.851   2.313
 1467WAT     H2 4459   1.802   0.804   2.237
 1468WAT      O 4460   1.502   0.968   2.185
 1468WAT     H1 4461   1.503   0.928   2.098
 1468WAT     H2 4462   1.447   1.046   2.175
 1469WAT      O 4463   1.632   0.640   1.694
 1469WAT     H1 4464   1.621   0.546   1.707
 1469WAT     H2 4465   1.631   0.677   1.783
 1470WAT      O 4466   1.442   0.459   2.318
 1470WAT     H1 4467   1.484   0.437   2.235
 1470WAT     H2 4468   1.514   0.484   2.375
 1471WAT      O 4469   1.186   0.203   1.630
 1471WAT     H1 4470   1.093   0.197   1.653
 1471WAT     H2 4471   1.201   0.297   1.618
 1472WAT      O 4472   1.837   0.298   2.327
 1472WAT     H1 4473   1.754   0.305   2.280
 1472WAT     H2 4474   1.896   0.357   2.280
 1473WAT      O 4475   1.589   0.359   1.680
 1473WAT     H1 4476   1.527   0.326   1.615
 1473WAT     H2 4477   1.587   0.295   1.751
 1474WAT      O 4478   0.746   0.256   1.908
 1474WAT     H1 4479   0.706   0.185   1.858
 1474WAT     H2 4480   0.755   0.221   1.997
 1475WAT      O 4481   0.793   0.624   2.124
 1475WAT     H1 4482   0.763   0.564   2.056
 1475WAT     H2 4483   0.888   0.628   2.113
 1476WAT      O 4484   1.602   0.982   2.491
 1476WAT     H1 4485   1.554   1.062   2.471
 1476WAT     H2 4486   1.534   0.917   2.506
 1477WAT      O 4487   0.702   0.598   2.789
 1477WAT     H1 4488   0.613   0.621   2.814
 1477WAT     H2 4489   0.705   0.611   2.694
 1478WAT      O 4490   1.406   0.283   1.381
 1478WAT     H1 4491   1.450   0.199   1.366
 1478WAT     H2 4492   1.478   0.346   1.389
 1479WAT      O 4493   0.585   0.285   2.647
 1479WAT     H1 4494   0.571   0.373   2.684
 1479WAT     H2 4495   0.497   0.251   2.632
 1480WAT      O 4496   1.217   0.777   1.778
 1480WAT     H1 4497   1.261   0.851   1.736
 1480WAT     H2 4498   1.211   0.801   1.870
 1481WAT      O 4499   0.765   0.880   2.868
 1481WAT     H1 4500   0.762   0.920   2.781
 1481WAT     H2 4501   0.749   0.787   2.852
 1482WAT      O 4502   1.960   0.958   2.997
 1482WAT     H1 4503   2.008   1.006   3.065
 1482WAT     H2 4504   2.022   0.951   2.925
 1483WAT      O 4505   0.180   0.462   2.239
 1483WAT     H1 4506   0.188   0.476   2.144
 1483WAT     H2 4507   0.242   0.392   2.258
 1484WAT      O 4508   0.305   0.632   1.880
 1484WAT     H1 4509   0.264   0.647   1.794
 1484WAT     H2 4510   0.394   0.604   1.859
 1485WAT      O 4511   1.900   0.677   2.713
 1485WAT     H1 4512   1.913   0.653   2.622
 1485WAT     H2 4513   1.905   0.594   2.761
 1486WAT      O 4514   1.287   1.047   2.570
 1486WAT     H1 4515   1.338   1.038   2.651
 1486WAT     H2 4516   1.202   1.082   2.600
 1487WAT      O 4517   1.484   1.076   1.513
 1487WAT     H1 4518   1.468   1.047   1.603
 1487WAT     H2 4519   1.468   0.998   1.460
 1488WAT      O 4520   0.732   1.054   1.691
 1488WAT     H1 4521   0.714   0.962   1.670
 1488WAT     H2 4522   0.647   1.090   1.715
 1489WAT      O 4523   1.454   0.827   1.369
 1489WAT     H1 4524   1.385   0.827   1.303
 1489WAT     H2 4525   1.529   0.784   1.326
 1490WAT      O 4526   1.411   0.989   1.777
 1490WAT     H1 4527   1.456   0.911   1.808
 1490WAT     H2 4528   1.445   1.060   1.831
 1491WAT      O 4529   0.186   0.567   2.493
 1491WAT     H1 4530   0.202   0.520   2.411
 1491WAT     H2 4531   0.232   0.516   2.559
 1492WAT      O 4532   0.343   0.504   2.709
 1492WAT     H1 4533   0.305   0.440   2.768
 1492WAT     H2 4534   0.374   0.574   2.766
 1493WAT      O 4535   0.590   0.513   1.548
 1493WAT     H1 4536   0.513   0.459   1.532
 1493WAT     H2 4537   0.663   0.462   1.514
 1494WAT      O 4538   1.666   0.413   2.127
 1494WAT     H1 4539   1.738   0.463   2.088
 1494WAT     H2 4540   1.646   0.345   2.063
 1495WAT      O 4541   1.204   0.420   2.716
 1495WAT     H1 4542   1.197   0.328   2.691
 1495WAT     H2 4543   1.141   0.430   2.788
 1496WAT      O 4544   0.594   0.480   1.912
 1496WAT     H1 4545   0.646   0.400   1.907
 1496WAT     H2 4546   0.549   0.474   1.996
 1497WAT      O 4547   1.083   0.607   1.439
 1497WAT     H1 4548   1.117   0.681   1.390
 1497WAT     H2 4549   1.000   0.638   1.475
 1498WAT      O 4550   0.663   0.223   2.892
 1498WAT     H1 4551   0.633   0.237   2.802
 1498WAT     H2 4552   0.740   0.167   2.882
 1499WAT      O 4553   1.197   0.702   2.691
 1499WAT     H1 4554   1.199   0.609   2.669
 1499WAT     H2 4555   1.127   0.711   2.755
 1500WAT      O 4556   1.818   0.367   2.626
 1500WAT     H1 4557   1.746   0.426   2.606
 1500WAT     H2 4558   1.871   0.366   2.546
 1501WAT      O 4559   1.814   0.806   1.591
 1501WAT     H1 4560   1.749   0.741   1.618
 1501WAT     H2 4561   1.775   0.847   1.513
 1502WAT      O 4562   1.371   0.539   1.976
 1502WAT     H1 4563   1.407   0.479   1.910
 1502WAT     H2 4564   1.283   0.507   1.993
 1503WAT      O 4565   0.980   0.615   1.716
 1503WAT     H1 4566   1.049   0.670   1.754
 1503WAT     H2 4567   0.901   0.670   1.720
 1504WAT      O 4568   0.910   0.316   1.678
 1504WAT     H1 4569   0.956   0.397   1.700
 1504WAT     H2 4570   0.875   0.284   1.761
 1505WAT      O 4571   1.141   0.867   2.401
 1505WAT     H1 4572   1.205   0.887   2.468
 1505WAT     H2 4573   1.177   0.791   2.355
 1506WAT      O 4574   1.268   0.667   2.272
 1506WAT     H1 4575   1.332   0.597   2.284
 1506WAT     H2 4576   1.320   0.745   2.254
 1507WAT      O 4577   1.652   0.695   1.245
 1507WAT     H1 4578   1.630   0.624   1.304
 1507WAT     H2 4579   1.613   0.671   1.161
 1508WAT      O 4580   1.445   0.747   2.593
 1508WAT     H1 4581   1.479   0.806   2.660
 1508WAT     H2 4582   1.353   0.734   2.616
 1509WAT      O 4583   0.231   1.098   1.322
 1509WAT     H1 4584   0.267   1.158   1.257
 1509WAT     H2 4585   0.217   1.153   1.400
 1510WAT      O 4586   1.611   0.487   1.411
 1510WAT     H1 4587   1.582   0.533   1.490
 1510WAT     H2 4588   1.690   0.441   1.438
 1511WAT      O 4589   1.028   0.752   2.910
 1511WAT     H1 4590   0.996   0.680   2.964
 1511WAT     H2 4591   0.961   0.819   2.917
 1512WAT      O 4592   0.832   0.836   1.404
 1512WAT     H1 4593   0.831   0.910   1.342
 1512WAT     H2 4594   0.740   0.812   1.413
 1513WAT      O 4595   0.392   0.359   1.478
 1513WAT     H1 4596   0.332   0.433   1.479
 1513WAT     H2 4597   0.440   0.368   1.396
 1514WAT      O 4598   1.131   0.843   1.270
 1514WAT     H1 4599   1.141   0.822   1.177
 1514WAT     H2 4600   1.041   0.817   1.291
 1515WAT      O 4601   0.995   1.095   1.740
 1515WAT     H1 4602   1.021   1.091   1.647
 1515WAT     H2 4603   0.900   1.082   1.739
 1516WAT      O 4604   0.593   0.355   1.253
 1516WAT     H1 4605   0.670   0.343   1.310
 1516WAT     H2 4606   0.601   0.285   1.188
 1517WAT      O 4607   1.796   0.904   2.065
 1517WAT     H1 4608   1.808   0.986   2.112
 1517WAT     H2 4609   1.883   0.882   2.030
 1518WAT      O 4610   0.543   1.113   2.032
 1518WAT     H1 4611   0.617   1.058   2.059
 1518WAT     H2 4612   0.581   1.199   2.018
 1519WAT      O 4613   0.444   1.031   2.951
 1519WAT     H1 4614   0.524   1.063   2.992
 1519WAT     H2 4615   0.392   0.995   3.023
 1520WAT      O 4616   0.854   1.030   1.214
 1520WAT     H1 4617   0.933   1.059   1.169
 1520WAT     H2 4618   0.802   0.987   1.146
 1521WAT      O 4619   1.327   0.642   2.946
 1521WAT     H1 4620   1.267   0.644   2.871
 1521WAT     H2 4621   1.297   0.569   2.999
 1522WAT      O 4622   1.470   1.015   2.807
 1522WAT     H1 4623   1.566   1.007   2.802
 1522WAT     H2 4624   1.456   1.081   2.874
 1523WAT      O 4625   1.759   0.953   1.357
 1523WAT     H1 4626   1.731   0.912   1.275
 1523WAT     H2 4627   1.740   1.046   1.345
 1524WAT      O 4628   0.906   0.552   1.201
 1524WAT     H1 4629   0.895   0.491   1.273
 1524WAT     H2 4630   0.889   0.500   1.122
 1525WAT      O 4631   0.921   0.421   2.799
 1525WAT     H1 4632   0.844   0.478   2.790
 1525WAT     H2 4633   0.939   0.392   2.709
 1526WAT      O 4634   1.230   0.458   1.261
 1526WAT     H1 4635   1.175   0.503   1.325
 1526WAT     H2 4636   1.292   0.408   1.313
 1527WAT      O 4637   1.635   0.594   2.854
 1527WAT     H1 4638   1.709   0.628   2.804
 1527WAT     H2 4639   1.559   0.611   2.799
 1528WAT      O 4640   0.797   0.354   1.451
 1528WAT     H1 4641   0.839   0.338   1.535
 1528WAT     H2 4642   0.809   0.273   1.401
 1529WAT      O 4643   1.048   0.257   1.175
 1529WAT     H1 4644   1.100   0.185   1.139
 1529WAT     H2 4645   1.113   0.321   1.205
 1530WAT      O 4646   1.503   0.399   2.708
 1530WAT     H1 4647   1.544   0.414   2.793
 1530WAT     H2 4648   1.409   0.412   2.724
 1531WAT      O 4649   0.979   0.394   2.505
 1531WAT     H1 4650   1.021   0.479   2.488
 1531WAT     H2 4651   0.887   0.408   2.482
 1532WAT      O 4652   1.446   0.223   2.501
 1532WAT     H1 4653   1.394   0.275   2.440
 1532WAT     H2 4654   1.481   0.286   2.564
 1533WAT      O 4655   0.764   1.025   2.616
 1533WAT     H1 4656   0.710   1.097   2.584
 1533WAT     H2 4657   0.789   0.977   2.537
 1534WAT      O 4658   1.050   1.148   2.642
 1534WAT     H1 4659   1.042   1.239   2.673
 1534WAT     H2 4660   0.959   1.116   2.639
 1535WAT      O 4661   1.104   1.065   1.404
 1535WAT     H1 4662   1.194   1.099   1.407
 1535WAT     H2 4663   1.108   0.993   1.342
 1536WAT      O 4664   0.468   0.602   1.227
 1536WAT     H1 4665   0.512   0.656   1.293
 1536WAT     H2 4666   0.517   0.520   1.228
 1537WAT      O 4667   0.190   0.881   1.973
 1537WAT     H1 4668   0.223   0.794   1.949
 1537WAT     H2 4669   0.233   0.902   2.056
 1538WAT      O 4670   0.649   0.714   1.739
 1538WAT     H1 4671   0.619   0.702   1.829
 1538WAT     H2 4672   0.639   0.628   1.698
 1539WAT      O 4673   0.239   0.968   2.246
 1539WAT     H1 4674   0.195   0.986   2.330
 1539WAT     H2 4675   0.295   1.043   2.232
 1540WAT      O 4676   1.802   0.918   2.675
 1540WAT     H1 4677   1.742   0.924   2.601
 1540WAT     H2 4678   1.815   0.824   2.688
 1541WAT      O 4679   1.926   0.692   1.209
 1541WAT     H1 4680   1.843   0.699   1.256
 1541WAT     H2 4681   1.944   0.781   1.179
 1542WAT      O 4682   1.872   0.367   1.459
 1542WAT     H1 4683   1.948   0.423   1.470
 1542WAT     H2 4684   1.873   0.310   1.536
 1543WAT      O 4685   1.973   0.452   1.944
 1543WAT     H1 4686   2.010   0.374   1.903
 1543WAT     H2 4687   2.037   0.521   1.926
 1544WAT      O 4688   1.671   0.590   2.485
 1544WAT     H1 4689   1.589   0.633   2.511
 1544WAT     H2 4690   1.712   0.652   2.424
 1545WAT      O 4691   1.877   0.396   1.175
 1545WAT     H1 4692   1.905   0.487   1.162
 1545WAT     H2 4693   1.858   0.389   1.269
 1546WAT      O 4694   0.326   0.257   2.336
 1546WAT     H1 4695   0.362   0.249   2.424
 1546WAT     H2 4696   0.269   0.181   2.326
 1547WAT      O 4697   1.677   1.066   1.838
 1547WAT     H1 4698   1.736   1.033   1.770
 1547WAT     H2 4699   1.702   1.018   1.917
 1548WAT      O 4700   0.467   0.709   2.852
 1548WAT     H1 4701   0.463   0.672   2.941
 1548WAT     H2 4702   0.480   0.803   2.867
 1549WAT      O 4703   0.837   0.864   2.413
 1549WAT     H1 4704   0.813   0.891   2.324
 1549WAT     H2 4705   0.931   0.881   2.418
 1550WAT      O 4706   1.963   1.066   2.493
 1550WAT     H1 4707   1.914   1.106   2.421
 1550WAT     H2 4708   1.902   1.004   2.532
 1551WAT      O 4709   0.451   1.003   2.564
 1551WAT     H1 4710   0.392   0.990   2.638
 1551WAT     H2 4711   0.450   0.920   2.518
 1552WAT      O 4712   1.732   1.131   2.221
 1552WAT     H1 4713   1.686   1.206   2.183
 1552WAT     H2 4714   1.669   1.059   2.215
 1553WAT      O 4715   0.414   0.740   2.460
 1553WAT     H1 4716   0.342   0.678   2.453
 1553WAT     H2 4717   0.420   0.779   2.373
 1554WAT      O 4718   0.775   0.961   2.138
 1554WAT     H1 4719   0.826   0.900   2.086
 1554WAT     H2 4720   0.840   1.012   2.187
 1555WAT      O 4721   1.049   1.050   2.221
 1555WAT     H1 4722   1.077   1.025   2.133
 1555WAT     H2 4723   1.100   0.995   2.280
 1556WAT      O 4724   0.403   0.941   1.525
 1556WAT     H1 4725   0.351   0.979   1.455
 1556WAT     H2 4726   0.396   1.004   1.597
 1557WAT      O 4727   1.055   1.143   2.957
 1557WAT     H1 4728   1.148   1.119   2.962
 1557WAT     H2 4729   1.054   1.225   2.909
 1558WAT      O 4730   1.879   1.097   1.657
 1558WAT     H1 4731   1.896   1.028   1.593
 1558WAT     H2 4732   1.809   1.149   1.618
 1559WAT      O 4733   0.663   1.136   1.413
 1559WAT     H1 4734   0.736   1.107   1.358
 1559WAT     H2 4735   0.689   1.112   1.501
 1560WAT      O 4736   0.579   0.747   1.413
 1560WAT     H1 4737   0.516   0.794   1.468
 1560WAT     H2 4738   0.591   0.663   1.456
 1561WAT      O 4739   1.712   1.065   2.940
 1561WAT     H1 4740   1.791   1.016   2.919
 1561WAT     H2 4741   1.741   1.133   3.001
 1562WAT      O 4742   1.138   0.330   0.216
 1562WAT     H1 4743   1.060   0.282   0.245
 1562WAT     H2 4744   1.203   0.262   0.199
 1563WAT      O 4745   0.540   0.362   0.304
 1563WAT     H1 4746   0.456   0.336   0.344
 1563WAT     H2 4747   0.600   0.369   0.377
 1564WAT      O 4748   0.538   0.765   0.323
 1564WAT     H1 4749   0.568   0.676   0.306
 1564WAT     H2 4750   0.612   0.821   0.301
 1565WAT      O 4751   1.082   0.598   0.217
 1565WAT     H1 4752   1.075   0.504   0.201
 1565WAT     H2 4753   1.158   0.607   0.274
 1566WAT      O 4754   0.736   0.441   0.463
 1566WAT     H1 4755   0.702   0.503   0.527
 1566WAT     H2 4756   0.753   0.493   0.385
 1567WAT      O 4757   0.657   0.637   0.645
 1567WAT     H1 4758   0.719   0.705   0.617
 1567WAT     H2 4759   0.571   0.678   0.636
 1568WAT      O 4760   1.749   0.784   0.436
 1568WAT     H1 4761   1.680   0.851   0.435
 1568WAT     H2 4762   1.802   0.804   0.360
 1569WAT      O 4763   1.502   0.968   0.308
 1569WAT     H1 4764   1.503   0.928   0.221
 1569WAT     H2 4765   1.447   1.046   0.297
 1570WAT      O 4766   1.442   0.459   0.441
 1570WAT     H1 4767   1.484   0.437   0.357
 1570WAT     H2 4768   1.514   0.484   0.498
 1571WAT      O 4769   1.837   0.298   0.450
 1571WAT     H1 4770   1.754   0.305   0.402
 1571WAT     H2 4771   1.896   0.357   0.403
 1572WAT      O 4772   0.793   0.624   0.247
 1572WAT     H1 4773   0.763   0.564   0.179
 1572WAT     H2 4774   0.888   0.628   0.236
 1573WAT      O 4775   1.602   0.982   0.613
 1573WAT     H1 4776   1.554   1.062   0.594
 1573WAT     H2 4777   1.534   0.917   0.628
 1574WAT      O 4778   0.702   0.598   0.912
 1574WAT     H1 4779   0.613   0.621   0.937
 1574WAT     H2 4780   0.705   0.611   0.817
 1575WAT      O 4781   0.585   0.285   0.770
 1575WAT     H1 4782   0.571   0.373   0.806
 1575WAT     H2 4783   0.497   0.251   0.755
 1576WAT      O 4784   0.765   0.880   0.990
 1576WAT     H1 4785   0.762   0.920   0.904
 1576WAT     H2 4786   0.749   0.787   0.974
 1577WAT      O 4787   1.960   0.958   1.120
 1577WAT     H1 4788   2.008   1.006   1.188
 1577WAT     H2 4789   2.022   0.951   1.047
 1578WAT      O 4790   0.180   0.462   0.361
 1578WAT     H1 4791   0.188   0.476   0.267
 1578WAT     H2 4792   0.242   0.392   0.381
 1579WAT      O 4793   1.900   0.677   0.836
 1579WAT     H1 4794   1.913   0.653   0.744
 1579WAT     H2 4795   1.905   0.594   0.883
 1580WAT      O 4796   1.287   1.047   0.693
 1580WAT     H1 4797   1.338   1.038   0.773
 1580WAT     H2 4798   1.202   1.082   0.722
 1581WAT      O 4799   0.186   0.567   0.615
 1581WAT     H1 4800   0.202   0.520   0.533
 1581WAT     H2 4801   0.232   0.516   0.682
 1582WAT      O 4802   0.343   0.504   0.831
 1582WAT     H1 4803   0.305   0.440   0.891
 1582WAT     H2 4804   0.374   0.574   0.888
 1583WAT      O 4805   1.666   0.413   0.250
 1583WAT     H1 4806   1.738   0.463   0.211
 1583WAT     H2 4807   1.646   0.345   0.186
 1584WAT      O 4808   1.204   0.420   0.839
 1584WAT     H1 4809   1.197   0.328   0.813
 1584WAT     H2 4810   1.141   0.430   0.910
 1585WAT      O 4811   0.663   0.223   1.014
 1585WAT     H1 4812   0.633   0.237   0.924
 1585WAT     H2 4813   0.740   0.167   1.005
 1586WAT      O 4814   1.197   0.702   0.814
 1586WAT     H1 4815   1.199   0.609   0.792
 1586WAT     H2 4816   1.127   0.711   0.878
 1587WAT      O 4817   1.818   0.367   0.748
 1587WAT     H1 4818   1.746   0.426   0.729
 1587WAT     H2 4819   1.871   0.366   0.669
 1588WAT      O 4820   1.141   0.867   0.523
 1588WAT     H1 4821   1.205   0.887   0.591
 1588WAT     H2 4822   1.177   0.791   0.478
 1589WAT      O 4823   1.268   0.667   0.395
 1589WAT     H1 4824   1.332   0.597   0.406
 1589WAT     H2 4825   1.320   0.745   0.377
 1590WAT      O 4826   1.445   0.747   0.715
 1590WAT     H1 4827   1.479   0.806   0.783
 1590WAT     H2 4828   1.353   0.734   0.738
 1591WAT      O 4829   1.028   0.752   1.032
 1591WAT     H1 4830   0.996   0.680   1.087
 1591WAT     H2 4831   0.961   0.819   1.039
 1592WAT      O 4832   1.796   0.904   0.187
 1592WAT     H1 4833   1.808   0.986   0.235
 1592WAT     H2 4834   1.883   0.882   0.153
 1593WAT      O 4835   0.444   1.031   1.073
 1593WAT     H1 4836   0.524   1.063   1.115
 1593WAT     H2 4837   0.392   0.995   1.146
 1594WAT      O 4838   1.327   0.642   1.068
 1594WAT     H1 4839   1.267   0.644   0.994
 1594WAT     H2 4840   1.297   0.569   1.122
 1595WAT      O 4841   1.470   1.015   0.929
 1595WAT     H1 4842   1.566   1.007   0.924
 1595WAT     H2 4843   1.456   1.081   0.997
 1596WAT      O 4844   0.921   0.421   0.921
 1596WAT     H1 4845   0.844   0.478   0.913
 1596WAT     H2 4846   0.939   0.392   0.832
 1597WAT      O 4847   1.635   0.594   0.977
 1597WAT     H1 4848   1.709   0.628   0.926
 1597WAT     H2 4849   1.559   0.611   0.922
 1598WAT      O 4850   1.503   0.399   0.830
 1598WAT     H1 4851   1.544   0.414   0.915
 1598WAT     H2 4852   1.409   0.412   0.847
 1599WAT      O 4853   0.979   0.394   0.627
 1599WAT     H1 4854   1.021   0.479   0.610
 1599WAT     H2 4855   0.887   0.408   0.604
 1600WAT      O 4856   1.446   0.223   0.623
 1600WAT     H1 4857   1.394   0.275   0.563
 1600WAT     H2 4858   1.481   0.286   0.686
 1601WAT      O 4859   0.764   1.025   0.739
 1601WAT     H1 4860   0.710   1.097   0.707
 1601WAT     H2 4861   0.789   0.977   0.660
 1602WAT      O 4862   1.050   1.148   0.765
 1602WAT     H1 4863   1.042   1.239   0.795
 1602WAT     H2 4864   0.959   1.116   0.762
 1603WAT      O 4865   0.239   0.968   0.369
 1603WAT     H1 4866   0.195   0.986   0.452
 1603WAT     H2 4867   0.295   1.043   0.355
 1604WAT      O 4868   1.802   0.918   0.798
 1604WAT     H1 4869   1.742   0.924   0.723
 1604WAT     H2 4870   1.815   0.824   0.811
 1605WAT      O 4871   1.671   0.590   0.607
 1605WAT     H1 4872   1.589   0.633   0.634
 1605WAT     H2 4873   1.712   0.652   0.546
 1606WAT      O 4874   0.326   0.257   0.459
 1606WAT     H1 4875   0.362   0.249   0.547
 1606WAT     H2 4876   0.269   0.181   0.449
 1607WAT      O 4877   0.467   0.709   0.975
 1607WAT     H1 4878   0.463   0.672   1.063
 1607WAT     H2 4879   0.480   0.803   0.989
 1608WAT      O 4880   0.837   0.864   0.535
 1608WAT     H1 4881   0.813   0.891   0.446
 1608WAT     H2 4882   0.931   0.881   0.541
 1609WAT      O 4883   1.963   1.066   0.615
 1609WAT     H1 4884   1.914   1.106   0.544
 1609WAT     H2 4885   1.902   1.004   0.655
 1610WAT      O 4886   0.451   1.003   0.687
 1610WAT     H1 4887   0.392   0.990   0.761
 1610WAT     H2 4888   0.450   0.920   0.640
 1611WAT      O 4889   1.732   1.131   0.343
 1611WAT     H1 4890   1.686   1.206   0.306
 1611WAT     H2 4891   1.669   1.059   0.337
 1612WAT      O 4892   0.414   0.740   0.582
 1612WAT     H1 4893   0.342   0.678   0.575
 1612WAT     H2 4894   0.420   0.779   0.495
 1613WAT      O 4895   0.775   0.961   0.261
 1613WAT     H1 4896   0.826   0.900   0.208
 1613WAT     H2 4897   0.840   1.012   0.310
 1614WAT      O 4898   1.049   1.050   0.343
 1614WAT     H1 4899   1.077   1.025   0.256
 1614WAT     H2 4900   1.100   0.995   0.402
 1615WAT      O 4901   1.055   1.143   1.080
 1615WAT     H1 4902   1.148   1.119   1.084
 1615WAT     H2 4903   1.054   1.225   1.032
 1616WAT      O 4904   1.712   1.065   1.062
 1616WAT     H1 4905   1.791   1.016   1.042
 1616WAT     H2 4906   1.741   1.133   1.123
   3.95462   4.18911   4.13745
