%VERSION  VERSION_STAMP = V0001.000  DATE = 09/06/26  21:56:17                  
%FLAG TITLE                                                                     
%FORMAT(20a4)                                                                   
LIG                                                                             
%FLAG POINTERS                                                                  
%FORMAT(10I8)                                                                   
      39       9       1      42       2      63       7     102       0       0
     186       1      42      63     102      21      43      17      13       0
       0       0       0       0       0       0       0       0      39       0
       0
%FLAG ATOM_NAME                                                                 
%FORMAT(20a4)                                                                   
C1  C2  C3  C4  C5  C6  C7  C8  N1  C9  C10 C11 N2  O1  O2  C12 N3  N4  C13 C14 
C15 O3  H1  O4  C16 O5  C17 O6  C18 C19 C20 C21 C22 C23 C24 C25 C26 C27 C28 
%FLAG CHARGE                                                                    
%FORMAT(5E16.8)                                                                 
  2.24024956E+00  2.38030616E+00  2.94645480E+00  1.04519468E+00 -1.32971768E+00
  1.15000935E+00  2.02351353E+00  2.10607877E+00 -3.59560601E+00 -2.61872673E-01
 -2.51868631E-01  6.67646850E+00 -1.90743747E+00 -4.39776988E+00 -4.59451606E+00
  5.90542832E+00 -3.18782738E+00 -4.13615232E+00  3.82613633E-01  5.40876131E+00
  2.64423795E-01 -4.76706301E+00  2.94005877E+00 -4.66629369E+00  1.64950082E+00
 -4.52368598E+00  1.66112665E+00 -4.65479542E+00  4.79122578E+00 -6.44376973E-01
 -6.44376973E-01 -6.44376973E-01 -2.38766797E-01  2.40180847E+00 -6.15567516E-01
 -6.15567516E-01 -1.36721917E-01 -1.36721917E-01 -2.21218722E-02
%FLAG ATOMIC_NUMBER                                                             
%FORMAT(10I8)                                                                   
       6       6       6       6       6       6       6       6       7       6
       6       6       7       8       8       6       7       7       6       6
       6       8       1       8       6       8       6       8       6       6
       6       6       6       6       6       6       6       6       6
%FLAG MASS                                                                      
%FORMAT(5E16.8)                                                                 
  1.20100000E+01  1.20100000E+01  1.20100000E+01  1.20100000E+01  1.20100000E+01
  1.20100000E+01  1.20100000E+01  1.20100000E+01  1.40100000E+01  1.20100000E+01
  1.20100000E+01  1.20100000E+01  1.40100000E+01  1.60000000E+01  1.60000000E+01
  1.20100000E+01  1.40100000E+01  1.40100000E+01  1.20100000E+01  1.20100000E+01
  1.20100000E+01  1.60000000E+01  1.00800000E+00  1.60000000E+01  1.20100000E+01
  1.60000000E+01  1.20100000E+01  1.60000000E+01  1.20100000E+01  1.20100000E+01
  1.20100000E+01  1.20100000E+01  1.20100000E+01  1.20100000E+01  1.20100000E+01
  1.20100000E+01  1.20100000E+01  1.20100000E+01  1.20100000E+01
%FLAG ATOM_TYPE_INDEX                                                           
%FORMAT(10I8)                                                                   
       1       1       1       1       2       1       1       1       3       2
       2       1       4       5       5       1       3       6       2       1
       2       5       7       8       2       8       2       8       9       2
       2       2       2       1       2       2       2       2       2
%FLAG NUMBER_EXCLUDED_ATOMS                                                     
%FORMAT(10I8)                                                                   
      16      14      10      12       8       9      10       8       7       5
       4       6       4       2       6       7       7       5       3       3
       2       1       1       1       1       1       1       4       3       2
       1       1       5       5       4       3       2       1       1
%FLAG NONBONDED_PARM_INDEX                                                      
%FORMAT(10I8)                                                                   
       1       2       4       7      11      16      22      29      37       2
       3       5       8      12      17      23      30      38       4       5
       6       9      13      18      24      31      39       7       8       9
      10      14      19      25      32      40      11      12      13      14
      15      20      26      33      41      16      17      18      19      20
      21      27      34      42      22      23      24      25      26      27
      28      35      43      29      30      31      32      33      34      35
      36      44      37      38      39      40      41      42      43      44
      45
%FLAG RESIDUE_LABEL                                                             
%FORMAT(20a4)                                                                   
LIG 
%FLAG RESIDUE_POINTER                                                           
%FORMAT(10I8)                                                                   
       1
%FLAG BOND_FORCE_CONSTANT                                                       
%FORMAT(5E16.8)                                                                 
  3.13870000E+02  4.36000000E+02  3.50470000E+02  4.12830000E+02  4.66850000E+02
  3.86240000E+02  3.22230000E+02  4.07590000E+02  3.17460000E+02  3.97760000E+02
  5.90600000E+02  3.51310000E+02  3.36070000E+02  4.28900000E+02  4.73590000E+02
  6.99130000E+02  2.50880000E+02  4.15540000E+02  2.82270000E+02  2.84580000E+02
  3.36100000E+02
%FLAG BOND_EQUIL_VALUE                                                          
%FORMAT(5E16.8)                                                                 
  1.40010000E+00  1.33790000E+00  1.36280000E+00  1.35360000E+00  1.31850000E+00
  1.37300000E+00  1.42700000E+00  1.35730000E+00  1.39670000E+00  1.33100000E+00
  1.21900000E+00  1.36210000E+00  1.37980000E+00  1.33000000E+00  1.01320000E+00
  1.20950000E+00  1.50560000E+00  1.31410000E+00  1.42730000E+00  1.46560000E+00
  1.41440000E+00
%FLAG ANGLE_FORCE_CONSTANT                                                      
%FORMAT(5E16.8)                                                                 
  7.86500000E+01  6.81000000E+01  8.00400000E+01  7.22000000E+01  6.88500000E+01
  6.77900000E+01  6.54700000E+01  9.26500000E+01  7.13000000E+01  6.22200000E+01
  6.00000000E+01  7.88300000E+01  6.23500000E+01  7.13000000E+01  6.90300000E+01
  6.43200000E+01  8.09800000E+01  5.96400000E+01  6.43200000E+01  6.90300000E+01
  7.75500000E+01  6.22400000E+01  6.79500000E+01  8.66800000E+01  8.75600000E+01
  1.14280000E+02  8.94300000E+01  6.22400000E+01  1.01260000E+02  8.72100000E+01
  6.96000000E+01  7.72200000E+01  5.73700000E+01  7.40500000E+01  7.80000000E+01
  6.81300000E+01  5.79000000E+01  7.58200000E+01  7.89600000E+01  6.33700000E+01
  6.37200000E+01  6.44800000E+01  7.48600000E+01
%FLAG ANGLE_EQUIL_VALUE                                                         
%FORMAT(5E16.8)                                                                 
  2.09771213E+00  2.07484830E+00  2.12685914E+00  2.04570129E+00  1.98636007E+00
  2.16927066E+00  2.16560546E+00  2.04674849E+00  2.04238517E+00  2.16892159E+00
  3.12501337E+00  2.16804893E+00  2.19300715E+00  2.04238517E+00  2.06996138E+00
  2.26194768E+00  2.10608971E+00  2.25287196E+00  2.26194768E+00  2.06996138E+00
  2.15234096E+00  2.55551219E+00  2.18637489E+00  2.13925098E+00  1.91864127E+00
  1.09659084E+00  2.02144121E+00  2.55551219E+00  2.15024656E+00  2.14762857E+00
  2.04273423E+00  2.23489507E+00  2.04657396E+00  1.99613392E+00  3.09237569E+00
  2.00887483E+00  3.14159400E+00  2.22843734E+00  1.90398050E+00  1.92614619E+00
  2.04517769E+00  2.26561287E+00  2.02667720E+00
%FLAG DIHEDRAL_FORCE_CONSTANT                                                   
%FORMAT(5E16.8)                                                                 
  2.50000000E+00  0.00000000E+00  1.05000000E+00  4.70000000E-01  7.40000000E-01
  1.53000000E+00  1.57000000E+00  6.50000000E-01  6.65000000E+00  4.00000000E+00
  1.47000000E+00  2.70000000E+00  3.83333333E-01  1.40000000E+00  2.00000000E+00
  1.05000000E+01  1.10000000E+00
%FLAG DIHEDRAL_PERIODICITY                                                      
%FORMAT(5E16.8)                                                                 
  2.00000000E+00  2.00000000E+00  2.00000000E+00  1.00000000E+00  3.00000000E+00
  1.00000000E+00  2.00000000E+00  2.00000000E+00  2.00000000E+00  2.00000000E+00
  3.00000000E+00  2.00000000E+00  3.00000000E+00  1.00000000E+00  1.00000000E+00
  2.00000000E+00  2.00000000E+00
%FLAG DIHEDRAL_PHASE                                                            
%FORMAT(5E16.8)                                                                 
  3.14159400E+00  3.14159400E+00  3.14159400E+00  3.14159400E+00  0.00000000E+00
  3.14159400E+00  3.14159400E+00  3.14159400E+00  3.14159400E+00  3.14159400E+00
  3.14159400E+00  3.14159400E+00  0.00000000E+00  3.14159400E+00  0.00000000E+00
  3.14159400E+00  3.14159400E+00
%FLAG SCEE_SCALE_FACTOR                                                         
%FORMAT(5E16.8)                                                                 
  1.20000000E+00  1.20000000E+00  1.20000000E+00  1.20000000E+00  1.20000000E+00
  1.20000000E+00  1.20000000E+00  1.20000000E+00  1.20000000E+00  1.20000000E+00
  1.20000000E+00  1.20000000E+00  1.20000000E+00  1.20000000E+00  1.20000000E+00
  0.00000000E+00  0.00000000E+00
%FLAG SCNB_SCALE_FACTOR                                                         
%FORMAT(5E16.8)                                                                 
  2.00000000E+00  2.00000000E+00  2.00000000E+00  2.00000000E+00  2.00000000E+00
  2.00000000E+00  2.00000000E+00  2.00000000E+00  2.00000000E+00  2.00000000E+00
  2.00000000E+00  2.00000000E+00  2.00000000E+00  2.00000000E+00  2.00000000E+00
  0.00000000E+00  0.00000000E+00
%FLAG SOLTY                                                                     
%FORMAT(5E16.8)                                                                 
  0.00000000E+00  0.00000000E+00  0.00000000E+00  0.00000000E+00  0.00000000E+00
  0.00000000E+00  0.00000000E+00  0.00000000E+00  0.00000000E+00  0.00000000E+00
  0.00000000E+00  0.00000000E+00  0.00000000E+00
%FLAG LENNARD_JONES_ACOEF                                                       
%FORMAT(5E16.8)                                                                 
  6.96551276E+05  1.18640578E+06  2.00671338E+06  7.01106848E+05  1.20132739E+06
  7.02078680E+05  7.10207765E+05  1.20705609E+06  7.16178718E+05  7.23647490E+05
  5.17507491E+05  8.92208123E+05  5.15491878E+05  5.29641935E+05  3.76435470E+05
  6.99381362E+05  1.19359607E+06  7.02755693E+05  7.13532671E+05  5.17814271E+05
  7.01825028E+05  1.71458823E+03  3.37137075E+03  1.52360475E+03  1.82809059E+03
  9.87857350E+02  1.65195713E+03  1.34728399E-01  4.46121722E+05  7.65280989E+05
  4.46307018E+05  4.55871651E+05  3.27367585E+05  4.47026838E+05  9.46795083E+02
  2.83662575E+05  8.43969952E+05  1.43239677E+06  8.52084164E+05  8.59569453E+05
  6.30925504E+05  8.48258258E+05  2.23577481E+03  5.42502534E+05  1.02073671E+06
%FLAG LENNARD_JONES_BCOEF                                                       
%FORMAT(5E16.8)                                                                 
  5.24668528E+02  7.71958727E+02  1.13185062E+03  5.97113873E+02  8.81180204E+02
  6.77820248E+02  5.11427129E+02  7.51664026E+02  5.82583725E+02  4.98353106E+02
  4.98871431E+02  7.38469198E+02  5.64804067E+02  4.87196412E+02  4.69350655E+02
  5.48900066E+02  8.08414196E+02  6.24158704E+02  5.35211915E+02  5.21008860E+02
  5.74088001E+02  1.46824710E+01  2.32108730E+01  1.57004457E+01  1.46352678E+01
  1.22938581E+01  1.50468782E+01  7.34107347E-02  3.88758656E+02  5.74027680E+02
  4.41089616E+02  3.79365004E+02  3.67361018E+02  4.06301077E+02  1.01016461E+01
  2.87011518E+02  5.90251928E+02  8.66911122E+02  6.72777963E+02  5.75038595E+02
  5.62969425E+02  6.17825399E+02  1.71355763E+01  4.38146883E+02  6.63431737E+02
%FLAG BONDS_INC_HYDROGEN                                                        
%FORMAT(10I8)                                                                   
      51      66      15
%FLAG BONDS_WITHOUT_HYDROGEN                                                    
%FORMAT(10I8)                                                                   
       0      48       1       0       3       2       0       6       2       3
      69       3       3       9       4       6      75       3       6      12
       5       9      15       6       9      18       4      12      15       7
      15      21       8      18      24       1      18      27       5      21
      30       5      21      24       1      24      33       9      27      36
      10      30      36      10      33      39      11      33      81      12
      36      96      10      42      45      11      45      48       9      45
      51      13      48      54      14      51      57      13      54      60
      16      57      63      11      57      60      17      69      72      18
      75      78      18      81      84      19      84      87      20      84
      90      20      84      93      20      96      99      21      99     102
      21      99     105      21     102     108      16     105     111      16
     108     114      16     111     114      16
%FLAG ANGLES_INC_HYDROGEN                                                       
%FORMAT(10I8)                                                                   
      45      51      66      33      57      51      66      33
%FLAG ANGLES_WITHOUT_HYDROGEN                                                   
%FORMAT(10I8)                                                                   
       0      48      45       1       0      48      54       2       0       3
      69       3       0       3       9       4       0       6      75       3
       0       6      12       5       3       0      48       6       3       0
       6       7       3      69      72       8       3       9      15       9
       3       9      18      10       6       0      48       6       6      75
      78       8       6      12      15      11       9       3      69      12
       9      15      12      13       9      15      21      14       9      18
      24      15       9      18      27      16      12       6      75      17
      12      15      21      18      15       9      18       9      15      21
      30      19      15      21      24      20      18      24      21      21
      18      24      33       1      18      27      36      22      21      30
      36      22      21      24      33       1      24      18      27      23
      24      21      30      23      24      33      39      24      24      33
      81      25      27      36      30      26      27      36      96      26
      30      36      96      26      33      81      84      27      36      96
      99      28      39      33      81      29      42      45      48      24
      42      45      51      30      45      48      54      31      45      51
      57      32      48      45      51      34      48      54      60      35
      51      57      63      30      51      57      60      36      54      60
      57      37      60      57      63      38      81      84      87      39
      81      84      90      39      81      84      93      39      87      84
      90      40      87      84      93      40      90      84      93      40
      96      99     102      41      96      99     105      41      99     102
     108      42      99     105     111      42     102      99     105      41
     102     108     114      43     105     111     114      43     108     114
     111      43
%FLAG DIHEDRALS_INC_HYDROGEN                                                    
%FORMAT(10I8)                                                                   
      42      45      51      66      15      42      45     -51      66       1
      48      45      51      66       1      60      57      51      66       1
      63      57      51      66      15      63      57     -51      66       1
      45      57     -51     -66      17
%FLAG DIHEDRALS_WITHOUT_HYDROGEN                                                
%FORMAT(10I8)                                                                   
       0      48      45      42       1       0      48      45      51       1
       0      48      54      60       2       0       3      69      72       3
       0       3       9      15       4       0       3       9      18       5
       0       6      75      78       3       0       6     -12      15       2
       3       0      48      45       6       3       0     -48      45       7
       3       0      48      54       8       3       0       6      75       9
       3       0       6      12       9       3       9     -15      12      10
       3       9      15      21      10       3       9      18      24      11
       3       9      18      27       9       6       0      48      45       6
       6       0     -48      45       7       6       0      48      54       8
       6       0       3      69       9       6       0       3       9       9
       6      12     -15       9       2       6      12      15      21       2
      48       0       3       9       9       9       3      69      72       3
       9      15      21      30       9       9      15     -21      24      11
       9      18     -24      21       8       9      18      24      33       8
       9      18      27      36       2      48       0       6      12       9
      12       6      75      78       3      12      15       9      18      10
      12      15      21      30       9      12      15      21      24       9
      15       9       3      69       9      15       9     -18      24      11
      15       9      18      27       9      15      12       6      75       2
      15      21      30      36       2      15      21     -24      18       8
      15      21      24      33       8      18       9       3      69       9
      18       9     -15      21      10      18      24      21      30       8
      18      24      33      39       1      18      24      33      81       1
      18      27     -36      30       2      18      27      36      96       2
      21      30      36      27       2      21      30      36      96       2
      21      24     -18      27       8      21      24      33      39       1
      21      24      33      81       1      24      18      27      36       2
      24      21     -30      36       2      24      33      81      84      12
      27      18      24      33       8      27      36      96      99       2
      30      21      24      33       8      30      36      96      99       2
      33      81      84      87      13      33      81      84      90      13
      33      81      84      93      13      36      96      99     102       2
      36      96      99     105       2      39      33      81      84      14
      39      33     -81      84      12      42      45      48      54       1
      42      45      51      57       1      45      48      54      60       2
      45      51      57      63       1      45      51     -57      60       1
      48       0       3      69       9      48       0       6      75       9
      48      45      51      57       1      48      54     -60      57       2
      51      45      48      54       1      51      57     -60      54       2
      54      60      57      63       2      96      99     102     108       2
      96      99     105     111       2      99     102     108     114       2
      99     105    -111     114       2     102      99     105     111       2
     102     108    -114     111       2     105      99     102     108       2
     105     111    -114     108       2      48       0      -6      -3      16
       0       9      -3     -69      16      12       0      -6     -75      16
       3      18      -9     -15      16      12      21     -15      -9      16
      27       9     -18     -24      16      30      15     -21     -24      16
      33      18     -24     -21      17      24      39     -33     -81      17
      48      51     -45     -42      16       0      48     -54     -45      17
      60      51     -57     -63      16      96     102     -99    -105      16
%FLAG EXCLUDED_ATOMS_LIST                                                       
%FORMAT(10I8)                                                                   
       2       3       4       5       6       7      15      16      17      18
      19      21      24      25      26      27       3       4       5       6
       7       8       9      10      16      17      19      24      25      26
       4       5       6       8      16      17      19      24      26      27
       5       6       7       8       9      10      11      12      13      17
      24      25       6       7       8       9      11      17      26      27
       7       8       9      10      11      12      13      24      26       8
       9      10      11      12      13      14      24      28      33       9
      10      11      12      13      14      28      33      10      11      12
      13      14      28      29      11      12      13      33      34      12
      13      33      34      14      28      29      30      31      32      33
      34      35      36      28      29      16      17      18      19      20
      23      17      18      19      20      21      22      23      18      19
      20      21      23      24      26      19      20      21      22      23
      20      21      22      21      22      23      22      23      23       0
      25       0      27       0      29      30      31      32      30      31
      32      31      32      32       0      34      35      36      37      38
      35      36      37      38      39      36      37      38      39      37
      38      39      38      39      39       0
%FLAG HBOND_ACOEF                                                               
%FORMAT(5E16.8)                                                                 

%FLAG HBOND_BCOEF                                                               
%FORMAT(5E16.8)                                                                 

%FLAG HBCUT                                                                     
%FORMAT(5E16.8)                                                                 

%FLAG AMBER_ATOM_TYPE                                                           
%FORMAT(20a4)                                                                   
c2  c2  c2  cc  c1  cd  c2  c2  n   c1  c1  c   n3  o   o   c   n   ns  c1  c   
c1  o   hn  os  c1  os  c1  os  c3  c1  c1  c1  c1  ce  c1  c1  c1  c1  c1  
%FLAG TREE_CHAIN_CLASSIFICATION                                                 
%FORMAT(20a4)                                                                   
BLA BLA BLA BLA BLA BLA BLA BLA BLA BLA BLA BLA BLA BLA BLA BLA BLA BLA BLA BLA 
BLA BLA BLA BLA BLA BLA BLA BLA BLA BLA BLA BLA BLA BLA BLA BLA BLA BLA BLA 
%FLAG JOIN_ARRAY                                                                
%FORMAT(10I8)                                                                   
       0       0       0       0       0       0       0       0       0       0
       0       0       0       0       0       0       0       0       0       0
       0       0       0       0       0       0       0       0       0       0
       0       0       0       0       0       0       0       0       0
%FLAG IROTAT                                                                    
%FORMAT(10I8)                                                                   
       0       0       0       0       0       0       0       0       0       0
       0       0       0       0       0       0       0       0       0       0
       0       0       0       0       0       0       0       0       0       0
       0       0       0       0       0       0       0       0       0
%FLAG RADIUS_SET                                                                
%FORMAT(1a80)                                                                   
modified Bondi radii (mbondi)                                                   
%FLAG RADII                                                                     
%FORMAT(5E16.8)                                                                 
  1.70000000E+00  1.70000000E+00  1.70000000E+00  1.70000000E+00  1.70000000E+00
  1.70000000E+00  1.70000000E+00  1.70000000E+00  1.55000000E+00  1.70000000E+00
  1.70000000E+00  1.70000000E+00  1.55000000E+00  1.50000000E+00  1.50000000E+00
  1.70000000E+00  1.55000000E+00  1.55000000E+00  1.70000000E+00  1.70000000E+00
  1.70000000E+00  1.50000000E+00  1.30000000E+00  1.50000000E+00  1.70000000E+00
  1.50000000E+00  1.70000000E+00  1.50000000E+00  1.70000000E+00  1.70000000E+00
  1.70000000E+00  1.70000000E+00  1.70000000E+00  1.70000000E+00  1.70000000E+00
  1.70000000E+00  1.70000000E+00  1.70000000E+00  1.70000000E+00
%FLAG SCREEN                                                                    
%FORMAT(5E16.8)                                                                 
  7.20000000E-01  7.20000000E-01  7.20000000E-01  7.20000000E-01  7.20000000E-01
  7.20000000E-01  7.20000000E-01  7.20000000E-01  7.90000000E-01  7.20000000E-01
  7.20000000E-01  7.20000000E-01  7.90000000E-01  8.50000000E-01  8.50000000E-01
  7.20000000E-01  7.90000000E-01  7.90000000E-01  7.20000000E-01  7.20000000E-01
  7.20000000E-01  8.50000000E-01  8.50000000E-01  8.50000000E-01  7.20000000E-01
  8.50000000E-01  7.20000000E-01  8.50000000E-01  7.20000000E-01  7.20000000E-01
  7.20000000E-01  7.20000000E-01  7.20000000E-01  7.20000000E-01  7.20000000E-01
  7.20000000E-01  7.20000000E-01  7.20000000E-01  7.20000000E-01
%FLAG IPOL                                                                      
%FORMAT(1I8)                                                                    
       0
