LIG
    33
  88.2180000 148.9410000  14.7930000  87.2570000 149.1900000  15.8790000
  87.5900000 148.9250000  13.4590000  85.8510000 148.6820000  15.5690000
  86.4060000 149.8860000  13.3810000  85.3000000 149.3970000  14.3280000
  84.4060000 148.4820000  13.6060000  84.0860000 150.3550000  14.5830000
  83.4220000 149.5370000  13.4650000  84.2730000 151.9270000  14.4730000
  83.6350000 152.6540000  13.4520000  85.0690000 152.6860000  15.3450000
  83.7720000 154.0440000  13.3150000  85.2120000 154.0780000  15.2130000
  84.5620000 154.7880000  14.1950000  84.7190000 156.2090000  14.0500000
  85.4940000 156.7730000  13.0280000  83.8820000 157.1110000  14.8370000
  86.1340000 156.1720000  12.1700000  85.5160000 158.1480000  12.9990000
  84.6560000 158.3430000  15.2570000  85.2540000 158.9860000  14.0460000
  85.5660000 160.1730000  14.0160000  85.7440000 158.5700000  12.1400000
  89.0250000 147.7360000  15.0450000  87.6600000 143.8290000  11.8390000
  88.7120000 145.1150000  12.2930000  88.4540000 145.8780000  13.4320000
  89.8290000 145.3930000  11.5040000  87.3680000 145.6190000  14.1770000
  89.3040000 146.9280000  13.7990000  90.6840000 146.4370000  11.8570000
  90.4240000 147.2010000  12.9970000
