%VERSION  VERSION_STAMP = V0001.000  DATE = 09/06/26  21:56:20                  
%FLAG TITLE                                                                     
%FORMAT(20a4)                                                                   
LIG                                                                             
%FLAG POINTERS                                                                  
%FORMAT(10I8)                                                                   
      28      10       3      27       5      37      12      54       0       0
     124       1      27      37      54      17      34      10      12       0
       0       0       0       0       0       0       0       0      28       0
       0
%FLAG ATOM_NAME                                                                 
%FORMAT(20a4)                                                                   
C1  C2  C3  C4  C5  C6  O1  C7  N1  N2  C8  C9  C10 O2  H1  C11 N3  C12 C13 C14 
C15 N4  C16 H2  C17 O3  O4  H3  
%FLAG CHARGE                                                                    
%FORMAT(5E16.8)                                                                 
  2.66754427E+00 -1.09685490E+00 -5.02425256E-01  2.27742305E+00 -2.60998003E-01
 -6.37561832E-01 -4.59382361E+00  5.92142750E+00 -3.01130796E+00 -4.13562387E+00
  3.99287038E-01  5.40877953E+00  2.65043354E-01 -4.76706301E+00  2.94007699E+00
 -3.75616270E-01 -2.20061606E+00  3.08973674E+00  2.75083841E-01 -4.88412307E-01
  1.51172201E-01 -3.30616300E+00  1.11994256E-01  2.80206129E+00  5.69126163E+00
 -4.71729791E+00 -5.94956273E+00  4.04239859E+00
%FLAG ATOMIC_NUMBER                                                             
%FORMAT(10I8)                                                                   
       6       6       6       6       6       6       8       6       7       7
       6       6       6       8       1       6       7       6       6       6
       6       7       6       1       6       8       8       1
%FLAG MASS                                                                      
%FORMAT(5E16.8)                                                                 
  1.20100000E+01  1.20100000E+01  1.20100000E+01  1.20100000E+01  1.20100000E+01
  1.20100000E+01  1.60000000E+01  1.20100000E+01  1.40100000E+01  1.40100000E+01
  1.20100000E+01  1.20100000E+01  1.20100000E+01  1.60000000E+01  1.00800000E+00
  1.20100000E+01  1.40100000E+01  1.20100000E+01  1.20100000E+01  1.20100000E+01
  1.20100000E+01  1.40100000E+01  1.20100000E+01  1.00800000E+00  1.20100000E+01
  1.60000000E+01  1.60000000E+01  1.00800000E+00
%FLAG ATOM_TYPE_INDEX                                                           
%FORMAT(10I8)                                                                   
       1       2       2       1       2       2       3       1       4       5
       2       1       2       3       6       2       7       1       2       2
       2       8       2       6       1       3       9      10
%FLAG NUMBER_EXCLUDED_ATOMS                                                     
%FORMAT(10I8)                                                                   
      12       9       6       7       3       2       6       7       5       5
       3       3       2       1       1       6       9      10       5       7
       3       3       1       1       3       2       1       1
%FLAG NONBONDED_PARM_INDEX                                                      
%FORMAT(10I8)                                                                   
       1       2       4       7      11      16      22      29      37      46
       2       3       5       8      12      17      23      30      38      47
       4       5       6       9      13      18      24      31      39      48
       7       8       9      10      14      19      25      32      40      49
      11      12      13      14      15      20      26      33      41      50
      16      17      18      19      20      21      27      34      42      51
      22      23      24      25      26      27      28      35      43      52
      29      30      31      32      33      34      35      36      44      53
      37      38      39      40      41      42      43      44      45      54
      46      47      48      49      50      51      52      53      54      55
%FLAG RESIDUE_LABEL                                                             
%FORMAT(20a4)                                                                   
LIG 
%FLAG RESIDUE_POINTER                                                           
%FORMAT(10I8)                                                                   
       1
%FLAG BOND_FORCE_CONSTANT                                                       
%FORMAT(5E16.8)                                                                 
  3.13870000E+02  4.66850000E+02  3.36100000E+02  6.99130000E+02  5.90600000E+02
  3.17460000E+02  3.36070000E+02  4.28900000E+02  4.73590000E+02  2.50880000E+02
  3.97760000E+02  2.93230000E+02  3.08440000E+02  3.78090000E+02  4.60050000E+02
  3.59270000E+02  5.35510000E+02
%FLAG BOND_EQUIL_VALUE                                                          
%FORMAT(5E16.8)                                                                 
  1.40010000E+00  1.31850000E+00  1.41440000E+00  1.20950000E+00  1.21900000E+00
  1.39670000E+00  1.37980000E+00  1.33000000E+00  1.01320000E+00  1.50560000E+00
  1.33100000E+00  1.42060000E+00  1.44060000E+00  1.34550000E+00  1.01950000E+00
  1.35560000E+00  9.72500000E-01
%FLAG ANGLE_FORCE_CONSTANT                                                      
%FORMAT(5E16.8)                                                                 
  7.86500000E+01  6.81000000E+01  5.32200000E+01  5.73200000E+01  6.79500000E+01
  1.47580000E+02  6.37200000E+01  7.48600000E+01  6.44800000E+01  6.22400000E+01
  8.66800000E+01  8.72100000E+01  6.96000000E+01  7.72200000E+01  5.73700000E+01
  7.40500000E+01  7.80000000E+01  6.81300000E+01  5.79000000E+01  7.58200000E+01
  8.08400000E+01  1.14280000E+02  8.84000000E+01  6.77300000E+01  7.67000000E+01
  8.00800000E+01  7.47800000E+01  6.22400000E+01  6.88500000E+01  1.14280000E+02
  5.95100000E+01  6.05100000E+01  6.84600000E+01  1.02030000E+02
%FLAG ANGLE_EQUIL_VALUE                                                         
%FORMAT(5E16.8)                                                                 
  2.09771213E+00  2.07484830E+00  3.12536243E+00  3.14159400E+00  2.18637489E+00
  4.38775962E-01  2.04517769E+00  2.02667720E+00  2.26561287E+00  2.55551219E+00
  2.13925098E+00  2.14762857E+00  2.04273423E+00  2.23489507E+00  2.04657396E+00
  1.99613392E+00  3.09237569E+00  2.00887483E+00  3.14159400E+00  2.22843734E+00
  2.04238517E+00  1.09659084E+00  2.17380852E+00  2.18183703E+00  3.14159400E+00
  2.13122246E+00  2.26526381E+00  2.55551219E+00  1.98636007E+00  1.09659084E+00
  1.98252035E+00  3.09743715E+00  1.85947458E+00  2.13087340E+00
%FLAG DIHEDRAL_FORCE_CONSTANT                                                   
%FORMAT(5E16.8)                                                                 
  2.50000000E+00  0.00000000E+00  6.50000000E-01  2.00000000E+00  3.00000000E-01
  2.17500000E+00  2.30000000E+00  1.90000000E+00  1.05000000E+01  1.10000000E+00
%FLAG DIHEDRAL_PERIODICITY                                                      
%FORMAT(5E16.8)                                                                 
  2.00000000E+00  2.00000000E+00  2.00000000E+00  1.00000000E+00  2.00000000E+00
  2.00000000E+00  2.00000000E+00  1.00000000E+00  2.00000000E+00  2.00000000E+00
%FLAG DIHEDRAL_PHASE                                                            
%FORMAT(5E16.8)                                                                 
  3.14159400E+00  3.14159400E+00  3.14159400E+00  0.00000000E+00  3.14159400E+00
  3.14159400E+00  3.14159400E+00  0.00000000E+00  3.14159400E+00  3.14159400E+00
%FLAG SCEE_SCALE_FACTOR                                                         
%FORMAT(5E16.8)                                                                 
  1.20000000E+00  1.20000000E+00  1.20000000E+00  1.20000000E+00  1.20000000E+00
  1.20000000E+00  1.20000000E+00  1.20000000E+00  0.00000000E+00  0.00000000E+00
%FLAG SCNB_SCALE_FACTOR                                                         
%FORMAT(5E16.8)                                                                 
  2.00000000E+00  2.00000000E+00  2.00000000E+00  2.00000000E+00  2.00000000E+00
  2.00000000E+00  2.00000000E+00  2.00000000E+00  0.00000000E+00  0.00000000E+00
%FLAG SOLTY                                                                     
%FORMAT(5E16.8)                                                                 
  0.00000000E+00  0.00000000E+00  0.00000000E+00  0.00000000E+00  0.00000000E+00
  0.00000000E+00  0.00000000E+00  0.00000000E+00  0.00000000E+00  0.00000000E+00
  0.00000000E+00  0.00000000E+00
%FLAG LENNARD_JONES_ACOEF                                                       
%FORMAT(5E16.8)                                                                 
  6.96551276E+05  1.18640578E+06  2.00671338E+06  5.17507491E+05  8.92208123E+05
  3.76435470E+05  7.01106848E+05  1.20132739E+06  5.15491878E+05  7.02078680E+05
  6.99381362E+05  1.19359607E+06  5.17814271E+05  7.02755693E+05  7.01825028E+05
  1.71458823E+03  3.37137075E+03  9.87857350E+02  1.52360475E+03  1.65195713E+03
  1.34728399E-01  7.10207765E+05  1.20705609E+06  5.29641935E+05  7.16178718E+05
  7.13532671E+05  1.82809059E+03  7.23647490E+05  7.13691175E+05  1.20572069E+06
  5.37823556E+05  7.23403259E+05  7.18259517E+05  2.07791361E+03  7.25846509E+05
  7.24302894E+05  5.92438683E+05  1.01229921E+06  4.37717034E+05  5.94682930E+05
  5.94304835E+05  1.36475542E+03  6.04651377E+05  6.09286822E+05  5.03152404E+05
  2.25372434E+02  4.71994656E+02  1.15813907E+02  1.89434762E+02  2.13197010E+02
  2.61760843E-03  2.45082140E+02  2.93996564E+02  1.74176419E+02  1.10360882E-05
%FLAG LENNARD_JONES_BCOEF                                                       
%FORMAT(5E16.8)                                                                 
  5.24668528E+02  7.71958727E+02  1.13185062E+03  4.98871431E+02  7.38469198E+02
  4.69350655E+02  5.97113873E+02  8.81180204E+02  5.64804067E+02  6.77820248E+02
  5.48900066E+02  8.08414196E+02  5.21008860E+02  6.24158704E+02  5.74088001E+02
  1.46824710E+01  2.32108730E+01  1.22938581E+01  1.57004457E+01  1.50468782E+01
  7.34107347E-02  5.11427129E+02  7.51664026E+02  4.87196412E+02  5.82583725E+02
  5.35211915E+02  1.46352678E+01  4.98353106E+02  4.52784989E+02  6.63482084E+02
  4.33589357E+02  5.17110882E+02  4.74247817E+02  1.37803855E+01  4.40800258E+02
  3.88888730E+02  4.76608379E+02  7.02365877E+02  4.51916854E+02  5.41675626E+02
  4.98393522E+02  1.29026271E+01  4.64809588E+02  4.12077831E+02  4.32634597E+02
  4.40751799E+00  7.19086644E+00  3.48534600E+00  4.58384710E+00  4.47571103E+00
  8.47240681E-03  4.43692527E+00  4.29183694E+00  3.81654050E+00  4.55498033E-04
%FLAG BONDS_INC_HYDROGEN                                                        
%FORMAT(10I8)                                                                   
      27      42       9      63      69      15      78      81      17
%FLAG BONDS_WITHOUT_HYDROGEN                                                    
%FORMAT(10I8)                                                                   
       0      24       1       0       3       2       0       6       2       3
       9       3       6      12       4       9      15       3       9      45
       3      12      15       4      18      21       5      21      24       6
      21      27       7      24      30       8      27      33       7      30
      36       4      33      39       5      33      36      10      45      48
      11      48      51      12      48      54      11      51      72      13
      51      57       2      54      60       4      57      63      14      60
      66       4      63      66      14      72      75       5      72      78
      16
%FLAG ANGLES_INC_HYDROGEN                                                       
%FORMAT(10I8)                                                                   
      21      27      42      15      33      27      42      15      57      63
      69      31      66      63      69      31      72      78      81      33
%FLAG ANGLES_WITHOUT_HYDROGEN                                                   
%FORMAT(10I8)                                                                   
       0      24      21       1       0      24      30       2       0       3
       9       3       0       6      12       4       3       0      24       5
       3       0       6       6       3       9      15       7       3       9
      45       7       6       0      24       5       6      12      15       8
       9      15      12       9       9      45      48      10      15       9
      45       7      18      21      24      11      18      21      27      12
      21      24      30      13      21      27      33      14      24      21
      27      16      24      30      36      17      27      33      39      12
      27      33      36      18      30      36      33      19      36      33
      39      20      45      48      51      21      45      48      54      22
      48      51      72      23      48      51      57      24      48      54
      60      25      51      48      54      21      51      72      75      26
      51      72      78      27      51      57      63      28      54      60
      66       8      57      51      72      29      57      63      66      30
      60      66      63      32      75      72      78      34
%FLAG DIHEDRALS_INC_HYDROGEN                                                    
%FORMAT(10I8)                                                                   
      18      21      27      42       4      18      21     -27      42       1
      24      21      27      42       1      36      33      27      42       1
      39      33      27      42       4      39      33     -27      42       1
      51      72      78      81       7      51      57      63      69       2
      60      66      63      69       2      75      72      78      81       8
      75      72     -78      81       7      21      33     -27     -42      10
%FLAG DIHEDRALS_WITHOUT_HYDROGEN                                                
%FORMAT(10I8)                                                                   
       0      24      21      18       1       0      24      21      27       1
       0      24      30      36       2       0       3       9      15       2
       0       3       9      45       2       0       6     -12      15       2
       3       0      24      21       3       3       0      24      30       3
       3       0       6      12       2       3       9     -15      12       2
       3       9      45      48       2       6       0      24      21       3
       6       0      24      30       3       6       0       3       9       2
       6      12     -15       9       2      24       0       3       9       2
       9      45      48      51       2       9      45      48      54       2
      24       0       6      12       2      12      15       9      45       2
      15       9      45      48       2      18      21      24      30       1
      18      21      27      33       1      21      24      30      36       2
      21      27      33      39       1      21      27     -33      36       1
      24      21      27      33       1      24      30     -36      33       2
      27      21      24      30       1      27      33     -36      30       2
      30      36      33      39       2      45      48      51      72       5
      45      48      51      57       5      45      48      54      60       2
      48      51      72      75       6      48      51      72      78       6
      48      51      57      63       2      48      54      60      66       2
      51      48      54      60       2      51      57      63      66       2
      54      48      51      72       5      54      48      51      57       5
      54      60      66      63       2      57      51      72      75       6
      57      51      72      78       6      57      63      66      60       2
      63      57      51      72       2      24       0      -6      -3       9
       3      15      -9     -45       9      24      27     -21     -18       9
       0      24     -30     -21      10      36      27     -33     -39       9
      72      57     -51     -48       9      51      75     -72     -78      10
%FLAG EXCLUDED_ATOMS_LIST                                                       
%FORMAT(10I8)                                                                   
       2       3       4       5       6       7       8       9      10      11
      13      16       3       4       5       6       8       9      11      16
      17       4       5       6       8       9      11       5       6       9
      16      17      18      19       6       9      16      16      17       8
       9      10      11      12      15       9      10      11      12      13
      14      15      10      11      12      13      15      11      12      13
      14      15      12      13      14      13      14      15      14      15
      15       0      17      18      19      20      21      25      18      19
      20      21      22      23      25      26      27      19      20      21
      22      23      24      25      26      27      28      20      21      22
      23      25      21      22      23      24      25      26      27      22
      23      24      23      24      25      24       0      26      27      28
      27      28      28       0
%FLAG HBOND_ACOEF                                                               
%FORMAT(5E16.8)                                                                 

%FLAG HBOND_BCOEF                                                               
%FORMAT(5E16.8)                                                                 

%FLAG HBCUT                                                                     
%FORMAT(5E16.8)                                                                 

%FLAG AMBER_ATOM_TYPE                                                           
%FORMAT(20a4)                                                                   
c2  c1  c1  ce  c1  c1  o   c   n   ns  c1  c   c1  o   hn  c1  n3  c2  c1  c1  
c1  n7  c1  hn  c   o   oh  ho  
%FLAG TREE_CHAIN_CLASSIFICATION                                                 
%FORMAT(20a4)                                                                   
BLA BLA BLA BLA BLA BLA BLA BLA BLA BLA BLA BLA BLA BLA BLA BLA BLA BLA BLA BLA 
BLA BLA BLA BLA BLA BLA BLA BLA 
%FLAG JOIN_ARRAY                                                                
%FORMAT(10I8)                                                                   
       0       0       0       0       0       0       0       0       0       0
       0       0       0       0       0       0       0       0       0       0
       0       0       0       0       0       0       0       0
%FLAG IROTAT                                                                    
%FORMAT(10I8)                                                                   
       0       0       0       0       0       0       0       0       0       0
       0       0       0       0       0       0       0       0       0       0
       0       0       0       0       0       0       0       0
%FLAG RADIUS_SET                                                                
%FORMAT(1a80)                                                                   
modified Bondi radii (mbondi)                                                   
%FLAG RADII                                                                     
%FORMAT(5E16.8)                                                                 
  1.70000000E+00  1.70000000E+00  1.70000000E+00  1.70000000E+00  1.70000000E+00
  1.70000000E+00  1.50000000E+00  1.70000000E+00  1.55000000E+00  1.55000000E+00
  1.70000000E+00  1.70000000E+00  1.70000000E+00  1.50000000E+00  1.30000000E+00
  1.70000000E+00  1.55000000E+00  1.70000000E+00  1.70000000E+00  1.70000000E+00
  1.70000000E+00  1.55000000E+00  1.70000000E+00  1.30000000E+00  1.70000000E+00
  1.50000000E+00  1.50000000E+00  8.00000000E-01
%FLAG SCREEN                                                                    
%FORMAT(5E16.8)                                                                 
  7.20000000E-01  7.20000000E-01  7.20000000E-01  7.20000000E-01  7.20000000E-01
  7.20000000E-01  8.50000000E-01  7.20000000E-01  7.90000000E-01  7.90000000E-01
  7.20000000E-01  7.20000000E-01  7.20000000E-01  8.50000000E-01  8.50000000E-01
  7.20000000E-01  7.90000000E-01  7.20000000E-01  7.20000000E-01  7.20000000E-01
  7.20000000E-01  7.90000000E-01  7.20000000E-01  8.50000000E-01  7.20000000E-01
  8.50000000E-01  8.50000000E-01  8.50000000E-01
%FLAG IPOL                                                                      
%FORMAT(1I8)                                                                    
       0
