LIG
    37
  84.1040000 154.3500000  13.7310000  84.8660000 153.3600000  13.0430000
  82.9310000 153.9780000  14.4130000  84.4780000 152.0120000  13.0440000
  82.5740000 152.6440000  14.4210000  83.3410000 151.6730000  13.7460000
  81.4390000 151.9270000  15.1170000  82.7020000 150.3270000  13.9950000
  81.3350000 150.7440000  14.2710000  81.8900000 151.4270000  16.5300000
  83.2610000 149.7040000  15.3180000  80.3020000 149.8500000  14.2880000
  83.0810000 150.5100000  16.5790000  80.3800000 148.7220000  13.8220000
  84.1160000 156.0970000  11.4620000  84.4390000 156.4920000  12.5810000
  84.5190000 155.7170000  13.7390000  84.8140000 157.8070000  12.7370000
  85.3100000 156.2220000  14.8490000  85.0240000 158.4730000  13.9130000
  84.9160000 157.6500000  15.1620000  85.2270000 159.6840000  13.9380000
  84.9450000 158.3260000  11.9100000  85.9110000 153.7850000  12.2530000
  86.9780000 152.8420000  12.1650000  79.2010000 150.3760000  14.8830000
  78.0320000 149.5570000  15.1410000  77.5100000 149.1790000  13.7470000
  76.9450000 150.3550000  15.8710000  78.4030000 148.2720000  15.8890000
  84.2990000 151.2410000  16.9720000  85.5900000 150.5300000  16.6170000
  86.5680000 151.1870000  15.8540000  85.8480000 149.2300000  17.0740000
  87.7690000 150.5480000  15.5410000  87.0490000 148.5920000  16.7580000
  88.0080000 149.2500000  15.9910000
