LIG
    34
  86.4670000 156.1650000   3.3290000  87.5490000 156.6460000   2.9990000
  87.6200000 157.9830000   2.7310000  88.8100000 155.8270000   2.7880000
  88.8530000 158.7050000   2.5720000  90.0710000 156.1940000   3.6170000
  88.5490000 154.3470000   3.0940000  89.6030000 158.7000000   3.8760000
  90.1470000 157.5060000   4.3920000  90.3260000 154.9140000   4.4390000
  89.8500000 153.8500000   3.5500000  89.7200000 159.9050000   4.6000000
  90.8460000 157.5810000   5.6120000  90.4190000 159.9690000   5.8120000
  90.9880000 158.7890000   6.3120000  86.7770000 158.4830000   2.6420000
  90.5240000 161.2090000   6.5140000  91.4480000 162.1790000   6.1260000
  89.4820000 161.5910000   7.4550000  92.1710000 162.1430000   5.1320000
  91.4920000 163.2940000   6.9330000  90.0910000 162.2930000   8.6500000
  90.9290000 163.4410000   8.1700000  91.1510000 164.4290000   8.8650000
  91.9830000 164.0710000   6.5800000  91.5400000 158.8010000   7.5720000
  92.9430000 159.0650000   7.5660000  89.7290000 152.5520000   4.2240000
  89.7910000 152.6650000   5.7330000  91.0010000 152.4780000   6.4150000
  88.6360000 152.9650000   6.4710000  91.0550000 152.5880000   7.8060000
  88.6910000 153.0740000   7.8620000  89.9000000 152.8860000   8.5280000
