%VERSION  VERSION_STAMP = V0001.000  DATE = 09/06/26  21:56:16                  
%FLAG TITLE                                                                     
%FORMAT(20a4)                                                                   
LIG                                                                             
%FLAG POINTERS                                                                  
%FORMAT(10I8)                                                                   
      37      11       1      40       2      59       7      96       0       0
     173       1      40      59      96      20      42      12      13       0
       0       0       0       0       0       0       0       0      37       0
       0
%FLAG ATOM_NAME                                                                 
%FORMAT(20a4)                                                                   
C1  C2  C3  C4  C5  C6  N1  C7  C8  C9  C10 C11 O1  C12 C13 C14 Cl1 C15 C16 C17 
F1  C18 C19 C20 N2  C21 C22 O2  N3  C23 C24 O3  H1  O4  C25 O5  C26 
%FLAG CHARGE                                                                    
%FORMAT(5E16.8)                                                                 
  1.49366371E+00 -1.21449807E+00 -1.21449807E+00  2.96835800E+00  2.96835800E+00
  2.37423813E+00 -1.70254593E+00  2.21164055E-01  2.21164055E-01 -5.15271977E-01
 -5.15271977E-01  4.43563582E+00 -4.85343672E+00  1.81495930E+00  3.42433462E-01
 -3.28256512E-01 -1.29498597E+00  2.35109581E+00  3.17785979E+00 -6.87782491E-01
 -3.68990642E+00  2.17056749E+00 -2.89570569E-01 -7.38604486E-01 -3.17589178E+00
  5.90582921E+00  3.83032746E-01 -4.59451606E+00 -4.13615232E+00  2.64423795E-01
  5.40876131E+00 -4.76706301E+00  2.94005877E+00 -4.52281130E+00  1.66112665E+00
 -4.52281130E+00  1.66112665E+00
%FLAG ATOMIC_NUMBER                                                             
%FORMAT(10I8)                                                                   
       6       6       6       6       6       6       7       6       6       6
       6       6       8       6       6       6      17       6       6       6
       9       6       6       6       7       6       6       8       7       6
       6       8       1       8       6       8       6
%FLAG MASS                                                                      
%FORMAT(5E16.8)                                                                 
  1.20100000E+01  1.20100000E+01  1.20100000E+01  1.20100000E+01  1.20100000E+01
  1.20100000E+01  1.40100000E+01  1.20100000E+01  1.20100000E+01  1.20100000E+01
  1.20100000E+01  1.20100000E+01  1.60000000E+01  1.20100000E+01  1.20100000E+01
  1.20100000E+01  3.54500000E+01  1.20100000E+01  1.20100000E+01  1.20100000E+01
  1.90000000E+01  1.20100000E+01  1.20100000E+01  1.20100000E+01  1.40100000E+01
  1.20100000E+01  1.20100000E+01  1.60000000E+01  1.40100000E+01  1.20100000E+01
  1.20100000E+01  1.60000000E+01  1.00800000E+00  1.60000000E+01  1.20100000E+01
  1.60000000E+01  1.20100000E+01
%FLAG ATOM_TYPE_INDEX                                                           
%FORMAT(10I8)                                                                   
       1       2       2       1       1       1       3       2       2       2
       2       4       5       1       2       2       6       1       1       2
       7       1       2       2       8       1       2       9      10       2
       1       9      11       5       2       5       2
%FLAG NUMBER_EXCLUDED_ATOMS                                                     
%FORMAT(10I8)                                                                   
      13      10       9       9       8      10       9       8       7       6
       5       3       2       1       1       6       6       6       5       4
       2       2       1       1       9       7       5       3       4       3
       2       1       1       1       1       1       1
%FLAG NONBONDED_PARM_INDEX                                                      
%FORMAT(10I8)                                                                   
       1       2       4       7      11      16      22      29      37      46
      56       2       3       5       8      12      17      23      30      38
      47      57       4       5       6       9      13      18      24      31
      39      48      58       7       8       9      10      14      19      25
      32      40      49      59      11      12      13      14      15      20
      26      33      41      50      60      16      17      18      19      20
      21      27      34      42      51      61      22      23      24      25
      26      27      28      35      43      52      62      29      30      31
      32      33      34      35      36      44      53      63      37      38
      39      40      41      42      43      44      45      54      64      46
      47      48      49      50      51      52      53      54      55      65
      56      57      58      59      60      61      62      63      64      65
      66
%FLAG RESIDUE_LABEL                                                             
%FORMAT(20a4)                                                                   
LIG 
%FLAG RESIDUE_POINTER                                                           
%FORMAT(10I8)                                                                   
       1
%FLAG BOND_FORCE_CONSTANT                                                       
%FORMAT(5E16.8)                                                                 
  3.36100000E+02  4.24300000E+02  4.66850000E+02  3.50470000E+02  4.36000000E+02
  3.13870000E+02  3.97760000E+02  6.99130000E+02  2.84580000E+02  2.82270000E+02
  2.48400000E+02  4.15540000E+02  1.96040000E+02  3.50610000E+02  3.17460000E+02
  4.28900000E+02  5.90600000E+02  3.36070000E+02  4.73590000E+02  2.50880000E+02
%FLAG BOND_EQUIL_VALUE                                                          
%FORMAT(5E16.8)                                                                 
  1.41440000E+00  1.34570000E+00  1.31850000E+00  1.36280000E+00  1.33790000E+00
  1.40010000E+00  1.33100000E+00  1.20950000E+00  1.46560000E+00  1.42730000E+00
  1.50880000E+00  1.31410000E+00  1.74150000E+00  1.33750000E+00  1.39670000E+00
  1.33000000E+00  1.21900000E+00  1.37980000E+00  1.01320000E+00  1.50560000E+00
%FLAG ANGLE_FORCE_CONSTANT                                                      
%FORMAT(5E16.8)                                                                 
  5.32200000E+01  6.06000000E+01  6.43200000E+01  6.37200000E+01  6.37900000E+01
  8.09800000E+01  6.88500000E+01  9.26500000E+01  6.54700000E+01  6.77900000E+01
  8.00400000E+01  7.86500000E+01  6.81000000E+01  7.67000000E+01  6.22400000E+01
  1.14280000E+02  5.35800000E+01  6.33700000E+01  7.89600000E+01  6.22200000E+01
  9.09900000E+01  6.11900000E+01  7.80200000E+01  7.09900000E+01  6.40800000E+01
  8.14900000E+01  8.15000000E+01  7.08000000E+01  5.73200000E+01  7.48600000E+01
  8.13300000E+01  6.44800000E+01  8.66800000E+01  7.40500000E+01  7.80000000E+01
  6.96000000E+01  7.72200000E+01  5.73700000E+01  5.79000000E+01  8.72100000E+01
  6.81300000E+01  7.58200000E+01
%FLAG ANGLE_EQUIL_VALUE                                                         
%FORMAT(5E16.8)                                                                 
  3.12536243E+00  2.19178541E+00  2.26194768E+00  2.04517769E+00  2.13802925E+00
  2.10608971E+00  1.98636007E+00  2.04674849E+00  2.16560546E+00  2.16927066E+00
  2.12685914E+00  2.09771213E+00  2.07484830E+00  3.14159400E+00  2.55551219E+00
  1.09659084E+00  3.11838111E+00  1.92614619E+00  1.90398050E+00  1.93853803E+00
  2.01219096E+00  2.18009170E+00  1.88862159E+00  3.13059842E+00  2.14989749E+00
  2.17503025E+00  2.14396337E+00  1.84079955E+00  3.14159400E+00  2.02667720E+00
  2.14012365E+00  2.26561287E+00  2.13925098E+00  1.99613392E+00  3.09237569E+00
  2.04273423E+00  2.23489507E+00  2.04657396E+00  3.14159400E+00  2.14762857E+00
  2.00887483E+00  2.22843734E+00
%FLAG DIHEDRAL_FORCE_CONSTANT                                                   
%FORMAT(5E16.8)                                                                 
  0.00000000E+00  0.00000000E+00  6.65000000E+00  1.05000000E+00  1.53000000E+00
  1.57000000E+00  6.50000000E-01  2.50000000E+00  3.83333333E-01  2.00000000E+00
  1.05000000E+01  1.10000000E+00
%FLAG DIHEDRAL_PERIODICITY                                                      
%FORMAT(5E16.8)                                                                 
  2.00000000E+00  2.00000000E+00  2.00000000E+00  2.00000000E+00  1.00000000E+00
  2.00000000E+00  2.00000000E+00  2.00000000E+00  3.00000000E+00  1.00000000E+00
  2.00000000E+00  2.00000000E+00
%FLAG DIHEDRAL_PHASE                                                            
%FORMAT(5E16.8)                                                                 
  3.14159400E+00  0.00000000E+00  3.14159400E+00  3.14159400E+00  3.14159400E+00
  3.14159400E+00  3.14159400E+00  3.14159400E+00  0.00000000E+00  0.00000000E+00
  3.14159400E+00  3.14159400E+00
%FLAG SCEE_SCALE_FACTOR                                                         
%FORMAT(5E16.8)                                                                 
  1.20000000E+00  1.20000000E+00  1.20000000E+00  1.20000000E+00  1.20000000E+00
  1.20000000E+00  1.20000000E+00  1.20000000E+00  1.20000000E+00  1.20000000E+00
  0.00000000E+00  0.00000000E+00
%FLAG SCNB_SCALE_FACTOR                                                         
%FORMAT(5E16.8)                                                                 
  2.00000000E+00  2.00000000E+00  2.00000000E+00  2.00000000E+00  2.00000000E+00
  2.00000000E+00  2.00000000E+00  2.00000000E+00  2.00000000E+00  2.00000000E+00
  0.00000000E+00  0.00000000E+00
%FLAG SOLTY                                                                     
%FORMAT(5E16.8)                                                                 
  0.00000000E+00  0.00000000E+00  0.00000000E+00  0.00000000E+00  0.00000000E+00
  0.00000000E+00  0.00000000E+00  0.00000000E+00  0.00000000E+00  0.00000000E+00
  0.00000000E+00  0.00000000E+00  0.00000000E+00
%FLAG LENNARD_JONES_ACOEF                                                       
%FORMAT(5E16.8)                                                                 
  6.96551276E+05  1.18640578E+06  2.00671338E+06  7.10207765E+05  1.20705609E+06
  7.23647490E+05  8.43969952E+05  1.43239677E+06  8.59569453E+05  1.02073671E+06
  4.46121722E+05  7.65280989E+05  4.55871651E+05  5.42502534E+05  2.83662575E+05
  1.49062160E+06  2.52263692E+06  1.51682150E+06  1.80018612E+06  9.60982218E+05
  3.17107030E+06  3.80155513E+05  6.55838634E+05  3.89148854E+05  4.63627012E+05
  2.40318810E+05  8.23189596E+05  2.02652992E+05  7.01106848E+05  1.20132739E+06
  7.16178718E+05  8.52084164E+05  4.46307018E+05  1.50866868E+06  3.78460396E+05
  7.02078680E+05  5.17507491E+05  8.92208123E+05  5.29641935E+05  6.30925504E+05
  3.27367585E+05  1.11993097E+06  2.76207447E+05  5.15491878E+05  3.76435470E+05
  6.99381362E+05  1.19359607E+06  7.13532671E+05  8.48258258E+05  4.47026838E+05
  1.49942414E+06  3.80309307E+05  7.02755693E+05  5.17814271E+05  7.01825028E+05
  1.71458823E+03  3.37137075E+03  1.82809059E+03  2.23577481E+03  9.46795083E+02
  4.18912581E+03  7.15600927E+02  1.52360475E+03  9.87857350E+02  1.65195713E+03
  1.34728399E-01
%FLAG LENNARD_JONES_BCOEF                                                       
%FORMAT(5E16.8)                                                                 
  5.24668528E+02  7.71958727E+02  1.13185062E+03  5.11427129E+02  7.51664026E+02
  4.98353106E+02  5.90251928E+02  8.66911122E+02  5.75038595E+02  6.63431737E+02
  3.88758656E+02  5.74027680E+02  3.79365004E+02  4.38146883E+02  2.87011518E+02
  9.81118883E+02  1.43891218E+03  9.55405536E+02  1.10195051E+03  7.29357620E+02
  1.82923847E+03  3.71304925E+02  5.49816220E+02  3.62652376E+02  4.19082844E+02
  2.73330984E+02  6.98440575E+02  2.59697739E+02  5.97113873E+02  8.81180204E+02
  5.82583725E+02  6.72777963E+02  4.41089616E+02  1.11967364E+03  4.20258854E+02
  6.77820248E+02  4.98871431E+02  7.38469198E+02  4.87196412E+02  5.62969425E+02
  3.67361018E+02  9.38113535E+02  3.49131956E+02  5.64804067E+02  4.69350655E+02
  5.48900066E+02  8.08414196E+02  5.35211915E+02  6.17825399E+02  4.06301077E+02
  1.02737257E+03  3.87745109E+02  6.24158704E+02  5.21008860E+02  5.74088001E+02
  1.46824710E+01  2.32108730E+01  1.46352678E+01  1.71355763E+01  1.01016461E+01
  2.93366416E+01  9.08649254E+00  1.57004457E+01  1.22938581E+01  1.50468782E+01
  7.34107347E-02
%FLAG BONDS_INC_HYDROGEN                                                        
%FORMAT(10I8)                                                                   
      84      96      19
%FLAG BONDS_WITHOUT_HYDROGEN                                                    
%FORMAT(10I8)                                                                   
       0       3       1       0       6       1       0      39       2       3
       9       3       6      12       3       9      99       4       9      15
       5      12     105       4      12      15       5      15      72       6
      18      21       7      18      24       7      18      45       7      21
      27       8      24      30       8      27      33       9      30      33
       9      33      36      10      33      39      11      36      42      12
      39      42       3      45      63       1      48      51      13      51
      54       5      51      57       3      54      60      14      54      63
       2      57      66       8      63      69       1      66      69       8
      72      75      15      72      78      16      75      81      17      75
      84      18      78      87       8      84      90      18      87      90
      20      90      93      17      99     102      12     105     108      12
%FLAG ANGLES_INC_HYDROGEN                                                       
%FORMAT(10I8)                                                                   
      75      84      96      38      90      84      96      38
%FLAG ANGLES_WITHOUT_HYDROGEN                                                   
%FORMAT(10I8)                                                                   
       0       3       9       1       0       6      12       1       0      39
      33       2       0      39      42       3       3       0       6       4
       3       0      39       5       3       9      99       6       3       9
      15       7       6       0      39       5       6      12     105       6
       6      12      15       7       9      99     102       8       9      15
      12       9       9      15      72      10      12     105     108       8
      12      15      72      10      15       9      99      11      15      12
     105      11      15      72      75      12      15      72      78      13
      18      21      27      14      18      24      30      14      18      45
      63      15      21      18      24      16      21      18      45      16
      21      27      33      17      24      18      45      16      24      30
      33      17      27      33      30      18      27      33      36      19
      27      33      39      20      30      33      36      19      30      33
      39      20      33      36      42      21      33      39      42      22
      36      33      39      23      36      42      39      24      45      63
      54       5      45      63      69       4      48      51      54      25
      48      51      57      26      51      54      60      27      51      54
      63      28      51      57      66      29      54      51      57       7
      54      63      69       5      57      66      69      30      60      54
      63      31      63      69      66      32      72      75      81      33
      72      75      84      34      72      78      87      35      75      72
      78      36      75      84      90      37      78      87      90      39
      81      75      84      40      84      90      87      41      84      90
      93      40      87      90      93      42
%FLAG DIHEDRALS_INC_HYDROGEN                                                    
%FORMAT(10I8)                                                                   
      72      75      84      96       8      81      75      84      96      10
      81      75     -84      96       8      87      90      84      96       8
      93      90      84      96      10      93      90     -84      96       8
      75      90     -84     -96      12
%FLAG DIHEDRALS_WITHOUT_HYDROGEN                                                
%FORMAT(10I8)                                                                   
       0       3       9      99       1       0       3       9      15       1
       0       6      12     105       1       0       6     -12      15       1
       0      39      33      30       2       0      39      33      27       2
       0      39      33      36       2       0      39     -42      36       1
       3       0       6      12       1       3       0      39      33       3
       3       0      39      42       3       3       9      99     102       4
       3       9     -15      12       3       3       9      15      72       3
       6       0       3       9       1       6       0      39      33       3
       6       0      39      42       3       6      12     105     108       4
       6      12     -15       9       3       6      12      15      72       3
      39       0       3       9       1       9      15      12     105       3
       9      15      72      75       5       9      15     -72      75       6
       9      15      72      78       7      39       0       6      12       1
      12      15       9      99       3      12      15      72      75       5
      12      15     -72      75       6      12      15      72      78       7
      15       9      99     102       4      15      12     105     108       4
      15      72      75      81       8      15      72      75      84       8
      15      72      78      87       1      18      21      27      33       1
      18      24     -30      33       1      18      45      63      54       1
      18      45      63      69       1      21      18      24      30       1
      21      18      45      63       1      21      27     -33      30       1
      21      27      33      36       1      21      27      33      39       1
      24      18      21      27       1      24      18      45      63       1
      24      30     -33      27       1      24      30      33      36       1
      24      30      33      39       1      27      21      18      45       1
      27      33      36      42       9      27      33     -39      42       2
      30      24      18      45       1      30      33      36      42       9
      30      33     -39      42       2      33      36     -42      39       1
      33      39     -42      36       1      36      33     -39      42       2
      39      33     -36      42       9      45      63      54      51       3
      45      63      54      60       3      45      63      69      66       1
      48      51      54      60       3      48      51      54      63       3
      48      51      57      66       1      51      54      63      69       3
      51      57     -66      69       1      54      51      57      66       1
      54      63     -69      66       1      57      51      54      60       3
      57      51      54      63       3      57      66     -69      63       1
      60      54      63      69       3      72      15       9      99       3
      72      15      12     105       3      72      75      84      90       8
      72      78     -87      90       1      75      72      78      87       1
      75      84     -90      87       8      75      84      90      93       8
      78      72      75      81       8      78      72      75      84       8
      78      87     -90      84       1      78      87      90      93       1
      81      75      84      90       8      39       0      -6      -3      11
       3      15      -9     -99      11       6      15     -12    -105      11
       9      12     -15     -72      11       0      39     -33     -42      11
      57      54     -51     -48      11      51      63     -54     -60      11
      45      69     -63     -54      11      75      78     -72     -15      12
      72      84     -75     -81      11      87      84     -90     -93      11
%FLAG EXCLUDED_ATOMS_LIST                                                       
%FORMAT(10I8)                                                                   
       2       3       4       5       6      10      11      12      13      14
      15      34      36       3       4       5       6      12      14      15
      25      34      35       4       5       6      12      14      15      25
      36      37       5       6      14      25      26      27      34      35
      36       6      14      25      26      27      34      36      37      25
      26      27      28      29      30      34      35      36      37       8
       9      10      11      12      16      19      22      24       9      10
      11      12      13      14      16      22      10      11      12      13
      14      16      22      11      12      13      14      15      16      12
      13      14      15      16      13      14      15      14      15      15
       0      18      19      21      22      23      24      18      19      20
      21      22      23      19      20      21      22      23      24      20
      21      22      23      24      21      22      23      24      22      24
      23      24      24       0      26      27      28      29      30      31
      33      34      36      27      28      29      30      31      32      33
      28      29      30      31      32      29      31      33      30      31
      32      33      31      32      33      32      33      33       0      35
       0      37       0
%FLAG HBOND_ACOEF                                                               
%FORMAT(5E16.8)                                                                 

%FLAG HBOND_BCOEF                                                               
%FORMAT(5E16.8)                                                                 

%FLAG HBCUT                                                                     
%FORMAT(5E16.8)                                                                 

%FLAG AMBER_ATOM_TYPE                                                           
%FORMAT(20a4)                                                                   
ce  c1  c1  c2  c2  c2  n3  c1  c1  c1  c1  c3  os  c2  c1  c1  cl  c2  c2  c1  
f   ce  c1  c1  n   c   c1  o   ns  c1  c   o   hn  os  c1  os  c1  
%FLAG TREE_CHAIN_CLASSIFICATION                                                 
%FORMAT(20a4)                                                                   
BLA BLA BLA BLA BLA BLA BLA BLA BLA BLA BLA BLA BLA BLA BLA BLA BLA BLA BLA BLA 
BLA BLA BLA BLA BLA BLA BLA BLA BLA BLA BLA BLA BLA BLA BLA BLA BLA 
%FLAG JOIN_ARRAY                                                                
%FORMAT(10I8)                                                                   
       0       0       0       0       0       0       0       0       0       0
       0       0       0       0       0       0       0       0       0       0
       0       0       0       0       0       0       0       0       0       0
       0       0       0       0       0       0       0
%FLAG IROTAT                                                                    
%FORMAT(10I8)                                                                   
       0       0       0       0       0       0       0       0       0       0
       0       0       0       0       0       0       0       0       0       0
       0       0       0       0       0       0       0       0       0       0
       0       0       0       0       0       0       0
%FLAG RADIUS_SET                                                                
%FORMAT(1a80)                                                                   
modified Bondi radii (mbondi)                                                   
%FLAG RADII                                                                     
%FORMAT(5E16.8)                                                                 
  1.70000000E+00  1.70000000E+00  1.70000000E+00  1.70000000E+00  1.70000000E+00
  1.70000000E+00  1.55000000E+00  1.70000000E+00  1.70000000E+00  1.70000000E+00
  1.70000000E+00  1.70000000E+00  1.50000000E+00  1.70000000E+00  1.70000000E+00
  1.70000000E+00  1.70000000E+00  1.70000000E+00  1.70000000E+00  1.70000000E+00
  1.50000000E+00  1.70000000E+00  1.70000000E+00  1.70000000E+00  1.55000000E+00
  1.70000000E+00  1.70000000E+00  1.50000000E+00  1.55000000E+00  1.70000000E+00
  1.70000000E+00  1.50000000E+00  1.30000000E+00  1.50000000E+00  1.70000000E+00
  1.50000000E+00  1.70000000E+00
%FLAG SCREEN                                                                    
%FORMAT(5E16.8)                                                                 
  7.20000000E-01  7.20000000E-01  7.20000000E-01  7.20000000E-01  7.20000000E-01
  7.20000000E-01  7.90000000E-01  7.20000000E-01  7.20000000E-01  7.20000000E-01
  7.20000000E-01  7.20000000E-01  8.50000000E-01  7.20000000E-01  7.20000000E-01
  7.20000000E-01  8.00000000E-01  7.20000000E-01  7.20000000E-01  7.20000000E-01
  8.80000000E-01  7.20000000E-01  7.20000000E-01  7.20000000E-01  7.90000000E-01
  7.20000000E-01  7.20000000E-01  8.50000000E-01  7.90000000E-01  7.20000000E-01
  7.20000000E-01  8.50000000E-01  8.50000000E-01  8.50000000E-01  7.20000000E-01
  8.50000000E-01  7.20000000E-01
%FLAG IPOL                                                                      
%FORMAT(1I8)                                                                    
       0
