%VERSION  VERSION_STAMP = V0001.000  DATE = 09/06/26  21:40:46                  
%FLAG TITLE                                                                     
%FORMAT(20a4)                                                                   
LIG                                                                             
%FLAG POINTERS                                                                  
%FORMAT(10I8)                                                                   
      32       5       2      34       4      49      12      78       0       0
     152       1      34      49      78      16      35      10       9       0
       0       0       0       0       0       0       0       0      32       0
       0
%FLAG ATOM_NAME                                                                 
%FORMAT(20a4)                                                                   
O1  C1  N1  C2  C3  C4  C5  C6  C7  C8  N2  C9  C10 C11 C12 H1  N3  C13 C14 O2  
N4  C15 C16 O3  H2  C17 C18 C19 C20 C21 C22 C23 
%FLAG CHARGE                                                                    
%FORMAT(5E16.8)                                                                 
 -5.30451153E+00  1.46379736E+01 -6.31767141E+00 -7.32354237E+00  6.92265177E+00
  2.50192179E+00  3.52601505E+00 -3.31281414E+00  5.08402170E-01 -2.25045405E+00
 -6.25753782E+00 -2.73152277E+00 -4.04352837E+00  7.01558550E-01  1.89694143E+00
  8.20914615E+00 -3.00303504E+00  1.39601040E+01  1.00587096E+00 -9.91475343E+00
 -1.10700473E+01 -3.88499436E+00  1.35446356E+01 -9.36808443E+00  6.64202835E+00
  4.03623945E+00 -3.22170264E+00  2.43449928E+00  1.28467215E+00 -2.50556625E+00
 -2.50556625E+00  1.18444950E+00
%FLAG ATOMIC_NUMBER                                                             
%FORMAT(10I8)                                                                   
       8       6       7       6       6       6       6       6       6       6
       7       6       6       6       6       1       7       6       6       8
       7       6       6       8       1       6       6       6       6       6
       6       6
%FLAG MASS                                                                      
%FORMAT(5E16.8)                                                                 
  1.60000000E+01  1.20100000E+01  1.40100000E+01  1.20100000E+01  1.20100000E+01
  1.20100000E+01  1.20100000E+01  1.20100000E+01  1.20100000E+01  1.20100000E+01
  1.40100000E+01  1.20100000E+01  1.20100000E+01  1.20100000E+01  1.20100000E+01
  1.00800000E+00  1.40100000E+01  1.20100000E+01  1.20100000E+01  1.60000000E+01
  1.40100000E+01  1.20100000E+01  1.20100000E+01  1.60000000E+01  1.00800000E+00
  1.20100000E+01  1.20100000E+01  1.20100000E+01  1.20100000E+01  1.20100000E+01
  1.20100000E+01  1.20100000E+01
%FLAG ATOM_TYPE_INDEX                                                           
%FORMAT(10I8)                                                                   
       1       2       3       2       4       2       4       2       2       4
       3       4       4       2       4       5       3       2       4       1
       3       4       2       1       5       4       2       4       4       4
       4       4
%FLAG NUMBER_EXCLUDED_ATOMS                                                     
%FORMAT(10I8)                                                                   
       7      10       8      10       7       9       5       8       6       4
       4       6       3       7       3       1       7       7       5       3
       4       3       2       1       1       5       5       4       3       2
       1       1
%FLAG NONBONDED_PARM_INDEX                                                      
%FORMAT(10I8)                                                                   
       1       2       4       7      11       2       3       5       8      12
       4       5       6       9      13       7       8       9      10      14
      11      12      13      14      15
%FLAG RESIDUE_LABEL                                                             
%FORMAT(20a4)                                                                   
LIG 
%FLAG RESIDUE_POINTER                                                           
%FORMAT(10I8)                                                                   
       1
%FLAG BOND_FORCE_CONSTANT                                                       
%FORMAT(5E16.8)                                                                 
  6.37700000E+02  4.27600000E+02  4.49900000E+02  5.03000000E+02  4.03200000E+02
  5.69400000E+02  6.25000000E+02  6.07400000E+02  5.47300000E+02  4.74300000E+02
  3.82800000E+02  9.23700000E+02  4.00100000E+02  4.27600000E+02  5.03000000E+02
  3.79800000E+02
%FLAG BOND_EQUIL_VALUE                                                          
%FORMAT(5E16.8)                                                                 
  1.21800000E+00  1.37900000E+00  1.40600000E+00  1.33000000E+00  1.01300000E+00
  1.33400000E+00  1.30700000E+00  1.31500000E+00  1.34600000E+00  1.34700000E+00
  1.45700000E+00  1.19800000E+00  1.39900000E+00  1.37900000E+00  1.33000000E+00
  1.46000000E+00
%FLAG ANGLE_FORCE_CONSTANT                                                      
%FORMAT(5E16.8)                                                                 
  7.42000000E+01  7.27000000E+01  6.76000000E+01  4.83000000E+01  6.77000000E+01
  7.01000000E+01  6.79000000E+01  5.60920000E+01  6.94000000E+01  7.01000000E+01
  5.87420000E+01  5.14490000E+01  6.62000000E+01  6.61000000E+01  6.54000000E+01
  6.65000000E+01  6.62000000E+01  5.82000000E+01  7.01000000E+01  5.67000000E+01
  5.57930000E+01  7.18850000E+01  7.23000000E+01  6.05000000E+01  6.45000000E+01
  6.62000000E+01  7.42000000E+01  7.29000000E+01  6.18000000E+01  6.76000000E+01
  6.37000000E+01  5.61000000E+01  6.87450000E+01  6.98000000E+01  6.35000000E+01
%FLAG ANGLE_EQUIL_VALUE                                                         
%FORMAT(5E16.8)                                                                 
  2.14762857E+00  2.07903710E+00  2.04273423E+00  2.05163542E+00  2.10661331E+00
  2.12267035E+00  2.01096923E+00  3.14159400E+00  2.04203610E+00  2.12267035E+00
  3.13609621E+00  1.92544806E+00  2.03365852E+00  2.00084631E+00  2.15129376E+00
  2.13087340E+00  2.15269002E+00  3.12501337E+00  2.12267035E+00  3.14159400E+00
  3.14159400E+00  2.00712950E+00  2.03802184E+00  3.14159400E+00  2.13192060E+00
  2.07484830E+00  2.14762857E+00  1.98199675E+00  3.09237569E+00  2.04273423E+00
  2.21796536E+00  3.14159400E+00  1.99735565E+00  2.13523672E+00  3.14159400E+00
%FLAG DIHEDRAL_FORCE_CONSTANT                                                   
%FORMAT(5E16.8)                                                                 
  2.50000000E+00  2.00000000E+00  2.17500000E+00  3.00000000E-01  0.00000000E+00
  6.65000000E+00  1.00000000E+00  6.50000000E-01  1.05000000E+01  1.10000000E+00
%FLAG DIHEDRAL_PERIODICITY                                                      
%FORMAT(5E16.8)                                                                 
  2.00000000E+00  1.00000000E+00  2.00000000E+00  3.00000000E+00  2.00000000E+00
  2.00000000E+00  2.00000000E+00  2.00000000E+00  2.00000000E+00  2.00000000E+00
%FLAG DIHEDRAL_PHASE                                                            
%FORMAT(5E16.8)                                                                 
  3.14159400E+00  0.00000000E+00  3.14159400E+00  0.00000000E+00  3.14159400E+00
  3.14159400E+00  3.14159400E+00  3.14159400E+00  3.14159400E+00  3.14159400E+00
%FLAG SCEE_SCALE_FACTOR                                                         
%FORMAT(5E16.8)                                                                 
  1.20000000E+00  1.20000000E+00  1.20000000E+00  1.20000000E+00  1.20000000E+00
  1.20000000E+00  1.20000000E+00  1.20000000E+00  0.00000000E+00  0.00000000E+00
%FLAG SCNB_SCALE_FACTOR                                                         
%FORMAT(5E16.8)                                                                 
  2.00000000E+00  2.00000000E+00  2.00000000E+00  2.00000000E+00  2.00000000E+00
  2.00000000E+00  2.00000000E+00  2.00000000E+00  0.00000000E+00  0.00000000E+00
%FLAG SOLTY                                                                     
%FORMAT(5E16.8)                                                                 
  0.00000000E+00  0.00000000E+00  0.00000000E+00  0.00000000E+00  0.00000000E+00
  0.00000000E+00  0.00000000E+00  0.00000000E+00  0.00000000E+00
%FLAG LENNARD_JONES_ACOEF                                                       
%FORMAT(5E16.8)                                                                 
  3.79876399E+05  5.74393458E+05  8.19971662E+05  6.06829342E+05  8.82619071E+05
  9.44293233E+05  8.97573261E+05  1.28132490E+06  1.37922058E+06  2.00225638E+06
  1.02595236E+03  2.27577561E+03  2.12601181E+03  3.55623015E+03  1.39982777E-01
%FLAG LENNARD_JONES_BCOEF                                                       
%FORMAT(5E16.8)                                                                 
  5.64885984E+02  5.55666448E+02  5.31102864E+02  6.77220874E+02  6.53361429E+02
  8.01323529E+02  8.68309587E+02  8.29925416E+02  1.02097219E+03  1.29687909E+03
  1.53505284E+01  1.82891803E+01  2.09604198E+01  2.85795023E+01  9.37598976E-02
%FLAG BONDS_INC_HYDROGEN                                                        
%FORMAT(10I8)                                                                   
       6      45       5      60      72       5
%FLAG BONDS_WITHOUT_HYDROGEN                                                    
%FORMAT(10I8)                                                                   
       0       3       1       3       6       2       3       9       3       6
      12       4       9      15       6       9      18       7      12      21
       8      15      24       9      15      27       7      18      30      10
      21      33       8      21      24      11      24      36       8      27
      30      10      30      75      10      33      39       7      36      42
      12      39      48      13      39      42       7      48      51      14
      48      54      15      51      57       1      51      60       2      54
      63      12      60      66       2      63      66      16      66      69
       1      75      78       8      78      81       8      78      84       8
      81      87      12      84      90      12      87      93      12      90
      93      12
%FLAG ANGLES_INC_HYDROGEN                                                       
%FORMAT(10I8)                                                                   
       3       6      45       4      12       6      45      12      51      60
      72       4      66      60      72       4
%FLAG ANGLES_WITHOUT_HYDROGEN                                                   
%FORMAT(10I8)                                                                   
       0       3       6       1       0       3       9       2       3       6
      12       3       3       9      15       5       3       9      18       6
       6       3       9       7       6      12      21       8       9      15
      24       9       9      15      27      10       9      18      30      11
      12      21      33      13      12      21      24      14      15       9
      18      10      15      24      21      15      15      24      36      16
      15      27      30      11      18      30      27      17      18      30
      75      17      21      33      39      18      21      24      36      14
      24      15      27      19      24      21      33      14      24      36
      42      20      27      30      75      17      30      75      78      21
      33      39      48      22      33      39      42      23      36      42
      39      24      39      48      51      25      39      48      54      26
      42      39      48      22      48      51      57      27      48      51
      60      28      48      54      63      29      51      48      54      30
      51      60      66      31      54      63      66      32      57      51
      60       1      60      66      63      33      60      66      69       1
      63      66      69      34      75      78      81      13      75      78
      84      13      78      81      87      20      78      84      90      20
      81      78      84      13      81      87      93      35      84      90
      93      35      87      93      90      35
%FLAG DIHEDRALS_INC_HYDROGEN                                                    
%FORMAT(10I8)                                                                   
       0       3       6      45       2       0       3      -6      45       1
       9       3       6      45       1      21      12       6      45       5
      48      51      60      72       1      57      51      60      72       2
      57      51     -60      72       1      63      66      60      72       1
      69      66      60      72       2      69      66     -60      72       1
       3      12      -6     -45      10      51      66     -60     -72      10
%FLAG DIHEDRALS_WITHOUT_HYDROGEN                                                
%FORMAT(10I8)                                                                   
       0       3       6      12       1       0       3       9      15       3
       0       3      -9      15       4       0       3       9      18       3
       3       6      12      21       5       3       9      15      24       6
       3       9      15      27       6       3       9      18      30       5
       6       3       9      15       3       6       3       9      18       3
       6      12      21      33       5       6      12      21      24       5
       9       3       6      12       1       9      15      24      21       6
       9      15      24      36       6       9      15     -27      30       5
       9      18     -30      27       5       9      18      30      75       5
      12      21      33      39       5      12      21      24      15       7
      12      21      24      36       7      15       9     -18      30       5
      15      24      21      33       7      15      24      36      42       5
      15      27     -30      18       5      15      27      30      75       5
      18       9      15      24       6      18       9     -15      27       6
      18      30      75      78       5      21      33      39      48       5
      21      33      39      42       5      21      24      15      27       6
      21      24     -36      42       5      24      15      27      30       5
      24      21      33      39       5      24      36     -42      39       5
      27      15      24      36       6      27      30      75      78       5
      30      75      78      81       5      30      75      78      84       5
      33      21      24      36       7      33      39      48      51       8
      33      39      48      54       8      33      39     -42      36       5
      36      42      39      48       5      39      48      51      57       1
      39      48      51      60       1      39      48      54      63       5
      42      39      48      51       8      42      39      48      54       8
      48      51      60      66       1      48      54     -63      66       5
      51      48      54      63       5      51      60     -66      63       1
      51      60      66      69       1      54      48      51      57       1
      54      48      51      60       1      54      63     -66      60       5
      54      63      66      69       5      57      51      60      66       1
      75      78      81      87       5      75      78      84      90       5
      78      81      87      93       5      78      84     -90      93       5
      81      78      84      90       5      81      87     -93      90       5
      84      78      81      87       5      84      90     -93      87       5
       0       3      -6      -9       9       3      18      -9     -15      10
      27       9     -15     -24      10      12      33     -21     -24      10
      36      15     -24     -21      10      33      42     -39     -48      10
      51      54     -48     -39      10      48      60     -51     -57       9
      63      60     -66     -69       9      75      81     -78     -84      10
%FLAG EXCLUDED_ATOMS_LIST                                                       
%FORMAT(10I8)                                                                   
       2       3       4       5       6       7      16       3       4       5
       6       7       8       9      10      11      16       4       5       6
       7       8       9      12      16       5       6       7       8       9
      10      11      13      16      26       6       8       9      12      13
      14      16       7       8       9      10      11      12      13      15
      26       9      10      11      26      27       9      10      12      13
      14      15      16      17      10      11      12      13      14      15
      11      13      26      27      26      27      28      29      13      14
      15      17      18      19      14      15      17      15      17      18
      19      20      21      22      17      18      19       0      18      19
      20      21      22      23      25      19      20      21      22      23
      24      25      20      21      22      23      24      21      23      25
      22      23      24      25      23      24      25      24      25      25
       0      27      28      29      30      31      28      29      30      31
      32      29      30      31      32      30      31      32      31      32
      32       0
%FLAG HBOND_ACOEF                                                               
%FORMAT(5E16.8)                                                                 

%FLAG HBOND_BCOEF                                                               
%FORMAT(5E16.8)                                                                 

%FLAG HBCUT                                                                     
%FORMAT(5E16.8)                                                                 

%FLAG AMBER_ATOM_TYPE                                                           
%FORMAT(20a4)                                                                   
o   c   ns  c2  c1  c2  c1  ce  ce  c1  n3  c1  c1  c2  c1  hn  n   c   c1  o   
ns  c1  c   o   hn  c1  ce  c1  c1  c1  c1  c1  
%FLAG TREE_CHAIN_CLASSIFICATION                                                 
%FORMAT(20a4)                                                                   
BLA BLA BLA BLA BLA BLA BLA BLA BLA BLA BLA BLA BLA BLA BLA BLA BLA BLA BLA BLA 
BLA BLA BLA BLA BLA BLA BLA BLA BLA BLA BLA BLA 
%FLAG JOIN_ARRAY                                                                
%FORMAT(10I8)                                                                   
       0       0       0       0       0       0       0       0       0       0
       0       0       0       0       0       0       0       0       0       0
       0       0       0       0       0       0       0       0       0       0
       0       0
%FLAG IROTAT                                                                    
%FORMAT(10I8)                                                                   
       0       0       0       0       0       0       0       0       0       0
       0       0       0       0       0       0       0       0       0       0
       0       0       0       0       0       0       0       0       0       0
       0       0
%FLAG RADIUS_SET                                                                
%FORMAT(1a80)                                                                   
modified Bondi radii (mbondi)                                                   
%FLAG RADII                                                                     
%FORMAT(5E16.8)                                                                 
  1.50000000E+00  1.70000000E+00  1.55000000E+00  1.70000000E+00  1.70000000E+00
  1.70000000E+00  1.70000000E+00  1.70000000E+00  1.70000000E+00  1.70000000E+00
  1.55000000E+00  1.70000000E+00  1.70000000E+00  1.70000000E+00  1.70000000E+00
  1.30000000E+00  1.55000000E+00  1.70000000E+00  1.70000000E+00  1.50000000E+00
  1.55000000E+00  1.70000000E+00  1.70000000E+00  1.50000000E+00  1.30000000E+00
  1.70000000E+00  1.70000000E+00  1.70000000E+00  1.70000000E+00  1.70000000E+00
  1.70000000E+00  1.70000000E+00
%FLAG SCREEN                                                                    
%FORMAT(5E16.8)                                                                 
  8.50000000E-01  7.20000000E-01  7.90000000E-01  7.20000000E-01  7.20000000E-01
  7.20000000E-01  7.20000000E-01  7.20000000E-01  7.20000000E-01  7.20000000E-01
  7.90000000E-01  7.20000000E-01  7.20000000E-01  7.20000000E-01  7.20000000E-01
  8.50000000E-01  7.90000000E-01  7.20000000E-01  7.20000000E-01  8.50000000E-01
  7.90000000E-01  7.20000000E-01  7.20000000E-01  8.50000000E-01  8.50000000E-01
  7.20000000E-01  7.20000000E-01  7.20000000E-01  7.20000000E-01  7.20000000E-01
  7.20000000E-01  7.20000000E-01
%FLAG IPOL                                                                      
%FORMAT(1I8)                                                                    
       0
