LIG
    39
  84.7510000 153.9840000  13.2630000  83.7160000 153.1960000  13.8090000
  85.8120000 153.3300000  12.5750000  83.7890000 151.8210000  13.6850000
  85.8530000 151.9380000  12.4100000  84.8420000 151.1980000  12.9830000
  82.8870000 150.7360000  14.2230000  84.6260000 149.7040000  13.0610000
  83.1810000 149.6690000  13.2690000  83.4100000 150.2450000  15.6160000
  85.2730000 149.1280000  14.3660000  82.3990000 148.5530000  13.1740000
  84.8600000 149.8470000  15.6100000  81.2810000 148.4700000  13.6630000
  84.4450000 155.8310000  11.1040000  84.5970000 156.2150000  12.2600000
  84.7100000 155.4090000  13.3890000  84.6320000 157.5680000  12.5110000
  84.4840000 156.0110000  14.6940000  85.0250000 158.1790000  13.6710000
  85.3140000 157.2690000  14.8300000  85.1960000 159.3940000  13.7310000
  84.3420000 158.1590000  11.7790000  82.6300000 153.7340000  14.4450000
  81.7830000 152.7010000  14.9460000  86.8680000 154.0450000  12.0550000
  87.7820000 153.1490000  11.4140000  83.0250000 147.5660000  12.4860000
  83.1950000 146.2470000  13.0640000  82.1440000 145.2650000  12.5360000
  83.2080000 146.3090000  14.5950000  84.5800000 145.7890000  12.5810000
  85.2490000 149.1080000  16.8160000  84.3420000 149.3500000  18.0040000
  84.1840000 148.3630000  18.9880000  83.6760000 150.5750000  18.1660000
  83.3650000 148.5900000  20.0960000  82.8540000 150.7990000  19.2710000
  82.7000000 149.8060000  20.2360000
