LIG
    36
  81.1300000 149.9060000  12.5820000  80.2950000 149.0940000  12.9850000
  80.5970000 148.3510000  14.0810000  78.9970000 148.8710000  12.2410000
  79.6910000 147.5030000  14.8100000  77.6660000 148.7950000  13.0140000
  79.0470000 147.5990000  11.3960000  78.5580000 148.3080000  15.3830000
  77.6250000 148.9270000  14.5250000  77.0210000 147.4810000  12.5360000
  77.6300000 147.2520000  11.2230000  78.4180000 148.4660000  16.7780000
  76.5570000 149.6500000  15.0910000  77.3380000 149.1760000  17.3400000
  76.4150000 149.7830000  16.4770000  81.5240000 148.3970000  14.4080000
  77.1850000 149.2320000  18.7580000  77.2420000 150.4380000  19.4450000
  76.5560000 148.0880000  19.4030000  77.6860000 151.4960000  19.0040000
  76.8510000 150.3700000  20.7620000  77.0800000 147.9400000  20.8140000
  76.9170000 149.2460000  21.5400000  76.9280000 149.3190000  22.7670000
  76.4960000 151.1900000  21.1750000  79.3640000 147.8890000  17.6000000
  80.4000000 148.8340000  17.8920000  75.2900000 150.3680000  17.0060000
  74.1700000 149.4810000  17.0250000  77.4220000 145.8810000  10.7490000
  78.1940000 145.5670000   9.4860000  79.1950000 144.5840000   9.4900000
  77.9300000 146.2590000   8.2950000  79.9130000 144.2970000   8.3280000
  78.6500000 145.9710000   7.1340000  79.6410000 144.9910000   7.1510000
