LIG
    30
  84.3290000 154.5180000  13.6930000  85.1030000 153.5790000  12.9820000
  83.1760000 154.0730000  14.3620000  84.7270000 152.2320000  12.9550000
  82.8090000 152.7170000  14.3590000  83.5950000 151.8030000  13.6480000
  84.3110000 156.3140000  11.4460000  84.5880000 156.6960000  12.5810000
  84.6810000 155.9040000  13.7260000  84.8920000 158.0250000  12.7710000
  85.4100000 156.4310000  14.8690000  85.0270000 158.6800000  13.9650000
  84.9280000 157.8280000  15.1950000  85.1590000 159.9000000  14.0180000
  85.0270000 158.5650000  11.9590000  86.1290000 154.0360000  12.1890000
  87.0860000 153.0250000  11.8730000  81.5790000 152.2470000  15.1070000
  81.5350000 150.7900000  15.3010000  80.1930000 150.3550000  15.7850000
  82.6660000 150.2440000  16.0500000  80.1510000 149.1380000  16.7550000
  82.7700000 150.6050000  17.5330000  80.6760000 149.3240000  18.1220000
  81.4740000 150.5230000  18.3350000  81.2570000 148.5160000  18.3470000
  79.3280000 150.0520000  14.5570000  79.3790000 149.0320000  13.8840000
  78.3990000 150.9900000  14.2800000  78.3550000 151.7730000  14.7930000
