LIG
    34
  86.9120000 150.1160000   8.8610000  87.2370000 150.3890000  10.0180000
  87.8740000 151.5650000  10.2560000  86.9910000 149.4080000  11.1440000
  88.1440000 152.1390000  11.5470000  86.3620000 149.8920000  12.4620000
  88.2690000 148.6780000  11.5500000  86.8580000 152.4050000  12.2790000
  86.0160000 151.3510000  12.6720000  87.3180000 149.3680000  13.5510000
  88.0820000 148.2610000  12.9530000  86.4910000 153.7390000  12.5590000
  84.8180000 151.6690000  13.3280000  85.2970000 154.0650000  13.2210000
  84.4510000 153.0000000  13.5690000  88.1800000 152.0730000   9.4700000
  85.0070000 155.4380000  13.5340000  84.7260000 156.3730000  12.5370000
  84.8190000 155.8370000  14.9250000  84.6920000 156.1610000  11.3270000
  84.4590000 157.6450000  12.9850000  85.4140000 157.2070000  15.1740000
  84.8530000 158.1780000  14.1800000  84.8250000 159.3880000  14.3840000
  83.9350000 158.2270000  12.3890000  83.2190000 153.2060000  14.1440000
  82.6750000 154.4470000  13.6870000  87.3560000 146.9820000  13.0720000
  86.2930000 147.0020000  14.1500000  84.9360000 146.8820000  13.8150000
  86.6480000 147.1200000  15.5020000  83.9550000 146.8860000  14.8090000
  85.6660000 147.1240000  16.4940000  84.3210000 147.0070000  16.1480000
