LIG
    30
  84.3230000 154.3470000  13.7370000  85.1020000 153.3820000  13.0720000
  83.1610000 153.9260000  14.4090000  84.7190000 152.0360000  13.0890000
  82.7870000 152.5710000  14.4580000  83.5770000 151.6350000  13.7830000
  84.2710000 156.0730000  11.4350000  84.5670000 156.4890000  12.5530000
  84.6740000 155.7330000  13.7210000  84.8770000 157.8230000  12.6950000
  85.4210000 156.2960000  14.8350000  85.0300000 158.5160000  13.8640000
  84.9470000 157.7050000  15.1230000  85.1630000 159.7370000  13.8760000
  85.0030000 158.3340000  11.8630000  86.1380000 153.8030000  12.2730000
  86.9470000 152.7290000  11.7950000  81.5420000 152.1420000  15.2100000
  81.7230000 151.2060000  16.3410000  81.8040000 149.7770000  15.9220000
  82.8120000 151.6270000  17.2330000  81.9670000 148.7220000  17.0520000
  82.7000000 151.0120000  18.6270000  83.2940000 148.7270000  17.6750000
  83.4130000 149.6710000  18.7800000  83.9840000 148.9720000  16.9650000
  80.5300000 149.3700000  15.1720000  80.4540000 149.0880000  13.9850000
  79.4150000 149.3580000  15.9340000  79.4670000 149.5730000  16.8450000
