LIG
    28
  84.1430000 154.8130000  13.7040000  84.8630000 153.7870000  13.0710000
  82.9110000 154.4670000  14.2830000  84.3910000 152.4610000  13.0240000
  82.4260000 153.1550000  14.2420000  83.1630000 152.1560000  13.6170000
  84.2940000 156.7580000  11.5000000  84.6950000 157.0030000  12.6350000
  84.6350000 156.1630000  13.7560000  85.2020000 158.2600000  12.8810000
  85.2760000 156.6600000  14.9730000  85.0720000 158.9230000  14.0700000
  84.8050000 158.0660000  15.2730000  85.0970000 160.1490000  14.1280000
  85.6900000 158.7090000  12.1530000  85.1950000 151.3850000  12.3200000
  86.6510000 151.5590000  12.4740000  87.2250000 150.5680000  13.4280000
  87.3420000 151.6680000  11.1840000  88.7550000 150.6390000  13.6800000
  88.7040000 152.3470000  11.3340000  89.6230000 150.2960000  12.5470000
  89.8660000 151.4050000  11.6340000  89.1830000 149.5390000  12.0230000
  86.7890000 149.1270000  13.1420000  85.8410000 148.5550000  13.6600000
  87.5060000 148.4930000  12.1890000  88.2340000 148.9240000  11.7860000
