LIG
    32
  85.5710000 149.0580000  13.0200000  85.0990000 149.6340000  14.0030000
  85.9410000 150.3950000  14.7560000  83.6640000 149.3990000  14.4520000
  85.5580000 151.3250000  15.7900000  82.8670000 150.4750000  15.2050000
  82.7690000 149.0230000  13.2560000  84.5760000 152.3270000  15.2420000
  83.2760000 151.9090000  14.8950000  81.4250000 150.0560000  14.8800000
  81.4940000 149.7280000  13.4570000  84.9830000 153.6540000  15.0070000
  82.4210000 152.8460000  14.3100000  84.1230000 154.6000000  14.4350000
  82.8380000 154.1660000  14.0850000  86.9040000 150.3020000  14.5760000
  84.5520000 155.9490000  14.1910000  84.6030000 156.4900000  12.9010000
  85.1710000 156.7140000  15.2700000  84.2870000 155.9290000  11.8540000
  85.0680000 157.7820000  12.8240000  84.7720000 158.1730000  15.1990000
  85.0830000 158.7020000  13.8340000  85.2630000 159.8970000  13.6140000
  85.4250000 158.0740000  11.9540000  80.3430000 148.9760000  12.9580000
  79.0750000 149.2760000  13.7290000  79.0370000 150.3100000  14.6740000
  77.9150000 148.5190000  13.5040000  77.8630000 150.5810000  15.3800000
  76.7420000 148.7910000  14.2110000  76.7170000 149.8210000  15.1480000
