[ System ]
   1    2    3    4    5    6    7    8    9   10   11   12   13   14   15
  16   17   18   19   20   21   22   23   24   25   26   27   28   29   30
  31   32   33   34   35   36   37   38   39   40   41   42   43   44   45
  46   47   48   49   50   51   52   53   54   55   56   57   58   59   60
  61   62   63   64   65   66   67   68   69   70   71   72   73   74   75
  76   77   78   79   80   81   82   83   84   85   86   87   88   89   90
  91   92   93   94   95   96   97   98   99  100  101  102  103  104  105
 106  107  108  109  110  111  112  113  114  115  116  117  118  119  120
 121  122  123  124  125  126  127  128  129  130  131  132  133  134  135
 136  137  138  139  140  141  142  143  144  145  146  147  148  149  150
 151  152  153  154  155  156  157  158  159  160  161  162  163  164  165
 166  167  168  169  170  171  172  173  174  175  176  177  178  179  180
 181  182  183  184  185  186  187  188  189  190  191  192  193  194  195
 196  197  198  199  200  201  202  203  204  205  206  207  208  209  210
 211  212  213  214  215  216  217  218  219  220  221  222  223  224  225
 226  227  228  229  230  231  232  233  234  235  236  237  238  239  240
 241  242  243  244  245  246  247  248  249  250  251  252  253  254  255
 256  257  258  259  260  261  262  263  264  265  266  267  268  269  270
 271  272  273  274  275  276  277  278  279  280  281  282  283  284  285
 286  287  288  289  290  291  292  293  294  295  296  297  298  299  300
 301  302  303  304  305  306  307  308  309  310  311  312  313  314  315
 316  317  318  319  320  321  322  323  324  325  326  327  328  329  330
 331  332  333  334  335  336  337  338  339  340  341  342  343  344  345
 346  347  348  349  350  351  352  353  354  355  356  357  358  359  360
 361  362  363  364  365  366  367  368  369  370  371  372  373  374  375
 376  377  378  379  380  381  382  383  384  385  386  387  388  389  390
 391  392  393  394  395  396  397  398  399  400  401  402  403  404  405
 406  407  408  409  410  411  412  413  414  415  416  417  418  419  420
 421  422  423  424  425  426  427  428  429  430  431  432  433  434  435
 436  437  438  439  440  441  442  443  444  445  446  447  448  449  450
 451  452  453  454  455  456  457  458  459  460  461  462  463  464  465
 466  467  468  469  470  471  472  473  474  475  476  477  478  479  480
 481  482  483  484  485  486  487  488  489  490  491  492  493  494  495
 496  497  498  499  500  501  502  503  504  505  506  507  508  509  510
 511  512  513  514  515  516  517  518  519  520  521  522  523  524  525
 526  527  528  529  530  531  532  533  534  535  536  537  538  539  540
 541  542  543  544  545  546  547  548  549  550  551  552  553  554  555
 556  557  558  559  560  561  562  563  564  565  566  567  568  569  570
 571  572  573  574  575  576  577  578  579  580  581  582  583  584  585
 586  587  588  589  590  591  592  593  594  595  596  597  598  599  600
 601  602  603  604  605  606  607  608  609  610  611  612  613  614  615
 616  617  618  619  620  621  622  623  624  625  626  627  628  629  630
 631  632  633  634  635  636  637  638  639  640  641  642  643  644  645
 646  647  648  649  650  651  652  653  654  655  656  657  658  659  660
 661  662  663  664  665  666  667  668  669  670  671  672  673  674  675
 676  677  678  679  680  681  682  683  684  685  686  687  688  689  690
 691  692  693  694  695  696  697  698  699  700  701  702  703  704  705
 706  707  708  709  710  711  712  713  714  715  716  717  718  719  720
 721  722  723  724  725  726  727  728  729  730  731  732  733  734  735
 736  737  738  739  740  741  742  743  744  745  746  747  748  749  750
 751  752  753  754  755  756  757  758  759  760  761  762  763  764  765
 766  767  768  769  770  771  772  773  774  775  776  777  778  779  780
 781  782  783  784  785  786  787  788  789  790  791  792  793  794  795
 796  797  798  799  800  801  802  803  804  805  806  807  808  809  810
 811  812  813  814  815  816  817  818  819  820  821  822  823  824  825
 826  827  828  829  830  831  832  833  834  835  836  837  838  839  840
 841  842  843  844  845  846  847  848  849  850  851  852  853  854  855
 856  857  858  859  860  861  862  863  864  865  866  867  868  869  870
 871  872  873  874  875  876  877  878  879  880  881  882  883  884  885
 886  887  888  889  890  891  892  893  894  895  896  897  898  899  900
 901  902  903  904  905  906  907  908  909  910  911  912  913  914  915
 916  917  918  919  920  921  922  923  924  925  926  927  928  929  930
 931  932  933  934  935  936  937  938  939  940  941  942  943  944  945
 946  947  948  949  950  951  952  953  954  955  956  957  958  959  960
 961  962  963  964  965  966  967  968  969  970  971  972  973  974  975
 976  977  978  979  980  981  982  983  984  985  986  987  988  989  990
 991  992  993  994  995  996  997  998  999 1000 1001 1002 1003 1004 1005
1006 1007 1008 1009 1010 1011 1012 1013 1014 1015 1016 1017 1018 1019 1020
1021 1022 1023 1024 1025 1026 1027 1028 1029 1030 1031 1032 1033 1034 1035
1036 1037 1038 1039 1040 1041 1042 1043 1044 1045 1046 1047 1048 1049 1050
1051 1052 1053 1054 1055 1056 1057 1058 1059 1060 1061 1062 1063 1064 1065
1066 1067 1068 1069 1070 1071 1072 1073 1074 1075 1076 1077 1078 1079 1080
1081 1082 1083 1084 1085 1086 1087 1088 1089 1090 1091 1092 1093 1094 1095
1096 1097 1098 1099 1100 1101 1102 1103 1104 1105 1106 1107 1108 1109 1110
1111 1112 1113 1114 1115 1116 1117 1118 1119 1120 1121 1122 1123 1124 1125
1126 1127 1128 1129 1130 1131 1132 1133 1134 1135 1136 1137 1138 1139 1140
1141 1142 1143 1144 1145 1146 1147 1148 1149 1150 1151 1152 1153 1154 1155
1156 1157 1158 1159 1160 1161 1162 1163 1164 1165 1166 1167 1168 1169 1170
1171 1172 1173 1174 1175 1176 1177 1178 1179 1180 1181 1182 1183 1184 1185
1186 1187 1188 1189 1190 1191 1192 1193 1194 1195 1196 1197 1198 1199 1200
1201 1202 1203 1204 1205 1206 1207 1208 1209 1210 1211 1212 1213 1214 1215
1216 1217 1218 1219 1220 1221 1222 1223 1224 1225 1226 1227 1228 1229 1230
1231 1232 1233 1234 1235 1236 1237 1238 1239 1240 1241 1242 1243 1244 1245
1246 1247 1248 1249 1250 1251 1252 1253 1254 1255 1256 1257 1258 1259 1260
1261 1262 1263 1264 1265 1266 1267 1268 1269 1270 1271 1272 1273 1274 1275
1276 1277 1278 1279 1280 1281 1282 1283 1284 1285 1286 1287 1288 1289 1290
1291 1292 1293 1294 1295 1296 1297 1298 1299 1300 1301 1302 1303 1304 1305
1306 1307 1308 1309 1310 1311 1312 1313 1314 1315 1316 1317 1318 1319 1320
1321 1322 1323 1324 1325 1326 1327 1328 1329 1330 1331 1332 1333 1334 1335
1336 1337 1338 1339 1340 1341 1342 1343 1344 1345 1346 1347 1348 1349 1350
1351 1352 1353 1354 1355 1356 1357 1358 1359 1360 1361 1362 1363 1364 1365
1366 1367 1368 1369 1370 1371 1372 1373 1374 1375 1376 1377 1378 1379 1380
1381 1382 1383 1384 1385 1386 1387 1388 1389 1390 1391 1392 1393 1394 1395
1396 1397 1398 1399 1400 1401 1402 1403 1404 1405 1406 1407 1408 1409 1410
1411 1412 1413 1414 1415 1416 1417 1418 1419 1420 1421 1422 1423 1424 1425
1426 1427 1428 1429 1430 1431 1432 1433 1434 1435 1436 1437 1438 1439 1440
1441 1442 1443 1444 1445 1446 1447 1448 1449 1450 1451 1452 1453 1454 1455
1456 1457 1458 1459 1460 1461 1462 1463 1464 1465 1466 1467 1468 1469 1470
1471 1472 1473 1474 1475 1476 1477 1478 1479 1480 1481 1482 1483 1484 1485
1486 1487 1488 1489 1490 1491 1492 1493 1494 1495 1496 1497 1498 1499 1500
1501 1502 1503 1504 1505 1506 1507 1508 1509 1510 1511 1512 1513 1514 1515
1516 1517 1518 1519 1520 1521 1522 1523 1524 1525 1526 1527 1528 1529 1530
1531 1532 1533 1534 1535 1536 1537 1538 1539 1540 1541 1542 1543 1544 1545
1546 1547 1548 1549 1550 1551 1552 1553 1554 1555 1556 1557 1558 1559 1560
1561 1562 1563 1564 1565 1566 1567 1568 1569 1570 1571 1572 1573 1574 1575
1576 1577 1578 1579 1580 1581 1582 1583 1584 1585 1586 1587 1588 1589 1590
1591 1592 1593 1594 1595 1596 1597 1598 1599 1600 1601 1602 1603 1604 1605
1606 1607 1608 1609 1610 1611 1612 1613 1614 1615 1616 1617 1618 1619 1620
1621 1622 1623 1624 1625 1626 1627 1628 1629 1630 1631 1632 1633 1634 1635
1636 1637 1638 1639 1640 1641 1642 1643 1644 1645 1646 1647 1648 1649 1650
1651 1652 1653 1654 1655 1656 1657 1658 1659 1660 1661 1662 1663 1664 1665
1666 1667 1668 1669 1670 1671 1672 1673 1674 1675 1676 1677 1678 1679 1680
1681 1682 1683 1684 1685 1686 1687 1688 1689 1690 1691 1692 1693 1694 1695
1696 1697 1698 1699 1700 1701 1702 1703 1704 1705 1706 1707 1708 1709 1710
1711 1712 1713 1714 1715 1716 1717 1718 1719 1720 1721 1722 1723 1724 1725
1726 1727 1728 1729 1730 1731 1732 1733 1734 1735 1736 1737 1738 1739 1740
1741 1742 1743 1744 1745 1746 1747 1748 1749 1750 1751 1752 1753 1754 1755
1756 1757 1758 1759 1760 1761 1762 1763 1764 1765 1766 1767 1768 1769 1770
1771 1772 1773 1774 1775 1776 1777 1778 1779 1780 1781 1782 1783 1784 1785
1786 1787 1788 1789 1790 1791 1792 1793 1794 1795 1796 1797 1798 1799 1800
1801 1802 1803 1804 1805 1806 1807 1808 1809 1810 1811 1812 1813 1814 1815
1816 1817 1818 1819 1820 1821 1822 1823 1824 1825 1826 1827 1828 1829 1830
1831 1832 1833 1834 1835 1836 1837 1838 1839 1840 1841 1842 1843 1844 1845
1846 1847 1848 1849 1850 1851 1852 1853 1854 1855 1856 1857 1858 1859 1860
1861 1862 1863 1864 1865 1866 1867 1868 1869 1870 1871 1872 1873 1874 1875
1876 1877 1878 1879 1880 1881 1882 1883 1884 1885 1886 1887 1888 1889 1890
1891 1892 1893 1894 1895 1896 1897 1898 1899 1900 1901 1902 1903 1904 1905
1906 1907 1908 1909 1910 1911 1912 1913 1914 1915 1916 1917 1918 1919 1920
1921 1922 1923 1924 1925 1926 1927 1928 1929 1930 1931 1932 1933 1934 1935
1936 1937 1938 1939 1940 1941 1942 1943 1944 1945 1946 1947 1948 1949 1950
1951 1952 1953 1954 1955 1956 1957 1958 1959 1960 1961 1962 1963 1964 1965
1966 1967 1968 1969 1970 1971 1972 1973 1974 1975 1976 1977 1978 1979 1980
1981 1982 1983 1984 1985 1986 1987 1988 1989 1990 1991 1992 1993 1994 1995
1996 1997 1998 1999 2000 2001 2002 2003 2004 2005 2006 2007 2008 2009 2010
2011 2012 2013 2014 2015 2016 2017 2018 2019 2020 2021 2022 2023 2024 2025
2026 2027 2028 2029 2030 2031 2032 2033 2034 2035 2036 2037 2038 2039 2040
2041 2042 2043 2044 2045 2046 2047 2048 2049 2050 2051 2052 2053 2054 2055
2056 2057 2058 2059 2060 2061 2062 2063 2064 2065 2066 2067 2068 2069 2070
2071 2072 2073 2074 2075 2076 2077 2078 2079 2080 2081 2082 2083 2084 2085
2086 2087 2088 2089 2090 2091 2092 2093 2094 2095 2096 2097 2098 2099 2100
2101 2102 2103 2104 2105 2106 2107 2108 2109 2110 2111 2112 2113 2114 2115
2116 2117 2118 2119 2120 2121 2122 2123 2124 2125 2126 2127 2128 2129 2130
2131 2132 2133 2134 2135 2136 2137 2138 2139 2140 2141 2142 2143 2144 2145
2146 2147 2148 2149 2150 2151 2152 2153 2154 2155 2156 2157 2158 2159 2160
2161 2162 2163 2164 2165 2166 2167 2168 2169 2170 2171 2172 2173 2174 2175
2176 2177 2178 2179 2180 2181 2182 2183 2184 2185 2186 2187 2188 2189 2190
2191 2192 2193 2194 2195 2196 2197 2198 2199 2200 2201 2202 2203 2204 2205
2206 2207 2208 2209 2210 2211 2212 2213 2214 2215 2216 2217 2218 2219 2220
2221 2222 2223 2224 2225 2226 2227 2228 2229 2230 2231 2232 2233 2234 2235
2236 2237 2238 2239 2240 2241 2242 2243 2244 2245 2246 2247 2248 2249 2250
2251 2252 2253 2254 2255 2256 2257 2258 2259 2260 2261 2262 2263 2264 2265
2266 2267 2268 2269 2270 2271 2272 2273 2274 2275 2276 2277 2278 2279 2280
2281 2282 2283 2284 2285 2286 2287 2288 2289 2290 2291 2292 2293 2294 2295
2296 2297 2298 2299 2300 2301 2302 2303 2304 2305 2306 2307 2308 2309 2310
2311 2312 2313 2314 2315 2316 2317 2318 2319 2320 2321 2322 2323 2324 2325
2326 2327 2328 2329 2330 2331 2332 2333 2334 2335 2336 2337 2338 2339 2340
2341 2342 2343 2344 2345 2346 2347 2348 2349 2350 2351 2352 2353 2354 2355
2356 2357 2358 2359 2360 2361 2362 2363 2364 2365 2366 2367 2368 2369 2370
2371 2372 2373 2374 2375 2376 2377 2378 2379 2380 2381 2382 2383 2384 2385
2386 2387 2388 2389 2390 2391 2392 2393 2394 2395 2396 2397 2398 2399 2400
2401 2402 2403 2404 2405 2406 2407 2408 2409 2410 2411 2412 2413 2414 2415
2416 2417 2418 2419 2420 2421 2422 2423 2424 2425 2426 2427 2428 2429 2430
2431 2432 2433 2434 2435 2436 2437 2438 2439 2440 2441 2442 2443 2444 2445
2446 2447 2448 2449 2450 2451 2452 2453 2454 2455 2456 2457 2458 2459 2460
2461 2462 2463 2464 2465 2466 2467 2468 2469 2470 2471 2472 2473 2474 2475
2476 2477 2478 2479 2480 2481 2482 2483 2484 2485 2486 2487 2488 2489 2490
2491 2492 2493 2494 2495 2496 2497 2498 2499 2500 2501 2502 2503 2504 2505
2506 2507 2508 2509 2510 2511 2512 2513 2514 2515 2516 2517 2518 2519 2520
2521 2522 2523 2524 2525 2526 2527 2528 2529 2530 2531 2532 2533 2534 2535
2536 2537 2538 2539 2540 2541 2542 2543 2544 2545 2546 2547 2548 2549 2550
2551 2552 2553 2554 2555 2556 2557 2558 2559 2560 2561 2562 2563 2564 2565
2566 2567 2568 2569 2570 2571 2572 2573 2574 2575 2576 2577 2578 2579 2580
2581 2582 2583 2584 2585 2586 2587 2588 2589 2590 2591 2592 2593 2594 2595
2596 2597 2598 2599 2600 2601 2602 2603 2604 2605 2606 2607 2608 2609 2610
2611 2612 2613 2614 2615 2616 2617 2618 2619 2620 2621 2622 2623 2624 2625
2626 2627 2628 2629 2630 2631 2632 2633 2634 2635 2636 2637 2638 2639 2640
2641 2642 2643 2644 2645 2646 2647 2648 2649 2650 2651 2652 2653 2654 2655
2656 2657 2658 2659 2660 2661 2662 2663 2664 2665 2666 2667 2668 2669 2670
2671 2672 2673 2674 2675 2676 2677 2678 2679 2680 2681 2682 2683 2684 2685
2686 2687 2688 2689 2690 2691 2692 2693 2694 2695 2696 2697 2698 2699 2700
2701 2702 2703 2704 2705 2706 2707 2708 2709 2710 2711 2712 2713 2714 2715
2716 2717 2718 2719 2720 2721 2722 2723 2724 2725 2726 2727 2728 2729 2730
2731 2732 2733 2734 2735 2736 2737 2738 2739 2740 2741 2742 2743 2744 2745
2746 2747 2748 2749 2750 2751 2752 2753 2754 2755 2756 2757 2758 2759 2760
2761 2762 2763 2764 2765 2766 2767 2768 2769 2770 2771 2772 2773 2774 2775
2776 2777 2778 2779 2780 2781 2782 2783 2784 2785 2786 2787 2788 2789 2790
2791 2792 2793 2794 2795 2796 2797 2798 2799 2800 2801 2802 2803 2804 2805
2806 2807 2808 2809 2810 2811 2812 2813 2814 2815 2816 2817 2818 2819 2820
2821 2822 2823 2824 2825 2826 2827 2828 2829 2830 2831 2832 2833 2834 2835
2836 2837 2838 2839 2840 2841 2842 2843 2844 2845 2846 2847 2848 2849 2850
2851 2852 2853 2854 2855 2856 2857 2858 2859 2860 2861 2862 2863 2864 2865
2866 2867 2868 2869 2870 2871 2872 2873 2874 2875 2876 2877 2878 2879 2880
2881 2882 2883 2884 2885 2886 2887 2888 2889 2890 2891 2892 2893 2894 2895
2896 2897 2898 2899 2900 2901 2902 2903 2904 2905 2906 2907 2908 2909 2910
2911 2912 2913 2914 2915 2916 2917 2918 2919 2920 2921 2922 2923 2924 2925
2926 2927 2928 2929 2930 2931 2932 2933 2934 2935 2936 2937 2938 2939 2940
2941 2942 2943 2944 2945 2946 2947 2948 2949 2950 2951 2952 2953 2954 2955
2956 2957 2958 2959 2960 2961 2962 2963 2964 2965 2966 2967 2968 2969 2970
2971 2972 2973 2974 2975 2976 2977 2978 2979 2980 2981 2982 2983 2984 2985
2986 2987 2988 2989 2990 2991 2992 2993 2994 2995 2996 2997 2998 2999 3000
3001 3002 3003 3004 3005 3006 3007 3008 3009 3010 3011 3012 3013 3014 3015
3016 3017 3018 3019 3020 3021 3022 3023 3024 3025 3026 3027 3028 3029 3030
3031 3032 3033 3034 3035 3036 3037 3038 3039 3040 3041 3042 3043 3044 3045
3046 3047 3048 3049 3050 3051 3052 3053 3054 3055 3056 3057 3058 3059 3060
3061 3062 3063 3064 3065 3066 3067 3068 3069 3070 3071 3072 3073 3074 3075
3076 3077 3078 3079 3080 3081 3082 3083 3084 3085 3086 3087 3088 3089 3090
3091 3092 3093 3094 3095 3096 3097 3098 3099 3100 3101 3102 3103 3104 3105
3106 3107 3108 3109 3110 3111 3112 3113 3114 3115 3116 3117 3118 3119 3120
3121 3122 3123 3124 3125 3126 3127 3128 3129 3130 3131 3132 3133 3134 3135
3136 3137 3138 3139 3140 3141 3142 3143 3144 3145 3146 3147 3148 3149 3150
3151 3152 3153 3154 3155 3156 3157 3158 3159 3160 3161 3162 3163 3164 3165
3166 3167 3168 3169 3170 3171 3172 3173 3174 3175 3176 3177 3178 3179 3180
3181 3182 3183 3184 3185 3186 3187 3188 3189 3190 3191 3192 3193 3194 3195
3196 3197 3198 3199 3200 3201 3202 3203 3204 3205 3206 3207 3208 3209 3210
3211 3212 3213 3214 3215 3216 3217 3218 3219 3220 3221 3222 3223 3224 3225
3226 3227 3228 3229 3230 3231 3232 3233 3234 3235 3236 3237 3238 3239 3240
3241 3242 3243 3244 3245 3246 3247 3248 3249 3250 3251 3252 3253 3254 3255
3256 3257 3258 3259 3260 3261 3262 3263 3264 3265 3266 3267 3268 3269 3270
3271 3272 3273 3274 3275 3276 3277 3278 3279 3280 3281 3282 3283 3284 3285
3286 3287 3288 3289 3290 3291 3292 3293 3294 3295 3296 3297 3298 3299 3300
3301 3302 3303 3304 3305 3306 3307 3308 3309 3310 3311 3312 3313 3314 3315
3316 3317 3318 3319 3320 3321 3322 3323 3324 3325 3326 3327 3328 3329 3330
3331 3332 3333 3334 3335 3336 3337 3338 3339 3340 3341 3342 3343 3344 3345
3346 3347 3348 3349 3350 3351 3352 3353 3354 3355 3356 3357 3358 3359 3360
3361 3362 3363 3364 3365 3366 3367 3368 3369 3370 3371 3372 3373 3374 3375
3376 3377 3378 3379 3380 3381 3382 3383 3384 3385 3386 3387 3388 3389 3390
3391 3392 3393 3394 3395 3396 3397 3398 3399 3400 3401 3402 3403 3404 3405
3406 3407 3408 3409 3410 3411 3412 3413 3414 3415 3416 3417 3418 3419 3420
3421 3422 3423 3424 3425 3426 3427 3428 3429 3430 3431 3432 3433 3434 3435
3436 3437 3438 3439 3440 3441 3442 3443 3444 3445 3446 3447 3448 3449 3450
3451 3452 3453 3454 3455 3456 3457 3458 3459 3460 3461 3462 3463 3464 3465
3466 3467 3468 3469 3470 3471 3472 3473 3474 3475 3476 3477 3478 3479 3480
3481 3482 3483 3484 3485 3486 3487 3488 3489 3490 3491 3492 3493 3494 3495
3496 3497 3498 3499 3500 3501 3502 3503 3504 3505 3506 3507 3508 3509 3510
3511 3512 3513 3514 3515 3516 3517 3518 3519 3520 3521 3522 3523 3524 3525
3526 3527 3528 3529 3530 3531 3532 3533 3534 3535 3536 3537 3538 3539 3540
3541 3542 3543 3544 3545 3546 3547 3548 3549 3550 3551 3552 3553 3554 3555
3556 3557 3558 3559 3560 3561 3562 3563 3564 3565 3566 3567 3568 3569 3570
3571 3572 3573 3574 3575 3576 3577 3578 3579 3580 3581 3582 3583 3584 3585
3586 3587 3588 3589 3590 3591 3592 3593 3594 3595 3596 3597 3598 3599 3600
3601 3602 3603 3604 3605 3606 3607 3608 3609 3610 3611 3612 3613 3614 3615
3616 3617 3618 3619 3620 3621 3622 3623 3624 3625 3626 3627 3628 3629 3630
3631 3632 3633 3634 3635 3636 3637 3638 3639 3640 3641 3642 3643 3644 3645
3646 3647 3648 3649 3650 3651 3652 3653 3654 3655 3656 3657 3658 3659 3660
3661 3662 3663 3664 3665 3666 3667 3668 3669 3670 3671 3672 3673 3674 3675
3676 3677 3678 3679 3680 3681 3682 3683 3684 3685 3686 3687 3688 3689 3690
3691 3692 3693 3694 3695 3696 3697 3698 3699 3700 3701 3702 3703 3704 3705
3706 3707 3708 3709 3710 3711 3712 3713 3714 3715 3716 3717 3718 3719 3720
3721 3722 3723 3724 3725 3726 3727 3728 3729 3730 3731 3732 3733 3734 3735
3736 3737 3738 3739 3740 3741 3742 3743 3744 3745 3746 3747 3748 3749 3750
3751 3752 3753 3754 3755 3756 3757 3758 3759 3760 3761 3762 3763 3764 3765
3766 3767 3768 3769 3770 3771 3772 3773 3774 3775 3776 3777 3778 3779 3780
3781 3782 3783 3784 3785 3786 3787 3788 3789 3790 3791 3792 3793 3794 3795
3796 3797 3798 3799 3800 3801 3802 3803 3804 3805 3806 3807 3808 3809 3810
3811 3812 3813 3814 3815 3816 3817 3818 3819 3820 3821 3822 3823 3824 3825
3826 3827 3828 3829 3830 3831 3832 3833 3834 3835 3836 3837 3838 3839 3840
3841 3842 3843 3844 3845 3846 3847 3848 3849 3850 3851 3852 3853 3854 3855
3856 3857 3858 3859 3860 3861 3862 3863 3864 3865 3866 3867 3868 3869 3870
3871 3872 3873 3874 3875 3876 3877 3878 3879 3880 3881 3882 3883 3884 3885
3886 3887 3888 3889 3890 3891 3892 3893 3894 3895 3896 3897 3898 3899 3900
3901 3902 3903 3904 3905 3906 3907 3908 3909 3910 3911 3912 3913 3914 3915
3916 3917 3918 3919 3920 3921 3922 3923 3924 3925 3926 3927 3928 3929 3930
3931 3932 3933 3934 3935 3936 3937 3938 3939 3940 3941 3942 3943 3944 3945
3946 3947 3948 3949 3950 3951 3952 3953 3954 3955 3956 3957 3958 3959 3960
3961 3962 3963 3964 3965 3966 3967 3968 3969 3970 3971 3972 3973 3974 3975
3976 3977 3978 3979 3980 3981 3982 3983 3984 3985 3986 3987 3988 3989 3990
3991 3992 3993 3994 3995 3996 3997 3998 3999 4000 4001 4002 4003 4004 4005
4006 4007 4008 4009 4010 4011 4012 4013 4014 4015 4016 4017 4018 4019 4020
4021 4022 4023 4024 4025 4026 4027 4028 4029 4030 4031 4032 4033 4034 4035
4036 4037 4038 4039 4040 4041 4042 4043 4044 4045 4046 4047 4048 4049 4050
4051 4052 4053 4054 4055 4056 4057 4058 4059 4060 4061 4062 4063 4064 4065
4066 4067 4068 4069 4070 4071 4072 4073 4074 4075 4076 4077 4078 4079 4080
4081 4082 4083 4084 4085 4086 4087 4088 4089 4090 4091 4092 4093 4094 4095
4096 4097 4098 4099 4100 4101 4102 4103 4104 4105 4106 4107 4108 4109 4110
4111 4112 4113 4114 4115 4116 4117 4118 4119 4120 4121 4122 4123 4124 4125
4126 4127 4128 4129 4130 4131 4132 4133 4134 4135 4136 4137 4138 4139 4140
4141 4142 4143 4144 4145 4146 4147 4148 4149 4150 4151 4152 4153 4154 4155
4156 4157 4158 4159 4160 4161 4162 4163 4164 4165 4166 4167 4168 4169 4170
4171 4172 4173 4174 4175 4176 4177 4178 4179 4180 4181 4182 4183 4184 4185
4186 4187 4188 4189 4190 4191 4192 4193 4194 4195 4196 4197 4198 4199 4200
4201 4202 4203 4204 4205 4206 4207 4208 4209 4210 4211 4212 4213 4214 4215
4216 4217 4218 4219 4220 4221 4222 4223 4224 4225 4226 4227 4228 4229 4230
4231 4232 4233 4234 4235 4236 4237 4238 4239 4240 4241 4242 4243 4244 4245
4246 4247 4248 4249 4250 4251 4252 4253 4254 4255 4256 4257 4258 4259 4260
4261 4262 4263 4264 4265 4266 4267 4268 4269 4270 4271 4272 4273 4274 4275
4276 4277 4278 4279 4280 4281 4282 4283 4284 4285 4286 4287 4288 4289 4290
4291 4292 4293 4294 4295 4296 4297 4298 4299 4300 4301 4302 4303 4304 4305
4306 4307 4308 4309 4310 4311 4312 4313 4314 4315 4316 4317 4318 4319 4320
4321 4322 4323 4324 4325 4326 4327 4328 4329 4330 4331 4332 4333 4334 4335
4336 4337 4338 4339 4340 4341 4342 4343 4344 4345 4346 4347 4348 4349 4350
4351 4352 4353 4354 4355 4356 4357 4358 4359 4360 4361 4362 4363 4364 4365
4366 4367 4368 4369 4370 4371 4372 4373 4374 4375 4376 4377 4378 4379 4380
4381 4382 4383 4384 4385 4386 4387 4388 4389 4390 4391 4392 4393 4394 4395
4396 4397 4398 4399 4400 4401 4402 4403 4404 4405 4406 4407 4408 4409 4410
4411 4412 4413 4414 4415 4416 4417 4418 4419 4420 4421 4422 4423 4424 4425
4426 4427 4428 4429 4430 4431 4432 4433 4434 4435 4436 4437 4438 4439 4440
4441 4442 4443 4444 4445 4446 4447 4448 4449 4450 4451 4452 4453 4454 4455
4456 4457 4458 4459 4460 4461 4462 4463 4464 4465 4466 4467 4468 4469 4470
4471 4472 4473 4474 4475 4476 4477 4478 4479 4480 4481 4482 4483 4484 4485
4486 4487 4488 4489 4490 4491 4492 4493 4494 4495 4496 4497 4498 4499 4500
4501 4502 4503 4504 4505 4506 4507 4508 4509 4510 4511 4512 4513 4514 4515
4516 4517 4518 4519 4520 4521 4522 4523 4524 4525 4526 4527 4528 4529 4530
4531 4532 4533 4534 4535 4536 4537 4538 4539 4540 4541 4542 4543 4544 4545
4546 4547 4548 4549 4550 4551 4552 4553 4554 4555 4556 4557 4558 4559 4560
4561 4562 4563 4564 4565 4566 4567 4568 4569 4570 4571 4572 4573 4574 4575
4576 4577 4578 4579 4580 4581 4582 4583 4584 4585 4586 4587 4588 4589 4590
4591 4592 4593 4594 4595 4596 4597 4598 4599 4600 4601 4602 4603 4604 4605
4606 4607 4608 4609 4610 4611 4612 4613 4614 4615 4616 4617 4618 4619 4620
4621 4622 4623 4624 4625 4626 4627 4628 4629 4630 4631 4632 4633 4634 4635
4636 4637 4638 4639 4640 4641 4642 4643 4644 4645 4646 4647 4648 4649 4650
4651 4652 4653 4654 4655 4656 4657 4658 4659 4660 4661 4662 4663 4664 4665
4666 4667 4668 4669 4670 4671 4672 4673 4674 4675 4676 4677 4678 4679 4680
4681 4682 4683 4684 4685 4686 4687 4688 4689 4690 4691 4692 4693 4694 4695
4696 4697 4698 4699 4700 4701 4702 4703 4704 4705 4706 4707 4708 4709 4710
4711 4712 4713 4714 4715 4716 4717 4718 4719 4720 4721 4722 4723 4724 4725
4726
[ Other ]
   1    2    3    4    5    6    7    8    9   10   11   12   13   14   15
  16   17   18   19   20   21   22   23   24   25   26   27   28   29   30
  31   32   33
[ LIGAND ]
   1    2    3    4    5    6    7    8    9   10   11   12   13   14   15
  16   17   18   19   20   21   22   23   24   25   26   27   28   29   30
  31   32   33
[ Protein ]
  34   35   36   37   38   39   40   41   42   43   44   45   46   47   48
  49   50   51   52   53   54   55   56   57   58   59   60   61   62   63
  64   65   66   67   68   69   70   71   72   73   74   75   76   77   78
  79   80   81   82   83   84   85   86   87   88   89   90   91   92   93
  94   95   96   97   98   99  100  101  102  103  104  105  106  107  108
 109  110  111  112  113  114  115  116  117  118  119  120  121  122  123
 124  125  126  127  128  129  130  131  132  133  134  135  136  137  138
 139  140  141  142  143  144  145  146  147  148  149  150  151  152  153
 154  155  156  157  158  159  160  161  162  163  164  165  166  167  168
 169  170  171  172  173  174  175  176  177  178  179  180  181  182  183
 184  185  186  187  188  189  190  191  192  193  194  195  196  197  198
 199  200  201  202  203  204  205  206  207  208  209  210  211  212  213
 214  215  216  217  218  219  220  221  222  223  224  225  226  227  228
 229  230  231  232  233  234  235  236  237  238  239  240  241  242  243
 244  245  246  247  248  249  250  251  252  253  254  255  256  257  258
 259  260  261  262  263  264  265  266  267  268  269  270  271  272  273
 274  275  276  277  278  279  280  281  282  283  284  285  286  287  288
 289  290  291  292  293  294  295  296  297  298  299  300  301  302  303
 304  305  306  307  308  309  310  311  312  313  314  315  316  317  318
 319  320  321  322  323  324  325  326  327  328  329  330  331  332  333
 334  335  336  337  338  339  340  341  342  343  344  345  346  347  348
 349  350  351  352  353  354  355  356  357  358  359  360  361  362  363
 364  365  366  367  368  369  370  371  372  373  374  375  376  377  378
 379  380  381  382  383  384  385  386  387  388  389  390  391  392  393
 394  395  396  397  398  399  400  401  402  403  404  405  406  407  408
 409  410  411  412  413  414  415  416  417  418  419  420  421  422  423
 424  425  426  427  428  429  430  431  432  433  434  435  436  437  438
 439  440  441  442  443  444  445  446  447  448  449  450  451  452  453
 454  455  456  457  458  459  460  461  462  463  464  465  466  467  468
 469  470  471  472  473  474  475  476  477  478  479  480  481  482  483
 484  485  486  487  488  489  490  491  492  493  494  495  496  497  498
 499  500  501  502  503  504  505  506  507  508  509  510  511  512  513
 514  515  516  517  518  519  520  521  522  523  524  525  526  527  528
 529  530  531  532  533  534  535  536  537  538  539  540  541  542  543
 544  545  546  547  548  549  550  551  552  553  554  555  556  557  558
 559  560  561  562  563  564  565  566  567  568  569  570  571  572  573
 574  575  576  577  578  579  580  581  582  583  584  585  586  587  588
 589  590  591  592  593  594  595  596  597  598  599  600  601  602  603
 604  605  606  607  608  609  610  611  612  613  614  615  616  617  618
 619  620  621  622  623  624  625  626  627  628  629  630  631  632  633
 634  635  636  637  638  639  640  641  642  643  644  645  646  647  648
 649  650  651  652  653  654  655  656  657  658  659  660  661  662  663
 664  665  666  667  668  669  670  671  672  673  674  675  676  677  678
 679  680  681  682  683  684  685  686  687  688  689  690  691  692  693
 694  695  696  697  698  699  700  701  702  703  704  705  706  707  708
 709  710  711  712  713  714  715  716  717  718  719  720  721  722  723
 724  725  726  727  728  729  730  731  732  733  734  735  736  737  738
 739  740  741  742  743  744  745  746  747  748  749  750  751  752  753
 754  755  756  757  758  759  760  761  762  763  764  765  766  767  768
 769  770  771  772  773  774  775  776  777  778  779  780  781  782  783
 784  785  786  787  788  789  790  791  792  793  794  795  796  797  798
 799  800  801  802  803  804  805  806  807  808  809  810  811  812  813
 814  815  816  817  818  819  820  821  822  823  824  825  826  827  828
 829  830  831  832  833  834  835  836  837  838  839  840  841  842  843
 844  845  846  847  848  849  850  851  852  853  854  855  856  857  858
 859  860  861  862  863  864  865  866  867  868  869  870  871  872  873
 874  875  876  877  878  879  880  881  882  883  884  885  886  887  888
 889  890  891  892  893  894  895  896  897  898  899  900  901  902  903
 904  905  906  907  908  909  910  911  912  913  914  915  916  917  918
 919  920  921  922  923  924  925  926  927  928  929  930  931  932  933
 934  935  936  937  938  939  940  941  942  943  944  945  946  947  948
 949  950  951  952  953  954  955  956  957  958  959  960  961  962  963
 964  965  966  967  968  969  970  971  972  973  974  975  976  977  978
 979  980  981  982  983  984  985  986  987  988  989  990  991  992  993
 994  995  996  997  998  999 1000 1001 1002 1003 1004 1005 1006 1007 1008
1009 1010 1011 1012 1013 1014 1015 1016 1017 1018 1019 1020 1021 1022 1023
1024 1025 1026 1027 1028 1029 1030 1031 1032 1033 1034 1035 1036 1037 1038
1039 1040 1041 1042 1043 1044 1045 1046 1047 1048 1049 1050 1051 1052 1053
1054 1055 1056 1057 1058 1059 1060 1061 1062 1063 1064 1065 1066 1067 1068
1069 1070 1071 1072 1073 1074 1075 1076 1077 1078 1079 1080 1081 1082 1083
1084 1085 1086 1087 1088 1089 1090 1091 1092 1093 1094 1095 1096 1097 1098
1099 1100 1101 1102 1103 1104 1105 1106 1107 1108 1109 1110 1111 1112 1113
1114 1115 1116 1117 1118 1119 1120 1121 1122 1123 1124 1125 1126 1127 1128
1129 1130 1131 1132 1133 1134 1135 1136 1137 1138 1139 1140 1141 1142 1143
1144 1145 1146 1147 1148 1149 1150 1151 1152 1153 1154 1155 1156 1157 1158
1159 1160 1161 1162 1163 1164 1165 1166 1167 1168 1169 1170 1171 1172 1173
1174 1175 1176 1177 1178 1179 1180 1181 1182 1183 1184 1185 1186 1187 1188
1189 1190 1191 1192 1193 1194 1195 1196 1197 1198 1199 1200 1201 1202 1203
1204 1205 1206 1207 1208 1209 1210 1211 1212 1213 1214 1215 1216 1217 1218
1219 1220 1221 1222 1223 1224 1225 1226 1227 1228 1229 1230 1231 1232 1233
1234 1235 1236 1237 1238 1239 1240 1241 1242 1243 1244 1245 1246 1247 1248
1249 1250 1251 1252 1253 1254 1255 1256 1257 1258 1259 1260 1261 1262 1263
1264 1265 1266 1267 1268 1269 1270 1271 1272 1273 1274 1275 1276 1277 1278
1279 1280 1281 1282 1283 1284 1285 1286 1287 1288 1289 1290 1291 1292 1293
1294 1295 1296 1297 1298 1299 1300 1301 1302 1303 1304 1305 1306 1307 1308
1309 1310 1311 1312 1313 1314 1315 1316 1317 1318 1319 1320 1321 1322 1323
1324 1325 1326 1327 1328 1329 1330 1331 1332 1333 1334 1335 1336 1337 1338
1339 1340 1341 1342 1343 1344 1345 1346 1347 1348 1349 1350 1351 1352 1353
1354 1355 1356 1357 1358 1359 1360 1361 1362 1363 1364 1365 1366 1367 1368
1369 1370 1371 1372 1373 1374 1375 1376 1377 1378 1379 1380 1381 1382 1383
1384 1385 1386 1387 1388 1389 1390 1391 1392 1393 1394 1395 1396 1397 1398
1399 1400 1401 1402 1403 1404 1405 1406 1407 1408 1409 1410 1411 1412 1413
1414 1415 1416 1417 1418 1419 1420 1421 1422 1423 1424 1425 1426 1427 1428
1429 1430 1431 1432 1433 1434 1435 1436 1437 1438 1439 1440 1441 1442 1443
1444 1445 1446 1447 1448 1449 1450 1451 1452 1453 1454 1455 1456 1457 1458
1459 1460 1461 1462 1463 1464 1465 1466 1467 1468 1469 1470 1471 1472 1473
1474 1475 1476 1477 1478 1479 1480 1481 1482 1483 1484 1485 1486 1487 1488
1489 1490 1491 1492 1493 1494 1495 1496 1497 1498 1499 1500 1501 1502 1503
1504 1505 1506 1507 1508 1509 1510 1511 1512 1513 1514 1515 1516 1517 1518
1519 1520 1521 1522 1523 1524 1525 1526 1527 1528 1529 1530 1531 1532 1533
1534 1535 1536 1537 1538 1539 1540 1541 1542 1543 1544 1545 1546 1547 1548
1549 1550 1551 1552 1553 1554 1555 1556 1557 1558 1559 1560 1561 1562 1563
1564 1565 1566 1567 1568 1569 1570 1571 1572 1573 1574 1575 1576 1577 1578
1579 1580 1581 1582 1583 1584 1585 1586 1587 1588 1589 1590 1591 1592 1593
1594 1595 1596 1597 1598 1599 1600 1601 1602 1603 1604 1605 1606 1607 1608
1609 1610 1611 1612 1613 1614 1615 1616 1617 1618 1619 1620 1621 1622 1623
1624 1625 1626 1627 1628 1629 1630 1631 1632 1633 1634 1635 1636 1637 1638
1639 1640 1641 1642 1643 1644 1645 1646 1647 1648 1649 1650 1651 1652 1653
1654 1655 1656 1657 1658 1659 1660 1661 1662 1663 1664 1665 1666 1667 1668
1669 1670 1671 1672 1673 1674 1675 1676 1677 1678 1679 1680 1681 1682 1683
1684 1685 1686 1687 1688 1689 1690 1691 1692 1693 1694 1695 1696 1697 1698
1699 1700 1701 1702 1703 1704 1705 1706 1707 1708 1709 1710 1711 1712 1713
1714 1715 1716 1717 1718 1719 1720 1721 1722 1723 1724 1725 1726 1727 1728
1729 1730 1731 1732 1733 1734 1735 1736 1737 1738 1739 1740 1741 1742 1743
1744 1745 1746 1747 1748 1749 1750 1751 1752 1753 1754 1755 1756 1757 1758
1759 1760 1761 1762 1763 1764 1765 1766 1767 1768 1769 1770 1771 1772 1773
1774 1775 1776 1777 1778 1779 1780 1781 1782 1783 1784 1785 1786 1787 1788
1789 1790 1791 1792 1793 1794 1795 1796 1797 1798 1799 1800 1801 1802 1803
1804 1805 1806 1807 1808 1809 1810 1811 1812 1813 1814 1815 1816 1817 1818
1819 1820 1821 1822 1823 1824 1825 1826 1827 1828 1829 1830 1831 1832 1833
1834 1835 1836 1837 1838 1839 1840 1841 1842 1843 1844 1845 1846 1847 1848
1849 1850 1851 1852 1853 1854 1855 1856 1857 1858 1859 1860 1861 1862 1863
1864 1865 1866 1867 1868 1869 1870 1871 1872 1873 1874 1875 1876 1877 1878
1879 1880 1881 1882 1883 1884 1885 1886 1887 1888 1889 1890 1891 1892 1893
1894 1895 1896 1897 1898 1899 1900 1901 1902 1903 1904 1905 1906 1907 1908
1909 1910 1911 1912 1913 1914 1915 1916 1917 1918 1919 1920 1921 1922 1923
1924 1925 1926 1927 1928 1929 1930 1931 1932 1933 1934 1935 1936 1937 1938
1939 1940 1941 1942 1943 1944 1945 1946 1947 1948 1949 1950 1951 1952 1953
1954 1955 1956 1957 1958 1959 1960 1961 1962 1963 1964 1965 1966 1967 1968
1969 1970 1971 1972 1973 1974 1975 1976 1977 1978 1979 1980 1981 1982 1983
1984 1985 1986 1987 1988 1989 1990 1991 1992 1993 1994 1995 1996 1997 1998
1999 2000 2001 2002 2003 2004 2005 2006 2007 2008 2009 2010 2011 2012 2013
2014 2015 2016 2017 2018 2019 2020 2021 2022 2023 2024 2025 2026 2027 2028
2029 2030 2031 2032 2033 2034 2035 2036 2037 2038 2039 2040 2041 2042 2043
2044 2045 2046 2047 2048 2049 2050 2051 2052 2053 2054 2055 2056 2057 2058
2059 2060 2061 2062 2063 2064 2065 2066 2067 2068 2069 2070 2071 2072 2073
2074 2075 2076 2077 2078 2079 2080 2081 2082 2083 2084 2085 2086 2087 2088
2089 2090 2091 2092 2093 2094 2095 2096 2097 2098 2099 2100 2101 2102 2103
2104 2105 2106 2107 2108 2109 2110 2111 2112 2113 2114 2115 2116 2117 2118
2119 2120 2121 2122 2123 2124 2125 2126 2127 2128 2129 2130 2131 2132 2133
2134 2135 2136 2137 2138 2139 2140 2141 2142 2143 2144 2145 2146 2147 2148
2149 2150 2151 2152 2153 2154 2155 2156 2157 2158 2159 2160 2161 2162 2163
2164 2165 2166 2167 2168 2169 2170 2171 2172 2173 2174 2175 2176 2177 2178
2179 2180 2181 2182 2183 2184 2185 2186 2187 2188 2189 2190 2191 2192 2193
2194 2195 2196 2197 2198 2199 2200 2201 2202 2203 2204 2205 2206 2207 2208
2209 2210 2211 2212 2213 2214 2215 2216 2217 2218 2219 2220 2221 2222 2223
2224 2225 2226 2227 2228 2229 2230 2231 2232 2233 2234 2235 2236 2237 2238
2239 2240 2241 2242 2243 2244 2245 2246 2247 2248 2249 2250 2251 2252 2253
2254 2255 2256 2257 2258 2259 2260 2261 2262 2263 2264 2265 2266 2267 2268
2269 2270 2271 2272 2273 2274 2275 2276 2277 2278 2279 2280 2281 2282 2283
2284 2285 2286 2287 2288 2289 2290 2291 2292 2293 2294 2295 2296 2297 2298
2299 2300 2301 2302 2303 2304 2305 2306 2307 2308 2309 2310 2311 2312 2313
2314 2315 2316 2317 2318 2319 2320 2321 2322 2323 2324 2325 2326 2327 2328
2329 2330 2331 2332 2333 2334 2335 2336 2337 2338 2339 2340 2341 2342 2343
2344 2345 2346 2347 2348 2349 2350 2351 2352 2353 2354 2355 2356 2357 2358
2359 2360 2361 2362 2363 2364 2365 2366 2367 2368 2369 2370 2371 2372 2373
2374 2375 2376 2377 2378 2379 2380 2381 2382 2383 2384 2385 2386 2387 2388
2389 2390 2391 2392 2393 2394 2395 2396 2397 2398 2399 2400 2401 2402 2403
2404 2405 2406 2407 2408 2409 2410 2411 2412 2413 2414 2415 2416 2417 2418
2419 2420 2421 2422 2423 2424 2425 2426 2427 2428 2429 2430 2431 2432 2433
2434 2435 2436 2437 2438 2439 2440 2441 2442 2443 2444 2445 2446 2447 2448
2449 2450 2451 2452 2453 2454 2455 2456 2457 2458 2459 2460 2461 2462 2463
2464 2465 2466 2467 2468 2469 2470 2471 2472 2473 2474 2475 2476 2477 2478
2479 2480 2481 2482 2483 2484 2485 2486 2487 2488 2489 2490 2491 2492 2493
2494 2495 2496 2497 2498 2499 2500 2501 2502 2503 2504 2505 2506 2507 2508
2509 2510 2511 2512 2513 2514 2515 2516 2517 2518 2519 2520 2521 2522 2523
2524 2525 2526 2527 2528 2529 2530 2531 2532 2533 2534 2535 2536 2537 2538
2539 2540 2541 2542 2543 2544 2545 2546 2547 2548 2549 2550 2551 2552 2553
2554 2555 2556 2557 2558 2559 2560 2561 2562 2563 2564 2565 2566 2567 2568
2569 2570 2571 2572 2573 2574 2575 2576 2577 2578 2579 2580 2581 2582 2583
2584 2585 2586 2587 2588 2589 2590 2591 2592 2593 2594 2595 2596 2597 2598
2599 2600 2601 2602 2603 2604 2605 2606 2607 2608 2609 2610 2611 2612 2613
2614 2615 2616 2617 2618 2619 2620 2621 2622 2623 2624 2625 2626 2627 2628
2629 2630 2631 2632 2633 2634 2635 2636 2637 2638 2639 2640 2641 2642 2643
2644 2645 2646 2647 2648 2649 2650 2651 2652 2653 2654 2655 2656 2657 2658
2659 2660 2661 2662 2663 2664 2665 2666 2667 2668 2669 2670 2671 2672 2673
2674 2675 2676 2677 2678 2679 2680 2681 2682 2683 2684 2685 2686 2687 2688
2689 2690 2691 2692 2693 2694 2695 2696 2697 2698 2699 2700 2701 2702 2703
2704 2705 2706 2707 2708 2709 2710 2711 2712 2713 2714 2715 2716 2717 2718
2719 2720 2721 2722 2723 2724 2725 2726 2727 2728 2729 2730 2731 2732 2733
2734 2735 2736 2737 2738 2739 2740 2741 2742 2743 2744 2745 2746 2747 2748
2749 2750 2751 2752 2753 2754 2755 2756 2757 2758 2759 2760 2761 2762 2763
2764 2765 2766 2767 2768 2769 2770 2771 2772 2773 2774 2775 2776 2777 2778
2779 2780 2781 2782 2783 2784 2785 2786 2787 2788 2789 2790 2791 2792 2793
2794 2795 2796 2797 2798 2799 2800 2801 2802 2803 2804 2805 2806 2807 2808
2809 2810 2811 2812 2813 2814 2815 2816 2817 2818 2819 2820 2821 2822 2823
2824 2825 2826 2827 2828 2829 2830 2831 2832 2833 2834 2835 2836 2837 2838
2839 2840 2841 2842 2843 2844 2845 2846 2847 2848 2849 2850 2851 2852 2853
2854 2855 2856 2857 2858 2859 2860 2861 2862 2863 2864 2865 2866 2867 2868
2869 2870 2871 2872 2873 2874 2875 2876 2877 2878 2879 2880 2881 2882 2883
2884 2885 2886 2887 2888 2889 2890 2891 2892 2893 2894 2895 2896 2897 2898
2899 2900 2901 2902 2903 2904 2905 2906 2907 2908 2909 2910 2911 2912 2913
2914 2915 2916 2917 2918 2919 2920 2921 2922 2923 2924 2925 2926 2927 2928
2929 2930 2931 2932 2933 2934 2935 2936 2937 2938 2939 2940 2941 2942 2943
2944 2945 2946 2947 2948 2949 2950 2951 2952 2953 2954 2955 2956 2957 2958
2959 2960 2961 2962 2963 2964 2965 2966 2967 2968 2969 2970 2971 2972 2973
2974 2975 2976 2977 2978 2979 2980 2981 2982 2983 2984 2985 2986 2987 2988
2989 2990 2991 2992 2993 2994 2995 2996 2997 2998 2999 3000 3001 3002 3003
3004 3005 3006 3007 3008 3009 3010 3011 3012 3013 3014 3015 3016 3017 3018
3019 3020 3021 3022 3023 3024 3025 3026 3027 3028 3029 3030 3031 3032 3033
3034 3035 3036 3037 3038 3039 3040 3041 3042 3043 3044 3045 3046 3047 3048
3049 3050 3051 3052 3053 3054 3055 3056 3057 3058 3059 3060 3061 3062 3063
3064 3065 3066 3067 3068 3069 3070 3071 3072 3073 3074 3075 3076 3077 3078
3079 3080 3081 3082 3083 3084 3085 3086 3087 3088 3089 3090 3091 3092 3093
3094 3095 3096 3097 3098 3099 3100 3101 3102 3103 3104 3105 3106 3107 3108
3109 3110 3111 3112 3113 3114 3115 3116 3117 3118 3119 3120 3121 3122 3123
3124 3125 3126 3127 3128 3129 3130 3131 3132 3133 3134 3135 3136 3137 3138
3139 3140 3141 3142 3143 3144 3145 3146 3147 3148 3149 3150 3151 3152 3153
3154 3155 3156 3157 3158 3159 3160 3161 3162 3163 3164 3165 3166 3167 3168
3169 3170 3171 3172 3173 3174 3175 3176 3177 3178 3179 3180 3181 3182 3183
3184 3185 3186 3187 3188 3189 3190 3191 3192 3193 3194 3195 3196 3197 3198
3199 3200 3201 3202 3203 3204 3205 3206 3207 3208 3209 3210 3211 3212 3213
3214 3215 3216 3217 3218 3219 3220 3221 3222 3223 3224 3225 3226 3227 3228
3229 3230 3231 3232 3233 3234 3235 3236 3237 3238 3239 3240 3241 3242 3243
3244 3245 3246 3247 3248 3249 3250 3251 3252 3253 3254 3255 3256 3257 3258
3259 3260 3261 3262 3263 3264 3265 3266 3267 3268 3269 3270 3271 3272 3273
3274 3275 3276 3277 3278 3279 3280 3281 3282 3283 3284 3285 3286 3287 3288
3289 3290 3291 3292 3293 3294 3295 3296 3297 3298 3299 3300 3301 3302 3303
3304 3305 3306 3307 3308 3309 3310 3311 3312 3313 3314 3315 3316 3317 3318
3319 3320 3321 3322 3323 3324 3325 3326 3327 3328 3329 3330 3331 3332 3333
3334 3335 3336 3337 3338 3339 3340 3341 3342 3343 3344 3345 3346 3347 3348
3349 3350 3351 3352 3353 3354 3355 3356 3357 3358 3359 3360 3361 3362 3363
3364 3365 3366 3367 3368 3369 3370 3371 3372 3373 3374 3375 3376 3377 3378
3379 3380 3381 3382 3383 3384 3385 3386 3387 3388 3389 3390 3391 3392 3393
3394 3395 3396 3397 3398 3399 3400 3401 3402 3403 3404 3405 3406 3407 3408
3409 3410 3411 3412 3413 3414 3415 3416 3417 3418 3419 3420 3421 3422 3423
3424 3425 3426 3427 3428 3429 3430 3431 3432 3433 3434 3435 3436 3437 3438
3439 3440 3441 3442 3443 3444 3445 3446 3447 3448 3449 3450 3451 3452 3453
3454 3455 3456 3457 3458 3459 3460 3461 3462 3463 3464 3465 3466 3467 3468
3469 3470 3471 3472 3473 3474 3475 3476 3477 3478 3479 3480 3481 3482 3483
3484 3485 3486 3487 3488 3489 3490 3491 3492 3493 3494 3495 3496 3497 3498
3499 3500 3501 3502 3503 3504 3505 3506 3507 3508 3509 3510 3511 3512 3513
3514 3515 3516 3517 3518 3519 3520 3521 3522 3523 3524 3525 3526 3527 3528
3529 3530 3531 3532 3533 3534 3535 3536 3537 3538 3539 3540 3541 3542 3543
3544 3545 3546 3547 3548 3549 3550 3551 3552 3553 3554 3555 3556 3557 3558
3559 3560 3561 3562 3563 3564 3565 3566 3567 3568 3569 3570 3571 3572 3573
3574 3575 3576 3577 3578 3579 3580 3581 3582 3583 3584 3585 3586 3587 3588
3589 3590 3591 3592 3593 3594 3595 3596 3597 3598 3599 3600 3601 3602 3603
3604 3605 3606 3607 3608 3609 3610 3611 3612 3613 3614 3615 3616 3617 3618
3619 3620 3621 3622 3623 3624 3625 3626 3627 3628 3629 3630 3631 3632 3633
3634 3635 3636 3637 3638 3639 3640 3641 3642 3643 3644 3645 3646 3647 3648
3649 3650 3651 3652 3653 3654 3655 3656 3657 3658 3659 3660 3661 3662 3663
3664 3665 3666 3667 3668 3669 3670 3671 3672 3673 3674 3675 3676 3677 3678
3679 3680 3681 3682 3683 3684 3685 3686 3687 3688 3689 3690 3691 3692 3693
3694 3695 3696 3697 3698 3699 3700 3701 3702 3703 3704 3705 3706 3707 3708
3709 3710 3711 3712 3713 3714 3715 3716 3717 3718 3719 3720 3721 3722 3723
3724 3725 3726 3727 3728 3729 3730 3731 3732 3733 3734 3735 3736 3737 3738
3739 3740 3741 3742 3743 3744 3745 3746 3747 3748 3749 3750 3751 3752 3753
3754 3755 3756 3757 3758 3759 3760 3761 3762 3763 3764 3765 3766 3767 3768
3769 3770 3771 3772 3773 3774 3775 3776 3777 3778 3779 3780 3781 3782 3783
3784 3785 3786 3787 3788 3789 3790 3791 3792 3793 3794 3795 3796 3797 3798
3799 3800 3801 3802 3803 3804 3805 3806 3807 3808 3809 3810 3811 3812 3813
3814 3815 3816 3817 3818 3819 3820 3821 3822 3823 3824 3825 3826 3827 3828
3829 3830 3831 3832 3833 3834 3835 3836 3837 3838 3839 3840 3841 3842 3843
3844 3845 3846 3847 3848 3849 3850 3851 3852 3853 3854 3855 3856 3857 3858
3859 3860 3861 3862 3863 3864 3865 3866 3867 3868 3869 3870 3871 3872 3873
3874 3875 3876 3877 3878 3879 3880 3881 3882 3883 3884 3885 3886 3887 3888
3889 3890 3891 3892 3893 3894 3895 3896 3897 3898 3899 3900 3901 3902 3903
3904 3905 3906 3907 3908 3909 3910 3911 3912 3913 3914 3915 3916 3917 3918
3919 3920 3921 3922 3923 3924 3925 3926 3927 3928 3929 3930 3931 3932 3933
3934 3935 3936 3937 3938 3939 3940 3941 3942 3943 3944 3945 3946 3947 3948
3949 3950 3951 3952 3953 3954 3955 3956 3957 3958 3959 3960 3961 3962 3963
3964 3965 3966 3967 3968 3969 3970 3971 3972 3973 3974 3975 3976 3977 3978
3979 3980 3981 3982 3983 3984 3985 3986 3987 3988 3989 3990 3991 3992 3993
3994 3995 3996 3997 3998 3999 4000 4001 4002 4003 4004 4005 4006 4007 4008
4009 4010 4011 4012 4013 4014 4015 4016 4017 4018 4019 4020 4021 4022 4023
4024 4025 4026 4027 4028 4029 4030 4031 4032 4033 4034 4035 4036 4037 4038
4039 4040 4041 4042 4043 4044 4045 4046 4047 4048 4049 4050 4051 4052 4053
4054 4055 4056 4057 4058 4059 4060 4061 4062 4063 4064 4065 4066 4067 4068
4069 4070 4071 4072 4073 4074 4075 4076 4077 4078 4079 4080 4081 4082 4083
4084 4085 4086 4087 4088 4089 4090 4091 4092 4093 4094 4095 4096 4097 4098
4099 4100 4101 4102 4103 4104 4105 4106 4107 4108 4109 4110 4111 4112 4113
4114 4115 4116 4117 4118 4119 4120 4121 4122 4123 4124 4125 4126 4127 4128
4129 4130 4131 4132 4133 4134 4135 4136 4137 4138 4139 4140 4141 4142 4143
4144 4145 4146 4147 4148 4149 4150 4151 4152 4153 4154 4155 4156 4157 4158
4159 4160 4161 4162 4163 4164 4165 4166 4167 4168 4169 4170 4171 4172 4173
4174 4175 4176 4177 4178 4179 4180 4181 4182 4183 4184 4185 4186 4187 4188
4189 4190 4191 4192 4193 4194 4195 4196 4197 4198 4199 4200 4201 4202 4203
4204 4205 4206 4207 4208 4209 4210 4211 4212 4213 4214 4215 4216 4217 4218
4219 4220 4221 4222 4223 4224 4225 4226 4227 4228 4229 4230 4231 4232 4233
4234 4235 4236 4237 4238 4239 4240 4241 4242 4243 4244 4245 4246 4247 4248
4249 4250 4251 4252 4253 4254 4255 4256 4257 4258 4259 4260 4261 4262 4263
4264 4265 4266 4267 4268 4269 4270 4271 4272 4273 4274 4275 4276 4277 4278
4279 4280 4281 4282 4283 4284 4285 4286 4287 4288 4289 4290 4291 4292 4293
4294 4295 4296 4297 4298 4299 4300 4301 4302 4303 4304 4305 4306 4307 4308
4309 4310 4311 4312 4313 4314 4315 4316 4317 4318 4319 4320 4321 4322 4323
4324 4325 4326 4327 4328 4329 4330 4331 4332 4333 4334 4335 4336 4337 4338
4339 4340 4341 4342 4343 4344 4345 4346 4347 4348 4349 4350 4351 4352 4353
4354 4355 4356 4357 4358 4359 4360 4361 4362 4363 4364 4365 4366 4367 4368
4369 4370 4371 4372 4373 4374 4375 4376 4377 4378 4379 4380 4381 4382 4383
4384 4385 4386 4387 4388 4389 4390 4391 4392 4393 4394 4395 4396 4397 4398
4399 4400 4401 4402 4403 4404 4405 4406 4407 4408 4409 4410 4411 4412 4413
4414 4415 4416 4417 4418 4419 4420 4421 4422 4423 4424 4425 4426 4427 4428
4429 4430 4431 4432 4433 4434 4435 4436 4437 4438 4439 4440 4441 4442 4443
4444 4445 4446 4447 4448 4449 4450 4451 4452 4453 4454 4455 4456 4457 4458
4459 4460 4461 4462 4463 4464 4465 4466 4467 4468 4469 4470 4471 4472 4473
4474 4475 4476 4477 4478 4479 4480 4481 4482 4483 4484 4485 4486 4487 4488
4489 4490 4491 4492 4493 4494 4495 4496 4497 4498 4499 4500 4501 4502 4503
4504 4505 4506 4507 4508 4509 4510 4511 4512 4513 4514 4515 4516 4517 4518
4519 4520 4521 4522 4523 4524 4525 4526 4527 4528 4529 4530 4531 4532 4533
4534 4535 4536 4537 4538 4539 4540 4541 4542 4543 4544 4545 4546 4547 4548
4549 4550 4551 4552 4553 4554 4555 4556 4557 4558 4559 4560 4561 4562 4563
4564 4565 4566 4567 4568 4569 4570 4571 4572 4573 4574 4575 4576 4577 4578
4579 4580 4581 4582 4583 4584 4585 4586 4587 4588 4589 4590 4591 4592 4593
4594 4595 4596 4597 4598 4599 4600 4601 4602 4603 4604 4605 4606 4607 4608
4609 4610 4611 4612 4613 4614 4615 4616 4617 4618 4619 4620 4621 4622 4623
4624 4625 4626 4627 4628 4629 4630 4631 4632 4633 4634 4635 4636 4637 4638
4639 4640 4641 4642 4643 4644 4645 4646 4647 4648 4649 4650 4651 4652 4653
4654 4655 4656 4657 4658 4659 4660 4661 4662 4663 4664 4665 4666 4667 4668
4669 4670 4671 4672 4673 4674 4675 4676 4677 4678 4679 4680 4681 4682 4683
4684 4685 4686 4687 4688 4689 4690 4691 4692 4693 4694 4695 4696 4697 4698
4699 4700 4701 4702 4703 4704 4705 4706 4707 4708 4709 4710 4711 4712 4713
4714 4715 4716 4717 4718 4719 4720 4721 4722 4723 4724 4725 4726
[ Protein-H ]
  34   37   40   43   46   48   49   50   52   54   57   60   63   65   66
  69   72   73   74   76   78   81   84   87   90   94   95   96   98  100
 103  106  109  112  116  117  118  120  122  125  128  131  133  134  137
 140  141  142  143  146  149  152  154  155  156  158  160  163  166  167
 168  169  170  171  173  175  178  179  180  181  182  183  185  187  190
 191  193  195  197  199  201  202  203  205  207  210  213  216  219  223
 224  225  227  229  232  233  235  237  239  241  243  244  245  247  250
 251  252  254  256  259  262  265  268  272  273  274  276  278  280  284
 287  291  292  293  295  297  300  302  306  310  311  312  314  317  318
 319  321  323  326  329  330  331  332  333  334  336  339  340  341  343
 345  348  350  351  352  354  356  359  360  362  364  366  368  370  371
 372  374  376  379  381  382  383  385  387  389  393  395  396  397  399
 401  403  407  411  412  413  415  417  419  423  427  428  429  431  433
 436  438  442  446  447  448  450  452  456  457  458  460  462  465  468
 471  473  474  477  480  481  482  484  486  489  492  493  494  495  496
 497  499  501  504  506  510  514  515  516  518  520  524  525  526  528
 530  532  536  538  539  540  542  544  547  549  550  551  553  555  558
 561  564  566  567  570  573  574  575  577  579  582  585  586  587  588
 589  590  592  594  597  598  600  602  603  605  607  609  610  611  613
 615  619  620  621  623  625  627  631  634  638  639  640  642  644  647
 650  653  656  660  661  662  664  666  668  672  675  679  680  681  683
 685  688  690  694  698  699  700  702  704  707  710  711  712  713  714
 715  717  719  722  725  728  731  735  736  737  739  741  744  747  750
 752  753  756  759  760  761  763  765  768  769  770  772  774  776  777
 778  780  782  784  788  791  795  796  797  799  801  803  807  810  814
 815  816  818  820  823  826  829  832  836  837  838  840  842  845  848
 849  850  851  852  853  855  857  860  861  862  865  866  867  869  871
 874  877  880  883  887  888  889  891  893  895  899  903  904  905  906
 909  912  915  917  918  919  921  923  926  927  929  931  932  934  936
 938  939  940  942  944  946  950  954  955  956  958  960  962  966  968
 969  970  972  974  977  980  983  985  986  989  992  993  994  996  998
1001 1004 1005 1006 1007 1008 1009 1011 1013 1016 1019 1022 1024 1025 1028
1031 1032 1033 1035 1037 1040 1041 1042 1043 1044 1045 1047 1049 1051 1055
1059 1060 1061 1063 1065 1068 1071 1072 1076 1077 1078 1080 1082 1085 1087
1088 1089 1091 1093 1096 1099 1102 1104 1105 1108 1111 1112 1113 1115 1117
1120 1122 1126 1130 1131 1132 1134 1136 1139 1140 1141 1142 1143 1144 1146
1148 1151 1152 1153 1155 1157 1159 1160 1161 1162 1165 1168 1171 1173 1174
1175 1177 1179 1182 1183 1185 1187 1189 1191 1193 1194 1195 1197 1199 1202
1203 1205 1207 1209 1211 1213 1214 1215 1217 1219 1221 1225 1229 1230 1231
1233 1235 1238 1241 1244 1247 1251 1252 1253 1255 1257 1260 1262 1266 1270
1271 1272 1274 1276 1279 1280 1282 1284 1285 1287 1289 1291 1292 1293 1295
1297 1300 1301 1303 1305 1307 1309 1311 1312 1313 1315 1317 1319 1323 1325
1326 1327 1329 1331 1334 1335 1337 1339 1341 1343 1345 1346 1347 1349 1351
1354 1357 1358 1359 1362 1363 1364 1366 1368 1371 1372 1373 1374 1375 1376
1378 1380 1383 1384 1385 1386 1387 1388 1390 1392 1395 1398 1399 1400 1401
1402 1403 1405 1407 1410 1413 1416 1419 1423 1424 1425 1427 1429 1432 1434
1438 1442 1443 1444 1446 1448 1451 1452 1454 1456 1457 1459 1461 1463 1464
1465 1467 1469 1472 1473 1475 1477 1479 1481 1483 1484 1485 1487 1490 1491
1492 1494 1496 1499 1501 1505 1509 1510 1511 1513 1515 1518 1520 1521 1522
1524 1526 1529 1530 1532 1534 1535 1537 1539 1541 1542 1543 1545 1547 1551
1552 1553 1555 1557 1560 1563 1566 1569 1573 1574 1575 1577 1579 1582 1583
1584 1587 1588 1589 1591 1594 1595 1596 1598 1600 1603 1606 1607 1608 1609
1610 1611 1613 1615 1618 1620 1624 1628 1629 1630 1632 1634 1637 1639 1643
1647 1648 1649 1651 1653 1656 1659 1662 1665 1669 1670 1671 1673 1675 1678
1679 1681 1683 1684 1686 1688 1690 1691 1692 1694 1696 1698 1702 1705 1709
1710 1711 1713 1715 1718 1721 1724 1726 1727 1730 1733 1734 1735 1737 1739
1742 1745 1748 1751 1755 1756 1757 1759 1761 1763 1767 1770 1774 1775 1776
1778 1781 1782 1783 1785 1787 1790 1792 1793 1794 1796 1798 1801 1802 1804
1806 1808 1810 1812 1813 1814 1816 1818 1821 1822 1823 1824 1825 1826 1828
1830 1833 1836 1837 1838 1839 1840 1841 1843 1845 1847 1851 1853 1854 1855
1857 1859 1862 1864 1865 1866 1868 1870 1872 1876 1878 1879 1880 1882 1884
1887 1890 1893 1895 1896 1899 1902 1903 1904 1906 1908 1911 1912 1914 1916
1918 1920 1922 1923 1924 1926 1928 1931 1932 1934 1936 1937 1939 1941 1943
1944 1945 1947 1949 1951 1955 1957 1958 1959 1961 1963 1967 1968 1969 1971
1973 1976 1979 1980 1981 1982 1983 1984 1986 1988 1990 1994 1997 2001 2002
2003 2005 2007 2009 2013 2017 2018 2019 2021 2023 2026 2028 2029 2030 2032
2034 2038 2039 2040 2042 2044 2047 2049 2053 2057 2058 2059 2061 2063 2066
2069 2070 2071 2072 2073 2074 2076 2078 2081 2082 2084 2086 2087 2089 2091
2093 2094 2095 2097 2099 2102 2104 2108 2112 2113 2114 2116 2118 2121 2122
2123 2125 2127 2129 2130 2131 2133 2136 2137 2138 2140 2142 2145 2148 2151
2154 2158 2159 2160 2162 2165 2166 2167 2169 2171 2173 2177 2180 2184 2185
2186 2188 2190 2192 2196 2199 2203 2204 2205 2207 2209 2212 2213 2214 2216
2218 2220 2221 2222 2224 2226 2229 2232 2235 2237 2238 2241 2244 2245 2246
2248 2250 2253 2254 2255 2256 2257 2258 2260 2262 2265 2267 2271 2275 2276
2277 2279 2281 2284 2287 2290 2293 2297 2298 2299 2300 2303 2306 2309 2311
2312 2313 2315 2317 2320 2323 2324 2325 2326 2327 2328 2330 2332 2335 2336
2337 2340 2341 2342 2344 2346 2348 2352 2355 2359 2360 2361 2363 2365 2368
2370 2374 2378 2379 2380 2382 2384 2387 2389 2393 2397 2398 2399 2401 2403
2406 2407 2408 2411 2412 2413 2415 2417 2420 2423 2424 2425 2426 2427 2428
2430 2432 2435 2436 2437 2438 2439 2440 2442 2444 2447 2450 2451 2455 2456
2457 2459 2461 2464 2465 2467 2469 2470 2472 2473 2474 2476 2478 2480 2484
2487 2491 2492 2493 2495 2497 2500 2503 2504 2505 2508 2509 2510 2512 2514
2516 2520 2523 2527 2528 2529 2531 2533 2535 2539 2541 2542 2543 2545 2547
2550 2551 2552 2553 2554 2555 2557 2559 2562 2563 2565 2567 2569 2571 2573
2574 2575 2577 2580 2581 2582 2584 2586 2588 2592 2594 2595 2596 2598 2600
2604 2605 2606 2608 2610 2613 2616 2619 2622 2626 2627 2628 2630 2632 2634
2638 2642 2643 2644 2646 2648 2651 2653 2657 2661 2662 2663 2665 2667 2670
2672 2673 2674 2675 2678 2681 2684 2686 2687 2688 2690 2692 2695 2698 2699
2700 2701 2702 2703 2705 2707 2710 2712 2713 2714 2716 2718 2721 2724 2727
2730 2734 2735 2736 2738 2740 2743 2746 2747 2748 2751 2752 2753 2755 2757
2761 2762 2763 2765 2767 2770 2773 2776 2778 2779 2782 2785 2786 2787 2789
2791 2795 2796 2797 2799 2801 2804 2805 2806 2809 2810 2811 2813 2815 2818
2820 2821 2822 2824 2826 2829 2830 2832 2834 2836 2838 2840 2841 2842 2844
2846 2848 2852 2856 2857 2858 2860 2863 2864 2865 2867 2869 2871 2875 2877
2878 2879 2881 2883 2887 2888 2889 2891 2893 2896 2899 2900 2901 2904 2905
2906 2908 2910 2913 2914 2916 2918 2919 2921 2923 2925 2926 2927 2929 2931
2933 2937 2941 2942 2943 2945 2947 2950 2952 2953 2954 2955 2958 2961 2964
2966 2967 2968 2970 2972 2975 2978 2979 2980 2981 2982 2983 2985 2987 2990
2992 2996 3000 3001 3002 3004 3006 3009 3011 3015 3019 3020 3021 3023 3025
3027 3031 3033 3034 3035 3037 3039 3042 3045 3046 3047 3048 3049 3050 3052
3054 3057 3060 3063 3066 3070 3071 3072 3074 3076 3079 3081 3082 3083 3085
3087 3091 3092 3093 3095 3097 3100 3102 3103 3104 3106 3108 3111 3114 3117
3120 3124 3125 3126 3128 3130 3133 3135 3136 3137 3139 3141 3144 3146 3147
3148 3150 3152 3155 3156 3157 3158 3159 3160 3162 3164 3167 3169 3173 3177
3178 3179 3181 3183 3186 3187 3189 3191 3192 3194 3196 3198 3200 3201 3202
3203 3205 3207 3211 3212 3213 3215 3217 3220 3222 3226 3230 3231 3232 3234
3237 3238 3239 3241 3243 3246 3248 3249 3250 3252 3254 3256 3260 3263 3267
3268 3269 3271 3273 3275 3279 3282 3286 3287 3288 3290 3292 3295 3296 3298
3300 3301 3303 3305 3307 3308 3309 3311 3313 3316 3319 3320 3321 3324 3325
3326 3328 3330 3333 3335 3339 3343 3344 3345 3347 3349 3351 3355 3359 3360
3361 3363 3365 3369 3370 3371 3373 3376 3377 3378 3380 3382 3385 3387 3391
3395 3396 3397 3398 3401 3404 3407 3409 3410 3411 3412 3415 3418 3421 3423
3424 3425 3427 3429 3432 3433 3435 3437 3439 3441 3443 3444 3445 3447 3449
3452 3455 3458 3460 3461 3464 3467 3468 3469 3471 3473 3477 3478 3479 3481
3484 3485 3486 3488 3490 3493 3494 3495 3498 3499 3500 3502 3504 3507 3510
3511 3512 3513 3514 3515 3517 3519 3522 3523 3525 3527 3528 3530 3532 3534
3535 3536 3538 3540 3543 3545 3549 3553 3554 3555 3557 3559 3561 3565 3568
3572 3573 3574 3576 3578 3581 3582 3584 3586 3588 3590 3592 3593 3594 3596
3598 3601 3604 3605 3606 3609 3610 3611 3613 3615 3618 3621 3624 3627 3631
3632 3633 3635 3637 3639 3643 3646 3650 3651 3652 3654 3656 3658 3662 3665
3669 3670 3671 3673 3675 3678 3681 3684 3687 3691 3692 3693 3695 3697 3700
3702 3706 3710 3711 3712 3714 3716 3719 3722 3723 3724 3725 3726 3727 3729
3731 3734 3735 3737 3739 3740 3742 3744 3746 3747 3748 3750 3752 3755 3756
3757 3758 3759 3760 3762 3764 3767 3768 3770 3772 3774 3776 3778 3779 3780
3781 3784 3787 3790 3792 3793 3794 3796 3798 3801 3804 3805 3806 3807 3808
3809 3811 3813 3816 3819 3822 3825 3829 3830 3831 3833 3835 3838 3839 3841
3843 3845 3847 3849 3850 3851 3853 3855 3858 3859 3861 3863 3865 3867 3869
3870 3871 3872 3875 3878 3881 3883 3884 3885 3887 3889 3892 3895 3898 3901
3905 3906 3907 3909 3911 3915 3916 3917 3919 3921 3924 3927 3930 3932 3933
3936 3939 3940 3941 3943 3945 3948 3949 3950 3951 3952 3953 3955 3957 3960
3962 3966 3970 3971 3972 3974 3976 3978 3982 3986 3987 3988 3990 3992 3995
3998 3999 4000 4001 4002 4003 4005 4007 4010 4013 4016 4019 4023 4024 4025
4027 4029 4032 4034 4038 4042 4043 4044 4046 4048 4051 4053 4057 4061 4062
4063 4065 4067 4069 4073 4077 4078 4079 4081 4083 4086 4088 4092 4096 4097
4098 4100 4102 4105 4106 4107 4108 4109 4110 4112 4114 4118 4119 4120 4122
4124 4126 4130 4132 4133 4134 4136 4138 4141 4144 4147 4150 4154 4155 4156
4158 4160 4163 4166 4169 4171 4172 4175 4178 4179 4180 4182 4184 4187 4189
4193 4197 4198 4199 4201 4204 4205 4206 4208 4210 4213 4215 4216 4217 4219
4221 4224 4227 4228 4229 4230 4231 4232 4234 4236 4239 4242 4243 4244 4245
4246 4247 4249 4251 4254 4257 4258 4262 4263 4264 4266 4268 4271 4274 4275
4276 4277 4278 4279 4281 4284 4285 4286 4288 4290 4293 4294 4296 4298 4299
4301 4303 4305 4306 4307 4309 4312 4313 4314 4315 4318 4321 4324 4326 4327
4328 4330 4332 4335 4337 4341 4345 4346 4347 4349 4351 4354 4357 4360 4363
4367 4368 4369 4371 4373 4377 4378 4379 4381 4383 4386 4387 4388 4390 4392
4394 4395 4396 4397 4400 4403 4406 4408 4409 4410 4412 4414 4417 4418 4420
4422 4424 4426 4428 4429 4430 4432 4434 4437 4438 4440 4442 4444 4446 4448
4449 4450 4452 4454 4457 4460 4461 4462 4463 4464 4465 4467 4469 4472 4474
4475 4476 4478 4480 4482 4486 4490 4491 4492 4494 4496 4498 4502 4504 4505
4506 4508 4510 4513 4514 4516 4518 4519 4521 4523 4525 4527 4528 4529 4530
4532 4534 4537 4540 4541 4542 4543 4544 4545 4547 4549 4552 4553 4554 4557
4558 4559 4561 4563 4566 4568 4572 4576 4577 4578 4580 4582 4585 4586 4587
4589 4591 4593 4594 4595 4597 4599 4602 4605 4606 4607 4610 4611 4612 4614
4616 4619 4622 4623 4624 4627 4628 4629 4631 4633 4635 4639 4641 4642 4643
4644 4647 4650 4653 4655 4656 4657 4658 4661 4664 4667 4669 4670 4671 4673
4675 4678 4681 4684 4687 4691 4692 4693 4695 4697 4700 4702 4706 4710 4711
4712 4714 4716 4718 4722 4724 4725 4726
[ C-alpha ]
  46   52   76   98  120  152  158  173  185  205  227  247  254  276  295
 314  321  336  343  354  374  385  399  415  431  450  460  484  499  518
 528  542  553  577  592  613  623  642  664  683  702  717  739  763  780
 799  818  840  855  869  891  915  921  942  958  972  996 1011 1035 1047
1063 1080 1091 1115 1134 1146 1171 1177 1197 1217 1233 1255 1274 1295 1315
1329 1349 1366 1378 1390 1405 1427 1446 1467 1487 1494 1513 1524 1545 1555
1577 1591 1598 1613 1632 1651 1673 1694 1713 1737 1759 1778 1785 1796 1816
1828 1843 1857 1868 1882 1906 1926 1947 1961 1971 1986 2005 2021 2032 2042
2061 2076 2097 2116 2133 2140 2162 2169 2188 2207 2224 2248 2260 2279 2309
2315 2330 2344 2363 2382 2401 2415 2430 2442 2459 2476 2495 2512 2531 2545
2557 2577 2584 2598 2608 2630 2646 2665 2684 2690 2705 2716 2738 2755 2765
2789 2799 2813 2824 2844 2860 2867 2881 2891 2908 2929 2945 2964 2970 2985
3004 3023 3037 3052 3074 3085 3095 3106 3128 3139 3150 3162 3181 3205 3215
3234 3241 3252 3271 3290 3311 3328 3347 3363 3373 3380 3407 3421 3427 3447
3471 3481 3488 3502 3517 3538 3557 3576 3596 3613 3635 3654 3673 3695 3714
3729 3750 3762 3790 3796 3811 3833 3853 3881 3887 3909 3919 3943 3955 3974
3990 4005 4027 4046 4065 4081 4100 4112 4122 4136 4158 4182 4201 4208 4219
4234 4249 4266 4281 4288 4309 4324 4330 4349 4371 4381 4406 4412 4432 4452
4467 4478 4494 4508 4532 4547 4561 4580 4597 4614 4631 4653 4667 4673 4695
4714
[ Backbone ]
  34   46   48   50   52   72   74   76   94   96   98  116  118  120  140
 142  152  154  156  158  169  171  173  181  183  185  201  203  205  223
 225  227  243  245  247  250  252  254  272  274  276  291  293  295  310
 312  314  317  319  321  332  334  336  339  341  343  350  352  354  370
 372  374  381  383  385  395  397  399  411  413  415  427  429  431  446
 448  450  456  458  460  480  482  484  495  497  499  514  516  518  524
 526  528  538  540  542  549  551  553  573  575  577  588  590  592  609
 611  613  619  621  623  638  640  642  660  662  664  679  681  683  698
 700  702  713  715  717  735  737  739  759  761  763  776  778  780  795
 797  799  814  816  818  836  838  840  851  853  855  865  867  869  887
 889  891  903  905  915  917  919  921  938  940  942  954  956  958  968
 970  972  992  994  996 1007 1009 1011 1031 1033 1035 1043 1045 1047 1059
1061 1063 1076 1078 1080 1087 1089 1091 1111 1113 1115 1130 1132 1134 1142
1144 1146 1159 1161 1171 1173 1175 1177 1193 1195 1197 1213 1215 1217 1229
1231 1233 1251 1253 1255 1270 1272 1274 1291 1293 1295 1311 1313 1315 1325
1327 1329 1345 1347 1349 1362 1364 1366 1374 1376 1378 1386 1388 1390 1401
1403 1405 1423 1425 1427 1442 1444 1446 1463 1465 1467 1483 1485 1487 1490
1492 1494 1509 1511 1513 1520 1522 1524 1541 1543 1545 1551 1553 1555 1573
1575 1577 1587 1589 1591 1594 1596 1598 1609 1611 1613 1628 1630 1632 1647
1649 1651 1669 1671 1673 1690 1692 1694 1709 1711 1713 1733 1735 1737 1755
1757 1759 1774 1776 1778 1781 1783 1785 1792 1794 1796 1812 1814 1816 1824
1826 1828 1839 1841 1843 1853 1855 1857 1864 1866 1868 1878 1880 1882 1902
1904 1906 1922 1924 1926 1943 1945 1947 1957 1959 1961 1967 1969 1971 1982
1984 1986 2001 2003 2005 2017 2019 2021 2028 2030 2032 2038 2040 2042 2057
2059 2061 2072 2074 2076 2093 2095 2097 2112 2114 2116 2129 2131 2133 2136
2138 2140 2158 2160 2162 2165 2167 2169 2184 2186 2188 2203 2205 2207 2220
2222 2224 2244 2246 2248 2256 2258 2260 2275 2277 2279 2297 2299 2309 2311
2313 2315 2326 2328 2330 2340 2342 2344 2359 2361 2363 2378 2380 2382 2397
2399 2401 2411 2413 2415 2426 2428 2430 2438 2440 2442 2455 2457 2459 2472
2474 2476 2491 2493 2495 2508 2510 2512 2527 2529 2531 2541 2543 2545 2553
2555 2557 2573 2575 2577 2580 2582 2584 2594 2596 2598 2604 2606 2608 2626
2628 2630 2642 2644 2646 2661 2663 2665 2672 2674 2684 2686 2688 2690 2701
2703 2705 2712 2714 2716 2734 2736 2738 2751 2753 2755 2761 2763 2765 2785
2787 2789 2795 2797 2799 2809 2811 2813 2820 2822 2824 2840 2842 2844 2856
2858 2860 2863 2865 2867 2877 2879 2881 2887 2889 2891 2904 2906 2908 2925
2927 2929 2941 2943 2945 2952 2954 2964 2966 2968 2970 2981 2983 2985 3000
3002 3004 3019 3021 3023 3033 3035 3037 3048 3050 3052 3070 3072 3074 3081
3083 3085 3091 3093 3095 3102 3104 3106 3124 3126 3128 3135 3137 3139 3146
3148 3150 3158 3160 3162 3177 3179 3181 3201 3203 3205 3211 3213 3215 3230
3232 3234 3237 3239 3241 3248 3250 3252 3267 3269 3271 3286 3288 3290 3307
3309 3311 3324 3326 3328 3343 3345 3347 3359 3361 3363 3369 3371 3373 3376
3378 3380 3395 3397 3407 3409 3411 3421 3423 3425 3427 3443 3445 3447 3467
3469 3471 3477 3479 3481 3484 3486 3488 3498 3500 3502 3513 3515 3517 3534
3536 3538 3553 3555 3557 3572 3574 3576 3592 3594 3596 3609 3611 3613 3631
3633 3635 3650 3652 3654 3669 3671 3673 3691 3693 3695 3710 3712 3714 3725
3727 3729 3746 3748 3750 3758 3760 3762 3778 3780 3790 3792 3794 3796 3807
3809 3811 3829 3831 3833 3849 3851 3853 3869 3871 3881 3883 3885 3887 3905
3907 3909 3915 3917 3919 3939 3941 3943 3951 3953 3955 3970 3972 3974 3986
3988 3990 4001 4003 4005 4023 4025 4027 4042 4044 4046 4061 4063 4065 4077
4079 4081 4096 4098 4100 4108 4110 4112 4118 4120 4122 4132 4134 4136 4154
4156 4158 4178 4180 4182 4197 4199 4201 4204 4206 4208 4215 4217 4219 4230
4232 4234 4245 4247 4249 4262 4264 4266 4277 4279 4281 4284 4286 4288 4305
4307 4309 4312 4314 4324 4326 4328 4330 4345 4347 4349 4367 4369 4371 4377
4379 4381 4394 4396 4406 4408 4410 4412 4428 4430 4432 4448 4450 4452 4463
4465 4467 4474 4476 4478 4490 4492 4494 4504 4506 4508 4528 4530 4532 4543
4545 4547 4557 4559 4561 4576 4578 4580 4593 4595 4597 4610 4612 4614 4627
4629 4631 4641 4643 4653 4655 4657 4667 4669 4671 4673 4691 4693 4695 4710
4712 4714 4724
[ MainChain ]
  34   46   48   49   50   52   72   73   74   76   94   95   96   98  116
 117  118  120  140  141  142  152  154  155  156  158  169  170  171  173
 181  182  183  185  201  202  203  205  223  224  225  227  243  244  245
 247  250  251  252  254  272  273  274  276  291  292  293  295  310  311
 312  314  317  318  319  321  332  333  334  336  339  340  341  343  350
 351  352  354  370  371  372  374  381  382  383  385  395  396  397  399
 411  412  413  415  427  428  429  431  446  447  448  450  456  457  458
 460  480  481  482  484  495  496  497  499  514  515  516  518  524  525
 526  528  538  539  540  542  549  550  551  553  573  574  575  577  588
 589  590  592  609  610  611  613  619  620  621  623  638  639  640  642
 660  661  662  664  679  680  681  683  698  699  700  702  713  714  715
 717  735  736  737  739  759  760  761  763  776  777  778  780  795  796
 797  799  814  815  816  818  836  837  838  840  851  852  853  855  865
 866  867  869  887  888  889  891  903  904  905  915  917  918  919  921
 938  939  940  942  954  955  956  958  968  969  970  972  992  993  994
 996 1007 1008 1009 1011 1031 1032 1033 1035 1043 1044 1045 1047 1059 1060
1061 1063 1076 1077 1078 1080 1087 1088 1089 1091 1111 1112 1113 1115 1130
1131 1132 1134 1142 1143 1144 1146 1159 1160 1161 1171 1173 1174 1175 1177
1193 1194 1195 1197 1213 1214 1215 1217 1229 1230 1231 1233 1251 1252 1253
1255 1270 1271 1272 1274 1291 1292 1293 1295 1311 1312 1313 1315 1325 1326
1327 1329 1345 1346 1347 1349 1362 1363 1364 1366 1374 1375 1376 1378 1386
1387 1388 1390 1401 1402 1403 1405 1423 1424 1425 1427 1442 1443 1444 1446
1463 1464 1465 1467 1483 1484 1485 1487 1490 1491 1492 1494 1509 1510 1511
1513 1520 1521 1522 1524 1541 1542 1543 1545 1551 1552 1553 1555 1573 1574
1575 1577 1587 1588 1589 1591 1594 1595 1596 1598 1609 1610 1611 1613 1628
1629 1630 1632 1647 1648 1649 1651 1669 1670 1671 1673 1690 1691 1692 1694
1709 1710 1711 1713 1733 1734 1735 1737 1755 1756 1757 1759 1774 1775 1776
1778 1781 1782 1783 1785 1792 1793 1794 1796 1812 1813 1814 1816 1824 1825
1826 1828 1839 1840 1841 1843 1853 1854 1855 1857 1864 1865 1866 1868 1878
1879 1880 1882 1902 1903 1904 1906 1922 1923 1924 1926 1943 1944 1945 1947
1957 1958 1959 1961 1967 1968 1969 1971 1982 1983 1984 1986 2001 2002 2003
2005 2017 2018 2019 2021 2028 2029 2030 2032 2038 2039 2040 2042 2057 2058
2059 2061 2072 2073 2074 2076 2093 2094 2095 2097 2112 2113 2114 2116 2129
2130 2131 2133 2136 2137 2138 2140 2158 2159 2160 2162 2165 2166 2167 2169
2184 2185 2186 2188 2203 2204 2205 2207 2220 2221 2222 2224 2244 2245 2246
2248 2256 2257 2258 2260 2275 2276 2277 2279 2297 2298 2299 2309 2311 2312
2313 2315 2326 2327 2328 2330 2340 2341 2342 2344 2359 2360 2361 2363 2378
2379 2380 2382 2397 2398 2399 2401 2411 2412 2413 2415 2426 2427 2428 2430
2438 2439 2440 2442 2455 2456 2457 2459 2472 2473 2474 2476 2491 2492 2493
2495 2508 2509 2510 2512 2527 2528 2529 2531 2541 2542 2543 2545 2553 2554
2555 2557 2573 2574 2575 2577 2580 2581 2582 2584 2594 2595 2596 2598 2604
2605 2606 2608 2626 2627 2628 2630 2642 2643 2644 2646 2661 2662 2663 2665
2672 2673 2674 2684 2686 2687 2688 2690 2701 2702 2703 2705 2712 2713 2714
2716 2734 2735 2736 2738 2751 2752 2753 2755 2761 2762 2763 2765 2785 2786
2787 2789 2795 2796 2797 2799 2809 2810 2811 2813 2820 2821 2822 2824 2840
2841 2842 2844 2856 2857 2858 2860 2863 2864 2865 2867 2877 2878 2879 2881
2887 2888 2889 2891 2904 2905 2906 2908 2925 2926 2927 2929 2941 2942 2943
2945 2952 2953 2954 2964 2966 2967 2968 2970 2981 2982 2983 2985 3000 3001
3002 3004 3019 3020 3021 3023 3033 3034 3035 3037 3048 3049 3050 3052 3070
3071 3072 3074 3081 3082 3083 3085 3091 3092 3093 3095 3102 3103 3104 3106
3124 3125 3126 3128 3135 3136 3137 3139 3146 3147 3148 3150 3158 3159 3160
3162 3177 3178 3179 3181 3201 3202 3203 3205 3211 3212 3213 3215 3230 3231
3232 3234 3237 3238 3239 3241 3248 3249 3250 3252 3267 3268 3269 3271 3286
3287 3288 3290 3307 3308 3309 3311 3324 3325 3326 3328 3343 3344 3345 3347
3359 3360 3361 3363 3369 3370 3371 3373 3376 3377 3378 3380 3395 3396 3397
3407 3409 3410 3411 3421 3423 3424 3425 3427 3443 3444 3445 3447 3467 3468
3469 3471 3477 3478 3479 3481 3484 3485 3486 3488 3498 3499 3500 3502 3513
3514 3515 3517 3534 3535 3536 3538 3553 3554 3555 3557 3572 3573 3574 3576
3592 3593 3594 3596 3609 3610 3611 3613 3631 3632 3633 3635 3650 3651 3652
3654 3669 3670 3671 3673 3691 3692 3693 3695 3710 3711 3712 3714 3725 3726
3727 3729 3746 3747 3748 3750 3758 3759 3760 3762 3778 3779 3780 3790 3792
3793 3794 3796 3807 3808 3809 3811 3829 3830 3831 3833 3849 3850 3851 3853
3869 3870 3871 3881 3883 3884 3885 3887 3905 3906 3907 3909 3915 3916 3917
3919 3939 3940 3941 3943 3951 3952 3953 3955 3970 3971 3972 3974 3986 3987
3988 3990 4001 4002 4003 4005 4023 4024 4025 4027 4042 4043 4044 4046 4061
4062 4063 4065 4077 4078 4079 4081 4096 4097 4098 4100 4108 4109 4110 4112
4118 4119 4120 4122 4132 4133 4134 4136 4154 4155 4156 4158 4178 4179 4180
4182 4197 4198 4199 4201 4204 4205 4206 4208 4215 4216 4217 4219 4230 4231
4232 4234 4245 4246 4247 4249 4262 4263 4264 4266 4277 4278 4279 4281 4284
4285 4286 4288 4305 4306 4307 4309 4312 4313 4314 4324 4326 4327 4328 4330
4345 4346 4347 4349 4367 4368 4369 4371 4377 4378 4379 4381 4394 4395 4396
4406 4408 4409 4410 4412 4428 4429 4430 4432 4448 4449 4450 4452 4463 4464
4465 4467 4474 4475 4476 4478 4490 4491 4492 4494 4504 4505 4506 4508 4528
4529 4530 4532 4543 4544 4545 4547 4557 4558 4559 4561 4576 4577 4578 4580
4593 4594 4595 4597 4610 4611 4612 4614 4627 4628 4629 4631 4641 4642 4643
4653 4655 4656 4657 4667 4669 4670 4671 4673 4691 4692 4693 4695 4710 4711
4712 4714 4724 4725 4726
[ MainChain+Cb ]
  34   43   46   48   49   50   52   54   72   73   74   76   78   94   95
  96   98  100  116  117  118  120  122  140  141  142  149  152  154  155
 156  158  160  169  170  171  173  175  181  182  183  185  187  201  202
 203  205  207  223  224  225  227  229  243  244  245  247  250  251  252
 254  256  272  273  274  276  278  291  292  293  295  297  310  311  312
 314  317  318  319  321  323  332  333  334  336  339  340  341  343  345
 350  351  352  354  356  370  371  372  374  376  381  382  383  385  387
 395  396  397  399  401  411  412  413  415  417  427  428  429  431  433
 446  447  448  450  452  456  457  458  460  462  480  481  482  484  486
 495  496  497  499  501  514  515  516  518  520  524  525  526  528  530
 538  539  540  542  544  549  550  551  553  555  573  574  575  577  579
 588  589  590  592  594  609  610  611  613  615  619  620  621  623  625
 638  639  640  642  644  660  661  662  664  666  679  680  681  683  685
 698  699  700  702  704  713  714  715  717  719  735  736  737  739  741
 759  760  761  763  765  776  777  778  780  782  795  796  797  799  801
 814  815  816  818  820  836  837  838  840  842  851  852  853  855  857
 865  866  867  869  871  887  888  889  891  893  903  904  905  912  915
 917  918  919  921  923  938  939  940  942  944  954  955  956  958  960
 968  969  970  972  974  992  993  994  996  998 1007 1008 1009 1011 1013
1031 1032 1033 1035 1037 1043 1044 1045 1047 1049 1059 1060 1061 1063 1065
1076 1077 1078 1080 1082 1087 1088 1089 1091 1093 1111 1112 1113 1115 1117
1130 1131 1132 1134 1136 1142 1143 1144 1146 1148 1159 1160 1161 1168 1171
1173 1174 1175 1177 1179 1193 1194 1195 1197 1199 1213 1214 1215 1217 1219
1229 1230 1231 1233 1235 1251 1252 1253 1255 1257 1270 1271 1272 1274 1276
1291 1292 1293 1295 1297 1311 1312 1313 1315 1317 1325 1326 1327 1329 1331
1345 1346 1347 1349 1351 1362 1363 1364 1366 1368 1374 1375 1376 1378 1380
1386 1387 1388 1390 1392 1401 1402 1403 1405 1407 1423 1424 1425 1427 1429
1442 1443 1444 1446 1448 1463 1464 1465 1467 1469 1483 1484 1485 1487 1490
1491 1492 1494 1496 1509 1510 1511 1513 1515 1520 1521 1522 1524 1526 1541
1542 1543 1545 1547 1551 1552 1553 1555 1557 1573 1574 1575 1577 1579 1587
1588 1589 1591 1594 1595 1596 1598 1600 1609 1610 1611 1613 1615 1628 1629
1630 1632 1634 1647 1648 1649 1651 1653 1669 1670 1671 1673 1675 1690 1691
1692 1694 1696 1709 1710 1711 1713 1715 1733 1734 1735 1737 1739 1755 1756
1757 1759 1761 1774 1775 1776 1778 1781 1782 1783 1785 1787 1792 1793 1794
1796 1798 1812 1813 1814 1816 1818 1824 1825 1826 1828 1830 1839 1840 1841
1843 1845 1853 1854 1855 1857 1859 1864 1865 1866 1868 1870 1878 1879 1880
1882 1884 1902 1903 1904 1906 1908 1922 1923 1924 1926 1928 1943 1944 1945
1947 1949 1957 1958 1959 1961 1963 1967 1968 1969 1971 1973 1982 1983 1984
1986 1988 2001 2002 2003 2005 2007 2017 2018 2019 2021 2023 2028 2029 2030
2032 2034 2038 2039 2040 2042 2044 2057 2058 2059 2061 2063 2072 2073 2074
2076 2078 2093 2094 2095 2097 2099 2112 2113 2114 2116 2118 2129 2130 2131
2133 2136 2137 2138 2140 2142 2158 2159 2160 2162 2165 2166 2167 2169 2171
2184 2185 2186 2188 2190 2203 2204 2205 2207 2209 2220 2221 2222 2224 2226
2244 2245 2246 2248 2250 2256 2257 2258 2260 2262 2275 2276 2277 2279 2281
2297 2298 2299 2306 2309 2311 2312 2313 2315 2317 2326 2327 2328 2330 2332
2340 2341 2342 2344 2346 2359 2360 2361 2363 2365 2378 2379 2380 2382 2384
2397 2398 2399 2401 2403 2411 2412 2413 2415 2417 2426 2427 2428 2430 2432
2438 2439 2440 2442 2444 2455 2456 2457 2459 2461 2472 2473 2474 2476 2478
2491 2492 2493 2495 2497 2508 2509 2510 2512 2514 2527 2528 2529 2531 2533
2541 2542 2543 2545 2547 2553 2554 2555 2557 2559 2573 2574 2575 2577 2580
2581 2582 2584 2586 2594 2595 2596 2598 2600 2604 2605 2606 2608 2610 2626
2627 2628 2630 2632 2642 2643 2644 2646 2648 2661 2662 2663 2665 2667 2672
2673 2674 2681 2684 2686 2687 2688 2690 2692 2701 2702 2703 2705 2707 2712
2713 2714 2716 2718 2734 2735 2736 2738 2740 2751 2752 2753 2755 2757 2761
2762 2763 2765 2767 2785 2786 2787 2789 2791 2795 2796 2797 2799 2801 2809
2810 2811 2813 2815 2820 2821 2822 2824 2826 2840 2841 2842 2844 2846 2856
2857 2858 2860 2863 2864 2865 2867 2869 2877 2878 2879 2881 2883 2887 2888
2889 2891 2893 2904 2905 2906 2908 2910 2925 2926 2927 2929 2931 2941 2942
2943 2945 2947 2952 2953 2954 2961 2964 2966 2967 2968 2970 2972 2981 2982
2983 2985 2987 3000 3001 3002 3004 3006 3019 3020 3021 3023 3025 3033 3034
3035 3037 3039 3048 3049 3050 3052 3054 3070 3071 3072 3074 3076 3081 3082
3083 3085 3087 3091 3092 3093 3095 3097 3102 3103 3104 3106 3108 3124 3125
3126 3128 3130 3135 3136 3137 3139 3141 3146 3147 3148 3150 3152 3158 3159
3160 3162 3164 3177 3178 3179 3181 3183 3201 3202 3203 3205 3207 3211 3212
3213 3215 3217 3230 3231 3232 3234 3237 3238 3239 3241 3243 3248 3249 3250
3252 3254 3267 3268 3269 3271 3273 3286 3287 3288 3290 3292 3307 3308 3309
3311 3313 3324 3325 3326 3328 3330 3343 3344 3345 3347 3349 3359 3360 3361
3363 3365 3369 3370 3371 3373 3376 3377 3378 3380 3382 3395 3396 3397 3404
3407 3409 3410 3411 3418 3421 3423 3424 3425 3427 3429 3443 3444 3445 3447
3449 3467 3468 3469 3471 3473 3477 3478 3479 3481 3484 3485 3486 3488 3490
3498 3499 3500 3502 3504 3513 3514 3515 3517 3519 3534 3535 3536 3538 3540
3553 3554 3555 3557 3559 3572 3573 3574 3576 3578 3592 3593 3594 3596 3598
3609 3610 3611 3613 3615 3631 3632 3633 3635 3637 3650 3651 3652 3654 3656
3669 3670 3671 3673 3675 3691 3692 3693 3695 3697 3710 3711 3712 3714 3716
3725 3726 3727 3729 3731 3746 3747 3748 3750 3752 3758 3759 3760 3762 3764
3778 3779 3780 3787 3790 3792 3793 3794 3796 3798 3807 3808 3809 3811 3813
3829 3830 3831 3833 3835 3849 3850 3851 3853 3855 3869 3870 3871 3878 3881
3883 3884 3885 3887 3889 3905 3906 3907 3909 3911 3915 3916 3917 3919 3921
3939 3940 3941 3943 3945 3951 3952 3953 3955 3957 3970 3971 3972 3974 3976
3986 3987 3988 3990 3992 4001 4002 4003 4005 4007 4023 4024 4025 4027 4029
4042 4043 4044 4046 4048 4061 4062 4063 4065 4067 4077 4078 4079 4081 4083
4096 4097 4098 4100 4102 4108 4109 4110 4112 4114 4118 4119 4120 4122 4124
4132 4133 4134 4136 4138 4154 4155 4156 4158 4160 4178 4179 4180 4182 4184
4197 4198 4199 4201 4204 4205 4206 4208 4210 4215 4216 4217 4219 4221 4230
4231 4232 4234 4236 4245 4246 4247 4249 4251 4262 4263 4264 4266 4268 4277
4278 4279 4281 4284 4285 4286 4288 4290 4305 4306 4307 4309 4312 4313 4314
4321 4324 4326 4327 4328 4330 4332 4345 4346 4347 4349 4351 4367 4368 4369
4371 4373 4377 4378 4379 4381 4383 4394 4395 4396 4403 4406 4408 4409 4410
4412 4414 4428 4429 4430 4432 4434 4448 4449 4450 4452 4454 4463 4464 4465
4467 4469 4474 4475 4476 4478 4480 4490 4491 4492 4494 4496 4504 4505 4506
4508 4510 4528 4529 4530 4532 4534 4543 4544 4545 4547 4549 4557 4558 4559
4561 4563 4576 4577 4578 4580 4582 4593 4594 4595 4597 4599 4610 4611 4612
4614 4616 4627 4628 4629 4631 4633 4641 4642 4643 4650 4653 4655 4656 4657
4664 4667 4669 4670 4671 4673 4675 4691 4692 4693 4695 4697 4710 4711 4712
4714 4716 4724 4725 4726
[ MainChain+H ]
  34   35   36   46   48   49   50   51   52   72   73   74   75   76   94
  95   96   97   98  116  117  118  119  120  140  141  142  152  154  155
 156  157  158  169  170  171  172  173  181  182  183  184  185  201  202
 203  204  205  223  224  225  226  227  243  244  245  246  247  250  251
 252  253  254  272  273  274  275  276  291  292  293  294  295  310  311
 312  313  314  317  318  319  320  321  332  333  334  335  336  339  340
 341  342  343  350  351  352  353  354  370  371  372  373  374  381  382
 383  384  385  395  396  397  398  399  411  412  413  414  415  427  428
 429  430  431  446  447  448  449  450  456  457  458  459  460  480  481
 482  483  484  495  496  497  498  499  514  515  516  517  518  524  525
 526  527  528  538  539  540  541  542  549  550  551  552  553  573  574
 575  576  577  588  589  590  591  592  609  610  611  612  613  619  620
 621  622  623  638  639  640  641  642  660  661  662  663  664  679  680
 681  682  683  698  699  700  701  702  713  714  715  716  717  735  736
 737  738  739  759  760  761  762  763  776  777  778  779  780  795  796
 797  798  799  814  815  816  817  818  836  837  838  839  840  851  852
 853  854  855  865  866  867  868  869  887  888  889  890  891  903  904
 905  915  917  918  919  920  921  938  939  940  941  942  954  955  956
 957  958  968  969  970  971  972  992  993  994  995  996 1007 1008 1009
1010 1011 1031 1032 1033 1034 1035 1043 1044 1045 1046 1047 1059 1060 1061
1062 1063 1076 1077 1078 1079 1080 1087 1088 1089 1090 1091 1111 1112 1113
1114 1115 1130 1131 1132 1133 1134 1142 1143 1144 1145 1146 1159 1160 1161
1171 1173 1174 1175 1176 1177 1193 1194 1195 1196 1197 1213 1214 1215 1216
1217 1229 1230 1231 1232 1233 1251 1252 1253 1254 1255 1270 1271 1272 1273
1274 1291 1292 1293 1294 1295 1311 1312 1313 1314 1315 1325 1326 1327 1328
1329 1345 1346 1347 1348 1349 1362 1363 1364 1365 1366 1374 1375 1376 1377
1378 1386 1387 1388 1389 1390 1401 1402 1403 1404 1405 1423 1424 1425 1426
1427 1442 1443 1444 1445 1446 1463 1464 1465 1466 1467 1483 1484 1485 1486
1487 1490 1491 1492 1493 1494 1509 1510 1511 1512 1513 1520 1521 1522 1523
1524 1541 1542 1543 1544 1545 1551 1552 1553 1554 1555 1573 1574 1575 1576
1577 1587 1588 1589 1590 1591 1594 1595 1596 1597 1598 1609 1610 1611 1612
1613 1628 1629 1630 1631 1632 1647 1648 1649 1650 1651 1669 1670 1671 1672
1673 1690 1691 1692 1693 1694 1709 1710 1711 1712 1713 1733 1734 1735 1736
1737 1755 1756 1757 1758 1759 1774 1775 1776 1777 1778 1781 1782 1783 1784
1785 1792 1793 1794 1795 1796 1812 1813 1814 1815 1816 1824 1825 1826 1827
1828 1839 1840 1841 1842 1843 1853 1854 1855 1856 1857 1864 1865 1866 1867
1868 1878 1879 1880 1881 1882 1902 1903 1904 1905 1906 1922 1923 1924 1925
1926 1943 1944 1945 1946 1947 1957 1958 1959 1960 1961 1967 1968 1969 1970
1971 1982 1983 1984 1985 1986 2001 2002 2003 2004 2005 2017 2018 2019 2020
2021 2028 2029 2030 2031 2032 2038 2039 2040 2041 2042 2057 2058 2059 2060
2061 2072 2073 2074 2075 2076 2093 2094 2095 2096 2097 2112 2113 2114 2115
2116 2129 2130 2131 2132 2133 2136 2137 2138 2139 2140 2158 2159 2160 2161
2162 2165 2166 2167 2168 2169 2184 2185 2186 2187 2188 2203 2204 2205 2206
2207 2220 2221 2222 2223 2224 2244 2245 2246 2247 2248 2256 2257 2258 2259
2260 2275 2276 2277 2278 2279 2297 2298 2299 2309 2311 2312 2313 2314 2315
2326 2327 2328 2329 2330 2340 2341 2342 2343 2344 2359 2360 2361 2362 2363
2378 2379 2380 2381 2382 2397 2398 2399 2400 2401 2411 2412 2413 2414 2415
2426 2427 2428 2429 2430 2438 2439 2440 2441 2442 2455 2456 2457 2458 2459
2472 2473 2474 2475 2476 2491 2492 2493 2494 2495 2508 2509 2510 2511 2512
2527 2528 2529 2530 2531 2541 2542 2543 2544 2545 2553 2554 2555 2556 2557
2573 2574 2575 2576 2577 2580 2581 2582 2583 2584 2594 2595 2596 2597 2598
2604 2605 2606 2607 2608 2626 2627 2628 2629 2630 2642 2643 2644 2645 2646
2661 2662 2663 2664 2665 2672 2673 2674 2684 2686 2687 2688 2689 2690 2701
2702 2703 2704 2705 2712 2713 2714 2715 2716 2734 2735 2736 2737 2738 2751
2752 2753 2754 2755 2761 2762 2763 2764 2765 2785 2786 2787 2788 2789 2795
2796 2797 2798 2799 2809 2810 2811 2812 2813 2820 2821 2822 2823 2824 2840
2841 2842 2843 2844 2856 2857 2858 2859 2860 2863 2864 2865 2866 2867 2877
2878 2879 2880 2881 2887 2888 2889 2890 2891 2904 2905 2906 2907 2908 2925
2926 2927 2928 2929 2941 2942 2943 2944 2945 2952 2953 2954 2964 2966 2967
2968 2969 2970 2981 2982 2983 2984 2985 3000 3001 3002 3003 3004 3019 3020
3021 3022 3023 3033 3034 3035 3036 3037 3048 3049 3050 3051 3052 3070 3071
3072 3073 3074 3081 3082 3083 3084 3085 3091 3092 3093 3094 3095 3102 3103
3104 3105 3106 3124 3125 3126 3127 3128 3135 3136 3137 3138 3139 3146 3147
3148 3149 3150 3158 3159 3160 3161 3162 3177 3178 3179 3180 3181 3201 3202
3203 3204 3205 3211 3212 3213 3214 3215 3230 3231 3232 3233 3234 3237 3238
3239 3240 3241 3248 3249 3250 3251 3252 3267 3268 3269 3270 3271 3286 3287
3288 3289 3290 3307 3308 3309 3310 3311 3324 3325 3326 3327 3328 3343 3344
3345 3346 3347 3359 3360 3361 3362 3363 3369 3370 3371 3372 3373 3376 3377
3378 3379 3380 3395 3396 3397 3407 3409 3410 3411 3421 3423 3424 3425 3426
3427 3443 3444 3445 3446 3447 3467 3468 3469 3470 3471 3477 3478 3479 3480
3481 3484 3485 3486 3487 3488 3498 3499 3500 3501 3502 3513 3514 3515 3516
3517 3534 3535 3536 3537 3538 3553 3554 3555 3556 3557 3572 3573 3574 3575
3576 3592 3593 3594 3595 3596 3609 3610 3611 3612 3613 3631 3632 3633 3634
3635 3650 3651 3652 3653 3654 3669 3670 3671 3672 3673 3691 3692 3693 3694
3695 3710 3711 3712 3713 3714 3725 3726 3727 3728 3729 3746 3747 3748 3749
3750 3758 3759 3760 3761 3762 3778 3779 3780 3790 3792 3793 3794 3795 3796
3807 3808 3809 3810 3811 3829 3830 3831 3832 3833 3849 3850 3851 3852 3853
3869 3870 3871 3881 3883 3884 3885 3886 3887 3905 3906 3907 3908 3909 3915
3916 3917 3918 3919 3939 3940 3941 3942 3943 3951 3952 3953 3954 3955 3970
3971 3972 3973 3974 3986 3987 3988 3989 3990 4001 4002 4003 4004 4005 4023
4024 4025 4026 4027 4042 4043 4044 4045 4046 4061 4062 4063 4064 4065 4077
4078 4079 4080 4081 4096 4097 4098 4099 4100 4108 4109 4110 4111 4112 4118
4119 4120 4121 4122 4132 4133 4134 4135 4136 4154 4155 4156 4157 4158 4178
4179 4180 4181 4182 4197 4198 4199 4200 4201 4204 4205 4206 4207 4208 4215
4216 4217 4218 4219 4230 4231 4232 4233 4234 4245 4246 4247 4248 4249 4262
4263 4264 4265 4266 4277 4278 4279 4280 4281 4284 4285 4286 4287 4288 4305
4306 4307 4308 4309 4312 4313 4314 4324 4326 4327 4328 4329 4330 4345 4346
4347 4348 4349 4367 4368 4369 4370 4371 4377 4378 4379 4380 4381 4394 4395
4396 4406 4408 4409 4410 4411 4412 4428 4429 4430 4431 4432 4448 4449 4450
4451 4452 4463 4464 4465 4466 4467 4474 4475 4476 4477 4478 4490 4491 4492
4493 4494 4504 4505 4506 4507 4508 4528 4529 4530 4531 4532 4543 4544 4545
4546 4547 4557 4558 4559 4560 4561 4576 4577 4578 4579 4580 4593 4594 4595
4596 4597 4610 4611 4612 4613 4614 4627 4628 4629 4630 4631 4641 4642 4643
4653 4655 4656 4657 4667 4669 4670 4671 4672 4673 4691 4692 4693 4694 4695
4710 4711 4712 4713 4714 4724 4725 4726
[ SideChain ]
  37   38   39   40   41   42   43   44   45   47   53   54   55   56   57
  58   59   60   61   62   63   64   65   66   67   68   69   70   71   77
  78   79   80   81   82   83   84   85   86   87   88   89   90   91   92
  93   99  100  101  102  103  104  105  106  107  108  109  110  111  112
 113  114  115  121  122  123  124  125  126  127  128  129  130  131  132
 133  134  135  136  137  138  139  143  144  145  146  147  148  149  150
 151  153  159  160  161  162  163  164  165  166  167  168  174  175  176
 177  178  179  180  186  187  188  189  190  191  192  193  194  195  196
 197  198  199  200  206  207  208  209  210  211  212  213  214  215  216
 217  218  219  220  221  222  228  229  230  231  232  233  234  235  236
 237  238  239  240  241  242  248  249  255  256  257  258  259  260  261
 262  263  264  265  266  267  268  269  270  271  277  278  279  280  281
 282  283  284  285  286  287  288  289  290  296  297  298  299  300  301
 302  303  304  305  306  307  308  309  315  316  322  323  324  325  326
 327  328  329  330  331  337  338  344  345  346  347  348  349  355  356
 357  358  359  360  361  362  363  364  365  366  367  368  369  375  376
 377  378  379  380  386  387  388  389  390  391  392  393  394  400  401
 402  403  404  405  406  407  408  409  410  416  417  418  419  420  421
 422  423  424  425  426  432  433  434  435  436  437  438  439  440  441
 442  443  444  445  451  452  453  454  455  461  462  463  464  465  466
 467  468  469  470  471  472  473  474  475  476  477  478  479  485  486
 487  488  489  490  491  492  493  494  500  501  502  503  504  505  506
 507  508  509  510  511  512  513  519  520  521  522  523  529  530  531
 532  533  534  535  536  537  543  544  545  546  547  548  554  555  556
 557  558  559  560  561  562  563  564  565  566  567  568  569  570  571
 572  578  579  580  581  582  583  584  585  586  587  593  594  595  596
 597  598  599  600  601  602  603  604  605  606  607  608  614  615  616
 617  618  624  625  626  627  628  629  630  631  632  633  634  635  636
 637  643  644  645  646  647  648  649  650  651  652  653  654  655  656
 657  658  659  665  666  667  668  669  670  671  672  673  674  675  676
 677  678  684  685  686  687  688  689  690  691  692  693  694  695  696
 697  703  704  705  706  707  708  709  710  711  712  718  719  720  721
 722  723  724  725  726  727  728  729  730  731  732  733  734  740  741
 742  743  744  745  746  747  748  749  750  751  752  753  754  755  756
 757  758  764  765  766  767  768  769  770  771  772  773  774  775  781
 782  783  784  785  786  787  788  789  790  791  792  793  794  800  801
 802  803  804  805  806  807  808  809  810  811  812  813  819  820  821
 822  823  824  825  826  827  828  829  830  831  832  833  834  835  841
 842  843  844  845  846  847  848  849  850  856  857  858  859  860  861
 862  863  864  870  871  872  873  874  875  876  877  878  879  880  881
 882  883  884  885  886  892  893  894  895  896  897  898  899  900  901
 902  906  907  908  909  910  911  912  913  914  916  922  923  924  925
 926  927  928  929  930  931  932  933  934  935  936  937  943  944  945
 946  947  948  949  950  951  952  953  959  960  961  962  963  964  965
 966  967  973  974  975  976  977  978  979  980  981  982  983  984  985
 986  987  988  989  990  991  997  998  999 1000 1001 1002 1003 1004 1005
1006 1012 1013 1014 1015 1016 1017 1018 1019 1020 1021 1022 1023 1024 1025
1026 1027 1028 1029 1030 1036 1037 1038 1039 1040 1041 1042 1048 1049 1050
1051 1052 1053 1054 1055 1056 1057 1058 1064 1065 1066 1067 1068 1069 1070
1071 1072 1073 1074 1075 1081 1082 1083 1084 1085 1086 1092 1093 1094 1095
1096 1097 1098 1099 1100 1101 1102 1103 1104 1105 1106 1107 1108 1109 1110
1116 1117 1118 1119 1120 1121 1122 1123 1124 1125 1126 1127 1128 1129 1135
1136 1137 1138 1139 1140 1141 1147 1148 1149 1150 1151 1152 1153 1154 1155
1156 1157 1158 1162 1163 1164 1165 1166 1167 1168 1169 1170 1172 1178 1179
1180 1181 1182 1183 1184 1185 1186 1187 1188 1189 1190 1191 1192 1198 1199
1200 1201 1202 1203 1204 1205 1206 1207 1208 1209 1210 1211 1212 1218 1219
1220 1221 1222 1223 1224 1225 1226 1227 1228 1234 1235 1236 1237 1238 1239
1240 1241 1242 1243 1244 1245 1246 1247 1248 1249 1250 1256 1257 1258 1259
1260 1261 1262 1263 1264 1265 1266 1267 1268 1269 1275 1276 1277 1278 1279
1280 1281 1282 1283 1284 1285 1286 1287 1288 1289 1290 1296 1297 1298 1299
1300 1301 1302 1303 1304 1305 1306 1307 1308 1309 1310 1316 1317 1318 1319
1320 1321 1322 1323 1324 1330 1331 1332 1333 1334 1335 1336 1337 1338 1339
1340 1341 1342 1343 1344 1350 1351 1352 1353 1354 1355 1356 1357 1358 1359
1360 1361 1367 1368 1369 1370 1371 1372 1373 1379 1380 1381 1382 1383 1384
1385 1391 1392 1393 1394 1395 1396 1397 1398 1399 1400 1406 1407 1408 1409
1410 1411 1412 1413 1414 1415 1416 1417 1418 1419 1420 1421 1422 1428 1429
1430 1431 1432 1433 1434 1435 1436 1437 1438 1439 1440 1441 1447 1448 1449
1450 1451 1452 1453 1454 1455 1456 1457 1458 1459 1460 1461 1462 1468 1469
1470 1471 1472 1473 1474 1475 1476 1477 1478 1479 1480 1481 1482 1488 1489
1495 1496 1497 1498 1499 1500 1501 1502 1503 1504 1505 1506 1507 1508 1514
1515 1516 1517 1518 1519 1525 1526 1527 1528 1529 1530 1531 1532 1533 1534
1535 1536 1537 1538 1539 1540 1546 1547 1548 1549 1550 1556 1557 1558 1559
1560 1561 1562 1563 1564 1565 1566 1567 1568 1569 1570 1571 1572 1578 1579
1580 1581 1582 1583 1584 1585 1586 1592 1593 1599 1600 1601 1602 1603 1604
1605 1606 1607 1608 1614 1615 1616 1617 1618 1619 1620 1621 1622 1623 1624
1625 1626 1627 1633 1634 1635 1636 1637 1638 1639 1640 1641 1642 1643 1644
1645 1646 1652 1653 1654 1655 1656 1657 1658 1659 1660 1661 1662 1663 1664
1665 1666 1667 1668 1674 1675 1676 1677 1678 1679 1680 1681 1682 1683 1684
1685 1686 1687 1688 1689 1695 1696 1697 1698 1699 1700 1701 1702 1703 1704
1705 1706 1707 1708 1714 1715 1716 1717 1718 1719 1720 1721 1722 1723 1724
1725 1726 1727 1728 1729 1730 1731 1732 1738 1739 1740 1741 1742 1743 1744
1745 1746 1747 1748 1749 1750 1751 1752 1753 1754 1760 1761 1762 1763 1764
1765 1766 1767 1768 1769 1770 1771 1772 1773 1779 1780 1786 1787 1788 1789
1790 1791 1797 1798 1799 1800 1801 1802 1803 1804 1805 1806 1807 1808 1809
1810 1811 1817 1818 1819 1820 1821 1822 1823 1829 1830 1831 1832 1833 1834
1835 1836 1837 1838 1844 1845 1846 1847 1848 1849 1850 1851 1852 1858 1859
1860 1861 1862 1863 1869 1870 1871 1872 1873 1874 1875 1876 1877 1883 1884
1885 1886 1887 1888 1889 1890 1891 1892 1893 1894 1895 1896 1897 1898 1899
1900 1901 1907 1908 1909 1910 1911 1912 1913 1914 1915 1916 1917 1918 1919
1920 1921 1927 1928 1929 1930 1931 1932 1933 1934 1935 1936 1937 1938 1939
1940 1941 1942 1948 1949 1950 1951 1952 1953 1954 1955 1956 1962 1963 1964
1965 1966 1972 1973 1974 1975 1976 1977 1978 1979 1980 1981 1987 1988 1989
1990 1991 1992 1993 1994 1995 1996 1997 1998 1999 2000 2006 2007 2008 2009
2010 2011 2012 2013 2014 2015 2016 2022 2023 2024 2025 2026 2027 2033 2034
2035 2036 2037 2043 2044 2045 2046 2047 2048 2049 2050 2051 2052 2053 2054
2055 2056 2062 2063 2064 2065 2066 2067 2068 2069 2070 2071 2077 2078 2079
2080 2081 2082 2083 2084 2085 2086 2087 2088 2089 2090 2091 2092 2098 2099
2100 2101 2102 2103 2104 2105 2106 2107 2108 2109 2110 2111 2117 2118 2119
2120 2121 2122 2123 2124 2125 2126 2127 2128 2134 2135 2141 2142 2143 2144
2145 2146 2147 2148 2149 2150 2151 2152 2153 2154 2155 2156 2157 2163 2164
2170 2171 2172 2173 2174 2175 2176 2177 2178 2179 2180 2181 2182 2183 2189
2190 2191 2192 2193 2194 2195 2196 2197 2198 2199 2200 2201 2202 2208 2209
2210 2211 2212 2213 2214 2215 2216 2217 2218 2219 2225 2226 2227 2228 2229
2230 2231 2232 2233 2234 2235 2236 2237 2238 2239 2240 2241 2242 2243 2249
2250 2251 2252 2253 2254 2255 2261 2262 2263 2264 2265 2266 2267 2268 2269
2270 2271 2272 2273 2274 2280 2281 2282 2283 2284 2285 2286 2287 2288 2289
2290 2291 2292 2293 2294 2295 2296 2300 2301 2302 2303 2304 2305 2306 2307
2308 2310 2316 2317 2318 2319 2320 2321 2322 2323 2324 2325 2331 2332 2333
2334 2335 2336 2337 2338 2339 2345 2346 2347 2348 2349 2350 2351 2352 2353
2354 2355 2356 2357 2358 2364 2365 2366 2367 2368 2369 2370 2371 2372 2373
2374 2375 2376 2377 2383 2384 2385 2386 2387 2388 2389 2390 2391 2392 2393
2394 2395 2396 2402 2403 2404 2405 2406 2407 2408 2409 2410 2416 2417 2418
2419 2420 2421 2422 2423 2424 2425 2431 2432 2433 2434 2435 2436 2437 2443
2444 2445 2446 2447 2448 2449 2450 2451 2452 2453 2454 2460 2461 2462 2463
2464 2465 2466 2467 2468 2469 2470 2471 2477 2478 2479 2480 2481 2482 2483
2484 2485 2486 2487 2488 2489 2490 2496 2497 2498 2499 2500 2501 2502 2503
2504 2505 2506 2507 2513 2514 2515 2516 2517 2518 2519 2520 2521 2522 2523
2524 2525 2526 2532 2533 2534 2535 2536 2537 2538 2539 2540 2546 2547 2548
2549 2550 2551 2552 2558 2559 2560 2561 2562 2563 2564 2565 2566 2567 2568
2569 2570 2571 2572 2578 2579 2585 2586 2587 2588 2589 2590 2591 2592 2593
2599 2600 2601 2602 2603 2609 2610 2611 2612 2613 2614 2615 2616 2617 2618
2619 2620 2621 2622 2623 2624 2625 2631 2632 2633 2634 2635 2636 2637 2638
2639 2640 2641 2647 2648 2649 2650 2651 2652 2653 2654 2655 2656 2657 2658
2659 2660 2666 2667 2668 2669 2670 2671 2675 2676 2677 2678 2679 2680 2681
2682 2683 2685 2691 2692 2693 2694 2695 2696 2697 2698 2699 2700 2706 2707
2708 2709 2710 2711 2717 2718 2719 2720 2721 2722 2723 2724 2725 2726 2727
2728 2729 2730 2731 2732 2733 2739 2740 2741 2742 2743 2744 2745 2746 2747
2748 2749 2750 2756 2757 2758 2759 2760 2766 2767 2768 2769 2770 2771 2772
2773 2774 2775 2776 2777 2778 2779 2780 2781 2782 2783 2784 2790 2791 2792
2793 2794 2800 2801 2802 2803 2804 2805 2806 2807 2808 2814 2815 2816 2817
2818 2819 2825 2826 2827 2828 2829 2830 2831 2832 2833 2834 2835 2836 2837
2838 2839 2845 2846 2847 2848 2849 2850 2851 2852 2853 2854 2855 2861 2862
2868 2869 2870 2871 2872 2873 2874 2875 2876 2882 2883 2884 2885 2886 2892
2893 2894 2895 2896 2897 2898 2899 2900 2901 2902 2903 2909 2910 2911 2912
2913 2914 2915 2916 2917 2918 2919 2920 2921 2922 2923 2924 2930 2931 2932
2933 2934 2935 2936 2937 2938 2939 2940 2946 2947 2948 2949 2950 2951 2955
2956 2957 2958 2959 2960 2961 2962 2963 2965 2971 2972 2973 2974 2975 2976
2977 2978 2979 2980 2986 2987 2988 2989 2990 2991 2992 2993 2994 2995 2996
2997 2998 2999 3005 3006 3007 3008 3009 3010 3011 3012 3013 3014 3015 3016
3017 3018 3024 3025 3026 3027 3028 3029 3030 3031 3032 3038 3039 3040 3041
3042 3043 3044 3045 3046 3047 3053 3054 3055 3056 3057 3058 3059 3060 3061
3062 3063 3064 3065 3066 3067 3068 3069 3075 3076 3077 3078 3079 3080 3086
3087 3088 3089 3090 3096 3097 3098 3099 3100 3101 3107 3108 3109 3110 3111
3112 3113 3114 3115 3116 3117 3118 3119 3120 3121 3122 3123 3129 3130 3131
3132 3133 3134 3140 3141 3142 3143 3144 3145 3151 3152 3153 3154 3155 3156
3157 3163 3164 3165 3166 3167 3168 3169 3170 3171 3172 3173 3174 3175 3176
3182 3183 3184 3185 3186 3187 3188 3189 3190 3191 3192 3193 3194 3195 3196
3197 3198 3199 3200 3206 3207 3208 3209 3210 3216 3217 3218 3219 3220 3221
3222 3223 3224 3225 3226 3227 3228 3229 3235 3236 3242 3243 3244 3245 3246
3247 3253 3254 3255 3256 3257 3258 3259 3260 3261 3262 3263 3264 3265 3266
3272 3273 3274 3275 3276 3277 3278 3279 3280 3281 3282 3283 3284 3285 3291
3292 3293 3294 3295 3296 3297 3298 3299 3300 3301 3302 3303 3304 3305 3306
3312 3313 3314 3315 3316 3317 3318 3319 3320 3321 3322 3323 3329 3330 3331
3332 3333 3334 3335 3336 3337 3338 3339 3340 3341 3342 3348 3349 3350 3351
3352 3353 3354 3355 3356 3357 3358 3364 3365 3366 3367 3368 3374 3375 3381
3382 3383 3384 3385 3386 3387 3388 3389 3390 3391 3392 3393 3394 3398 3399
3400 3401 3402 3403 3404 3405 3406 3408 3412 3413 3414 3415 3416 3417 3418
3419 3420 3422 3428 3429 3430 3431 3432 3433 3434 3435 3436 3437 3438 3439
3440 3441 3442 3448 3449 3450 3451 3452 3453 3454 3455 3456 3457 3458 3459
3460 3461 3462 3463 3464 3465 3466 3472 3473 3474 3475 3476 3482 3483 3489
3490 3491 3492 3493 3494 3495 3496 3497 3503 3504 3505 3506 3507 3508 3509
3510 3511 3512 3518 3519 3520 3521 3522 3523 3524 3525 3526 3527 3528 3529
3530 3531 3532 3533 3539 3540 3541 3542 3543 3544 3545 3546 3547 3548 3549
3550 3551 3552 3558 3559 3560 3561 3562 3563 3564 3565 3566 3567 3568 3569
3570 3571 3577 3578 3579 3580 3581 3582 3583 3584 3585 3586 3587 3588 3589
3590 3591 3597 3598 3599 3600 3601 3602 3603 3604 3605 3606 3607 3608 3614
3615 3616 3617 3618 3619 3620 3621 3622 3623 3624 3625 3626 3627 3628 3629
3630 3636 3637 3638 3639 3640 3641 3642 3643 3644 3645 3646 3647 3648 3649
3655 3656 3657 3658 3659 3660 3661 3662 3663 3664 3665 3666 3667 3668 3674
3675 3676 3677 3678 3679 3680 3681 3682 3683 3684 3685 3686 3687 3688 3689
3690 3696 3697 3698 3699 3700 3701 3702 3703 3704 3705 3706 3707 3708 3709
3715 3716 3717 3718 3719 3720 3721 3722 3723 3724 3730 3731 3732 3733 3734
3735 3736 3737 3738 3739 3740 3741 3742 3743 3744 3745 3751 3752 3753 3754
3755 3756 3757 3763 3764 3765 3766 3767 3768 3769 3770 3771 3772 3773 3774
3775 3776 3777 3781 3782 3783 3784 3785 3786 3787 3788 3789 3791 3797 3798
3799 3800 3801 3802 3803 3804 3805 3806 3812 3813 3814 3815 3816 3817 3818
3819 3820 3821 3822 3823 3824 3825 3826 3827 3828 3834 3835 3836 3837 3838
3839 3840 3841 3842 3843 3844 3845 3846 3847 3848 3854 3855 3856 3857 3858
3859 3860 3861 3862 3863 3864 3865 3866 3867 3868 3872 3873 3874 3875 3876
3877 3878 3879 3880 3882 3888 3889 3890 3891 3892 3893 3894 3895 3896 3897
3898 3899 3900 3901 3902 3903 3904 3910 3911 3912 3913 3914 3920 3921 3922
3923 3924 3925 3926 3927 3928 3929 3930 3931 3932 3933 3934 3935 3936 3937
3938 3944 3945 3946 3947 3948 3949 3950 3956 3957 3958 3959 3960 3961 3962
3963 3964 3965 3966 3967 3968 3969 3975 3976 3977 3978 3979 3980 3981 3982
3983 3984 3985 3991 3992 3993 3994 3995 3996 3997 3998 3999 4000 4006 4007
4008 4009 4010 4011 4012 4013 4014 4015 4016 4017 4018 4019 4020 4021 4022
4028 4029 4030 4031 4032 4033 4034 4035 4036 4037 4038 4039 4040 4041 4047
4048 4049 4050 4051 4052 4053 4054 4055 4056 4057 4058 4059 4060 4066 4067
4068 4069 4070 4071 4072 4073 4074 4075 4076 4082 4083 4084 4085 4086 4087
4088 4089 4090 4091 4092 4093 4094 4095 4101 4102 4103 4104 4105 4106 4107
4113 4114 4115 4116 4117 4123 4124 4125 4126 4127 4128 4129 4130 4131 4137
4138 4139 4140 4141 4142 4143 4144 4145 4146 4147 4148 4149 4150 4151 4152
4153 4159 4160 4161 4162 4163 4164 4165 4166 4167 4168 4169 4170 4171 4172
4173 4174 4175 4176 4177 4183 4184 4185 4186 4187 4188 4189 4190 4191 4192
4193 4194 4195 4196 4202 4203 4209 4210 4211 4212 4213 4214 4220 4221 4222
4223 4224 4225 4226 4227 4228 4229 4235 4236 4237 4238 4239 4240 4241 4242
4243 4244 4250 4251 4252 4253 4254 4255 4256 4257 4258 4259 4260 4261 4267
4268 4269 4270 4271 4272 4273 4274 4275 4276 4282 4283 4289 4290 4291 4292
4293 4294 4295 4296 4297 4298 4299 4300 4301 4302 4303 4304 4310 4311 4315
4316 4317 4318 4319 4320 4321 4322 4323 4325 4331 4332 4333 4334 4335 4336
4337 4338 4339 4340 4341 4342 4343 4344 4350 4351 4352 4353 4354 4355 4356
4357 4358 4359 4360 4361 4362 4363 4364 4365 4366 4372 4373 4374 4375 4376
4382 4383 4384 4385 4386 4387 4388 4389 4390 4391 4392 4393 4397 4398 4399
4400 4401 4402 4403 4404 4405 4407 4413 4414 4415 4416 4417 4418 4419 4420
4421 4422 4423 4424 4425 4426 4427 4433 4434 4435 4436 4437 4438 4439 4440
4441 4442 4443 4444 4445 4446 4447 4453 4454 4455 4456 4457 4458 4459 4460
4461 4462 4468 4469 4470 4471 4472 4473 4479 4480 4481 4482 4483 4484 4485
4486 4487 4488 4489 4495 4496 4497 4498 4499 4500 4501 4502 4503 4509 4510
4511 4512 4513 4514 4515 4516 4517 4518 4519 4520 4521 4522 4523 4524 4525
4526 4527 4533 4534 4535 4536 4537 4538 4539 4540 4541 4542 4548 4549 4550
4551 4552 4553 4554 4555 4556 4562 4563 4564 4565 4566 4567 4568 4569 4570
4571 4572 4573 4574 4575 4581 4582 4583 4584 4585 4586 4587 4588 4589 4590
4591 4592 4598 4599 4600 4601 4602 4603 4604 4605 4606 4607 4608 4609 4615
4616 4617 4618 4619 4620 4621 4622 4623 4624 4625 4626 4632 4633 4634 4635
4636 4637 4638 4639 4640 4644 4645 4646 4647 4648 4649 4650 4651 4652 4654
4658 4659 4660 4661 4662 4663 4664 4665 4666 4668 4674 4675 4676 4677 4678
4679 4680 4681 4682 4683 4684 4685 4686 4687 4688 4689 4690 4696 4697 4698
4699 4700 4701 4702 4703 4704 4705 4706 4707 4708 4709 4715 4716 4717 4718
4719 4720 4721 4722 4723
[ SideChain-H ]
  37   40   43   54   57   60   63   65   66   69   78   81   84   87   90
 100  103  106  109  112  122  125  128  131  133  134  137  143  146  149
 160  163  166  167  168  175  178  179  180  187  190  191  193  195  197
 199  207  210  213  216  219  229  232  233  235  237  239  241  256  259
 262  265  268  278  280  284  287  297  300  302  306  323  326  329  330
 331  345  348  356  359  360  362  364  366  368  376  379  387  389  393
 401  403  407  417  419  423  433  436  438  442  452  462  465  468  471
 473  474  477  486  489  492  493  494  501  504  506  510  520  530  532
 536  544  547  555  558  561  564  566  567  570  579  582  585  586  587
 594  597  598  600  602  603  605  607  615  625  627  631  634  644  647
 650  653  656  666  668  672  675  685  688  690  694  704  707  710  711
 712  719  722  725  728  731  741  744  747  750  752  753  756  765  768
 769  770  772  774  782  784  788  791  801  803  807  810  820  823  826
 829  832  842  845  848  849  850  857  860  861  862  871  874  877  880
 883  893  895  899  906  909  912  923  926  927  929  931  932  934  936
 944  946  950  960  962  966  974  977  980  983  985  986  989  998 1001
1004 1005 1006 1013 1016 1019 1022 1024 1025 1028 1037 1040 1041 1042 1049
1051 1055 1065 1068 1071 1072 1082 1085 1093 1096 1099 1102 1104 1105 1108
1117 1120 1122 1126 1136 1139 1140 1141 1148 1151 1152 1153 1155 1157 1162
1165 1168 1179 1182 1183 1185 1187 1189 1191 1199 1202 1203 1205 1207 1209
1211 1219 1221 1225 1235 1238 1241 1244 1247 1257 1260 1262 1266 1276 1279
1280 1282 1284 1285 1287 1289 1297 1300 1301 1303 1305 1307 1309 1317 1319
1323 1331 1334 1335 1337 1339 1341 1343 1351 1354 1357 1358 1359 1368 1371
1372 1373 1380 1383 1384 1385 1392 1395 1398 1399 1400 1407 1410 1413 1416
1419 1429 1432 1434 1438 1448 1451 1452 1454 1456 1457 1459 1461 1469 1472
1473 1475 1477 1479 1481 1496 1499 1501 1505 1515 1518 1526 1529 1530 1532
1534 1535 1537 1539 1547 1557 1560 1563 1566 1569 1579 1582 1583 1584 1600
1603 1606 1607 1608 1615 1618 1620 1624 1634 1637 1639 1643 1653 1656 1659
1662 1665 1675 1678 1679 1681 1683 1684 1686 1688 1696 1698 1702 1705 1715
1718 1721 1724 1726 1727 1730 1739 1742 1745 1748 1751 1761 1763 1767 1770
1787 1790 1798 1801 1802 1804 1806 1808 1810 1818 1821 1822 1823 1830 1833
1836 1837 1838 1845 1847 1851 1859 1862 1870 1872 1876 1884 1887 1890 1893
1895 1896 1899 1908 1911 1912 1914 1916 1918 1920 1928 1931 1932 1934 1936
1937 1939 1941 1949 1951 1955 1963 1973 1976 1979 1980 1981 1988 1990 1994
1997 2007 2009 2013 2023 2026 2034 2044 2047 2049 2053 2063 2066 2069 2070
2071 2078 2081 2082 2084 2086 2087 2089 2091 2099 2102 2104 2108 2118 2121
2122 2123 2125 2127 2142 2145 2148 2151 2154 2171 2173 2177 2180 2190 2192
2196 2199 2209 2212 2213 2214 2216 2218 2226 2229 2232 2235 2237 2238 2241
2250 2253 2254 2255 2262 2265 2267 2271 2281 2284 2287 2290 2293 2300 2303
2306 2317 2320 2323 2324 2325 2332 2335 2336 2337 2346 2348 2352 2355 2365
2368 2370 2374 2384 2387 2389 2393 2403 2406 2407 2408 2417 2420 2423 2424
2425 2432 2435 2436 2437 2444 2447 2450 2451 2461 2464 2465 2467 2469 2470
2478 2480 2484 2487 2497 2500 2503 2504 2505 2514 2516 2520 2523 2533 2535
2539 2547 2550 2551 2552 2559 2562 2563 2565 2567 2569 2571 2586 2588 2592
2600 2610 2613 2616 2619 2622 2632 2634 2638 2648 2651 2653 2657 2667 2670
2675 2678 2681 2692 2695 2698 2699 2700 2707 2710 2718 2721 2724 2727 2730
2740 2743 2746 2747 2748 2757 2767 2770 2773 2776 2778 2779 2782 2791 2801
2804 2805 2806 2815 2818 2826 2829 2830 2832 2834 2836 2838 2846 2848 2852
2869 2871 2875 2883 2893 2896 2899 2900 2901 2910 2913 2914 2916 2918 2919
2921 2923 2931 2933 2937 2947 2950 2955 2958 2961 2972 2975 2978 2979 2980
2987 2990 2992 2996 3006 3009 3011 3015 3025 3027 3031 3039 3042 3045 3046
3047 3054 3057 3060 3063 3066 3076 3079 3087 3097 3100 3108 3111 3114 3117
3120 3130 3133 3141 3144 3152 3155 3156 3157 3164 3167 3169 3173 3183 3186
3187 3189 3191 3192 3194 3196 3198 3200 3207 3217 3220 3222 3226 3243 3246
3254 3256 3260 3263 3273 3275 3279 3282 3292 3295 3296 3298 3300 3301 3303
3305 3313 3316 3319 3320 3321 3330 3333 3335 3339 3349 3351 3355 3365 3382
3385 3387 3391 3398 3401 3404 3412 3415 3418 3429 3432 3433 3435 3437 3439
3441 3449 3452 3455 3458 3460 3461 3464 3473 3490 3493 3494 3495 3504 3507
3510 3511 3512 3519 3522 3523 3525 3527 3528 3530 3532 3540 3543 3545 3549
3559 3561 3565 3568 3578 3581 3582 3584 3586 3588 3590 3598 3601 3604 3605
3606 3615 3618 3621 3624 3627 3637 3639 3643 3646 3656 3658 3662 3665 3675
3678 3681 3684 3687 3697 3700 3702 3706 3716 3719 3722 3723 3724 3731 3734
3735 3737 3739 3740 3742 3744 3752 3755 3756 3757 3764 3767 3768 3770 3772
3774 3776 3781 3784 3787 3798 3801 3804 3805 3806 3813 3816 3819 3822 3825
3835 3838 3839 3841 3843 3845 3847 3855 3858 3859 3861 3863 3865 3867 3872
3875 3878 3889 3892 3895 3898 3901 3911 3921 3924 3927 3930 3932 3933 3936
3945 3948 3949 3950 3957 3960 3962 3966 3976 3978 3982 3992 3995 3998 3999
4000 4007 4010 4013 4016 4019 4029 4032 4034 4038 4048 4051 4053 4057 4067
4069 4073 4083 4086 4088 4092 4102 4105 4106 4107 4114 4124 4126 4130 4138
4141 4144 4147 4150 4160 4163 4166 4169 4171 4172 4175 4184 4187 4189 4193
4210 4213 4221 4224 4227 4228 4229 4236 4239 4242 4243 4244 4251 4254 4257
4258 4268 4271 4274 4275 4276 4290 4293 4294 4296 4298 4299 4301 4303 4315
4318 4321 4332 4335 4337 4341 4351 4354 4357 4360 4363 4373 4383 4386 4387
4388 4390 4392 4397 4400 4403 4414 4417 4418 4420 4422 4424 4426 4434 4437
4438 4440 4442 4444 4446 4454 4457 4460 4461 4462 4469 4472 4480 4482 4486
4496 4498 4502 4510 4513 4514 4516 4518 4519 4521 4523 4525 4527 4534 4537
4540 4541 4542 4549 4552 4553 4554 4563 4566 4568 4572 4582 4585 4586 4587
4589 4591 4599 4602 4605 4606 4607 4616 4619 4622 4623 4624 4633 4635 4639
4644 4647 4650 4658 4661 4664 4675 4678 4681 4684 4687 4697 4700 4702 4706
4716 4718 4722
[ Prot-Masses ]
  34   35   36   37   38   39   40   41   42   43   44   45   46   47   48
  49   50   51   52   53   54   55   56   57   58   59   60   61   62   63
  64   65   66   67   68   69   70   71   72   73   74   75   76   77   78
  79   80   81   82   83   84   85   86   87   88   89   90   91   92   93
  94   95   96   97   98   99  100  101  102  103  104  105  106  107  108
 109  110  111  112  113  114  115  116  117  118  119  120  121  122  123
 124  125  126  127  128  129  130  131  132  133  134  135  136  137  138
 139  140  141  142  143  144  145  146  147  148  149  150  151  152  153
 154  155  156  157  158  159  160  161  162  163  164  165  166  167  168
 169  170  171  172  173  174  175  176  177  178  179  180  181  182  183
 184  185  186  187  188  189  190  191  192  193  194  195  196  197  198
 199  200  201  202  203  204  205  206  207  208  209  210  211  212  213
 214  215  216  217  218  219  220  221  222  223  224  225  226  227  228
 229  230  231  232  233  234  235  236  237  238  239  240  241  242  243
 244  245  246  247  248  249  250  251  252  253  254  255  256  257  258
 259  260  261  262  263  264  265  266  267  268  269  270  271  272  273
 274  275  276  277  278  279  280  281  282  283  284  285  286  287  288
 289  290  291  292  293  294  295  296  297  298  299  300  301  302  303
 304  305  306  307  308  309  310  311  312  313  314  315  316  317  318
 319  320  321  322  323  324  325  326  327  328  329  330  331  332  333
 334  335  336  337  338  339  340  341  342  343  344  345  346  347  348
 349  350  351  352  353  354  355  356  357  358  359  360  361  362  363
 364  365  366  367  368  369  370  371  372  373  374  375  376  377  378
 379  380  381  382  383  384  385  386  387  388  389  390  391  392  393
 394  395  396  397  398  399  400  401  402  403  404  405  406  407  408
 409  410  411  412  413  414  415  416  417  418  419  420  421  422  423
 424  425  426  427  428  429  430  431  432  433  434  435  436  437  438
 439  440  441  442  443  444  445  446  447  448  449  450  451  452  453
 454  455  456  457  458  459  460  461  462  463  464  465  466  467  468
 469  470  471  472  473  474  475  476  477  478  479  480  481  482  483
 484  485  486  487  488  489  490  491  492  493  494  495  496  497  498
 499  500  501  502  503  504  505  506  507  508  509  510  511  512  513
 514  515  516  517  518  519  520  521  522  523  524  525  526  527  528
 529  530  531  532  533  534  535  536  537  538  539  540  541  542  543
 544  545  546  547  548  549  550  551  552  553  554  555  556  557  558
 559  560  561  562  563  564  565  566  567  568  569  570  571  572  573
 574  575  576  577  578  579  580  581  582  583  584  585  586  587  588
 589  590  591  592  593  594  595  596  597  598  599  600  601  602  603
 604  605  606  607  608  609  610  611  612  613  614  615  616  617  618
 619  620  621  622  623  624  625  626  627  628  629  630  631  632  633
 634  635  636  637  638  639  640  641  642  643  644  645  646  647  648
 649  650  651  652  653  654  655  656  657  658  659  660  661  662  663
 664  665  666  667  668  669  670  671  672  673  674  675  676  677  678
 679  680  681  682  683  684  685  686  687  688  689  690  691  692  693
 694  695  696  697  698  699  700  701  702  703  704  705  706  707  708
 709  710  711  712  713  714  715  716  717  718  719  720  721  722  723
 724  725  726  727  728  729  730  731  732  733  734  735  736  737  738
 739  740  741  742  743  744  745  746  747  748  749  750  751  752  753
 754  755  756  757  758  759  760  761  762  763  764  765  766  767  768
 769  770  771  772  773  774  775  776  777  778  779  780  781  782  783
 784  785  786  787  788  789  790  791  792  793  794  795  796  797  798
 799  800  801  802  803  804  805  806  807  808  809  810  811  812  813
 814  815  816  817  818  819  820  821  822  823  824  825  826  827  828
 829  830  831  832  833  834  835  836  837  838  839  840  841  842  843
 844  845  846  847  848  849  850  851  852  853  854  855  856  857  858
 859  860  861  862  863  864  865  866  867  868  869  870  871  872  873
 874  875  876  877  878  879  880  881  882  883  884  885  886  887  888
 889  890  891  892  893  894  895  896  897  898  899  900  901  902  903
 904  905  906  907  908  909  910  911  912  913  914  915  916  917  918
 919  920  921  922  923  924  925  926  927  928  929  930  931  932  933
 934  935  936  937  938  939  940  941  942  943  944  945  946  947  948
 949  950  951  952  953  954  955  956  957  958  959  960  961  962  963
 964  965  966  967  968  969  970  971  972  973  974  975  976  977  978
 979  980  981  982  983  984  985  986  987  988  989  990  991  992  993
 994  995  996  997  998  999 1000 1001 1002 1003 1004 1005 1006 1007 1008
1009 1010 1011 1012 1013 1014 1015 1016 1017 1018 1019 1020 1021 1022 1023
1024 1025 1026 1027 1028 1029 1030 1031 1032 1033 1034 1035 1036 1037 1038
1039 1040 1041 1042 1043 1044 1045 1046 1047 1048 1049 1050 1051 1052 1053
1054 1055 1056 1057 1058 1059 1060 1061 1062 1063 1064 1065 1066 1067 1068
1069 1070 1071 1072 1073 1074 1075 1076 1077 1078 1079 1080 1081 1082 1083
1084 1085 1086 1087 1088 1089 1090 1091 1092 1093 1094 1095 1096 1097 1098
1099 1100 1101 1102 1103 1104 1105 1106 1107 1108 1109 1110 1111 1112 1113
1114 1115 1116 1117 1118 1119 1120 1121 1122 1123 1124 1125 1126 1127 1128
1129 1130 1131 1132 1133 1134 1135 1136 1137 1138 1139 1140 1141 1142 1143
1144 1145 1146 1147 1148 1149 1150 1151 1152 1153 1154 1155 1156 1157 1158
1159 1160 1161 1162 1163 1164 1165 1166 1167 1168 1169 1170 1171 1172 1173
1174 1175 1176 1177 1178 1179 1180 1181 1182 1183 1184 1185 1186 1187 1188
1189 1190 1191 1192 1193 1194 1195 1196 1197 1198 1199 1200 1201 1202 1203
1204 1205 1206 1207 1208 1209 1210 1211 1212 1213 1214 1215 1216 1217 1218
1219 1220 1221 1222 1223 1224 1225 1226 1227 1228 1229 1230 1231 1232 1233
1234 1235 1236 1237 1238 1239 1240 1241 1242 1243 1244 1245 1246 1247 1248
1249 1250 1251 1252 1253 1254 1255 1256 1257 1258 1259 1260 1261 1262 1263
1264 1265 1266 1267 1268 1269 1270 1271 1272 1273 1274 1275 1276 1277 1278
1279 1280 1281 1282 1283 1284 1285 1286 1287 1288 1289 1290 1291 1292 1293
1294 1295 1296 1297 1298 1299 1300 1301 1302 1303 1304 1305 1306 1307 1308
1309 1310 1311 1312 1313 1314 1315 1316 1317 1318 1319 1320 1321 1322 1323
1324 1325 1326 1327 1328 1329 1330 1331 1332 1333 1334 1335 1336 1337 1338
1339 1340 1341 1342 1343 1344 1345 1346 1347 1348 1349 1350 1351 1352 1353
1354 1355 1356 1357 1358 1359 1360 1361 1362 1363 1364 1365 1366 1367 1368
1369 1370 1371 1372 1373 1374 1375 1376 1377 1378 1379 1380 1381 1382 1383
1384 1385 1386 1387 1388 1389 1390 1391 1392 1393 1394 1395 1396 1397 1398
1399 1400 1401 1402 1403 1404 1405 1406 1407 1408 1409 1410 1411 1412 1413
1414 1415 1416 1417 1418 1419 1420 1421 1422 1423 1424 1425 1426 1427 1428
1429 1430 1431 1432 1433 1434 1435 1436 1437 1438 1439 1440 1441 1442 1443
1444 1445 1446 1447 1448 1449 1450 1451 1452 1453 1454 1455 1456 1457 1458
1459 1460 1461 1462 1463 1464 1465 1466 1467 1468 1469 1470 1471 1472 1473
1474 1475 1476 1477 1478 1479 1480 1481 1482 1483 1484 1485 1486 1487 1488
1489 1490 1491 1492 1493 1494 1495 1496 1497 1498 1499 1500 1501 1502 1503
1504 1505 1506 1507 1508 1509 1510 1511 1512 1513 1514 1515 1516 1517 1518
1519 1520 1521 1522 1523 1524 1525 1526 1527 1528 1529 1530 1531 1532 1533
1534 1535 1536 1537 1538 1539 1540 1541 1542 1543 1544 1545 1546 1547 1548
1549 1550 1551 1552 1553 1554 1555 1556 1557 1558 1559 1560 1561 1562 1563
1564 1565 1566 1567 1568 1569 1570 1571 1572 1573 1574 1575 1576 1577 1578
1579 1580 1581 1582 1583 1584 1585 1586 1587 1588 1589 1590 1591 1592 1593
1594 1595 1596 1597 1598 1599 1600 1601 1602 1603 1604 1605 1606 1607 1608
1609 1610 1611 1612 1613 1614 1615 1616 1617 1618 1619 1620 1621 1622 1623
1624 1625 1626 1627 1628 1629 1630 1631 1632 1633 1634 1635 1636 1637 1638
1639 1640 1641 1642 1643 1644 1645 1646 1647 1648 1649 1650 1651 1652 1653
1654 1655 1656 1657 1658 1659 1660 1661 1662 1663 1664 1665 1666 1667 1668
1669 1670 1671 1672 1673 1674 1675 1676 1677 1678 1679 1680 1681 1682 1683
1684 1685 1686 1687 1688 1689 1690 1691 1692 1693 1694 1695 1696 1697 1698
1699 1700 1701 1702 1703 1704 1705 1706 1707 1708 1709 1710 1711 1712 1713
1714 1715 1716 1717 1718 1719 1720 1721 1722 1723 1724 1725 1726 1727 1728
1729 1730 1731 1732 1733 1734 1735 1736 1737 1738 1739 1740 1741 1742 1743
1744 1745 1746 1747 1748 1749 1750 1751 1752 1753 1754 1755 1756 1757 1758
1759 1760 1761 1762 1763 1764 1765 1766 1767 1768 1769 1770 1771 1772 1773
1774 1775 1776 1777 1778 1779 1780 1781 1782 1783 1784 1785 1786 1787 1788
1789 1790 1791 1792 1793 1794 1795 1796 1797 1798 1799 1800 1801 1802 1803
1804 1805 1806 1807 1808 1809 1810 1811 1812 1813 1814 1815 1816 1817 1818
1819 1820 1821 1822 1823 1824 1825 1826 1827 1828 1829 1830 1831 1832 1833
1834 1835 1836 1837 1838 1839 1840 1841 1842 1843 1844 1845 1846 1847 1848
1849 1850 1851 1852 1853 1854 1855 1856 1857 1858 1859 1860 1861 1862 1863
1864 1865 1866 1867 1868 1869 1870 1871 1872 1873 1874 1875 1876 1877 1878
1879 1880 1881 1882 1883 1884 1885 1886 1887 1888 1889 1890 1891 1892 1893
1894 1895 1896 1897 1898 1899 1900 1901 1902 1903 1904 1905 1906 1907 1908
1909 1910 1911 1912 1913 1914 1915 1916 1917 1918 1919 1920 1921 1922 1923
1924 1925 1926 1927 1928 1929 1930 1931 1932 1933 1934 1935 1936 1937 1938
1939 1940 1941 1942 1943 1944 1945 1946 1947 1948 1949 1950 1951 1952 1953
1954 1955 1956 1957 1958 1959 1960 1961 1962 1963 1964 1965 1966 1967 1968
1969 1970 1971 1972 1973 1974 1975 1976 1977 1978 1979 1980 1981 1982 1983
1984 1985 1986 1987 1988 1989 1990 1991 1992 1993 1994 1995 1996 1997 1998
1999 2000 2001 2002 2003 2004 2005 2006 2007 2008 2009 2010 2011 2012 2013
2014 2015 2016 2017 2018 2019 2020 2021 2022 2023 2024 2025 2026 2027 2028
2029 2030 2031 2032 2033 2034 2035 2036 2037 2038 2039 2040 2041 2042 2043
2044 2045 2046 2047 2048 2049 2050 2051 2052 2053 2054 2055 2056 2057 2058
2059 2060 2061 2062 2063 2064 2065 2066 2067 2068 2069 2070 2071 2072 2073
2074 2075 2076 2077 2078 2079 2080 2081 2082 2083 2084 2085 2086 2087 2088
2089 2090 2091 2092 2093 2094 2095 2096 2097 2098 2099 2100 2101 2102 2103
2104 2105 2106 2107 2108 2109 2110 2111 2112 2113 2114 2115 2116 2117 2118
2119 2120 2121 2122 2123 2124 2125 2126 2127 2128 2129 2130 2131 2132 2133
2134 2135 2136 2137 2138 2139 2140 2141 2142 2143 2144 2145 2146 2147 2148
2149 2150 2151 2152 2153 2154 2155 2156 2157 2158 2159 2160 2161 2162 2163
2164 2165 2166 2167 2168 2169 2170 2171 2172 2173 2174 2175 2176 2177 2178
2179 2180 2181 2182 2183 2184 2185 2186 2187 2188 2189 2190 2191 2192 2193
2194 2195 2196 2197 2198 2199 2200 2201 2202 2203 2204 2205 2206 2207 2208
2209 2210 2211 2212 2213 2214 2215 2216 2217 2218 2219 2220 2221 2222 2223
2224 2225 2226 2227 2228 2229 2230 2231 2232 2233 2234 2235 2236 2237 2238
2239 2240 2241 2242 2243 2244 2245 2246 2247 2248 2249 2250 2251 2252 2253
2254 2255 2256 2257 2258 2259 2260 2261 2262 2263 2264 2265 2266 2267 2268
2269 2270 2271 2272 2273 2274 2275 2276 2277 2278 2279 2280 2281 2282 2283
2284 2285 2286 2287 2288 2289 2290 2291 2292 2293 2294 2295 2296 2297 2298
2299 2300 2301 2302 2303 2304 2305 2306 2307 2308 2309 2310 2311 2312 2313
2314 2315 2316 2317 2318 2319 2320 2321 2322 2323 2324 2325 2326 2327 2328
2329 2330 2331 2332 2333 2334 2335 2336 2337 2338 2339 2340 2341 2342 2343
2344 2345 2346 2347 2348 2349 2350 2351 2352 2353 2354 2355 2356 2357 2358
2359 2360 2361 2362 2363 2364 2365 2366 2367 2368 2369 2370 2371 2372 2373
2374 2375 2376 2377 2378 2379 2380 2381 2382 2383 2384 2385 2386 2387 2388
2389 2390 2391 2392 2393 2394 2395 2396 2397 2398 2399 2400 2401 2402 2403
2404 2405 2406 2407 2408 2409 2410 2411 2412 2413 2414 2415 2416 2417 2418
2419 2420 2421 2422 2423 2424 2425 2426 2427 2428 2429 2430 2431 2432 2433
2434 2435 2436 2437 2438 2439 2440 2441 2442 2443 2444 2445 2446 2447 2448
2449 2450 2451 2452 2453 2454 2455 2456 2457 2458 2459 2460 2461 2462 2463
2464 2465 2466 2467 2468 2469 2470 2471 2472 2473 2474 2475 2476 2477 2478
2479 2480 2481 2482 2483 2484 2485 2486 2487 2488 2489 2490 2491 2492 2493
2494 2495 2496 2497 2498 2499 2500 2501 2502 2503 2504 2505 2506 2507 2508
2509 2510 2511 2512 2513 2514 2515 2516 2517 2518 2519 2520 2521 2522 2523
2524 2525 2526 2527 2528 2529 2530 2531 2532 2533 2534 2535 2536 2537 2538
2539 2540 2541 2542 2543 2544 2545 2546 2547 2548 2549 2550 2551 2552 2553
2554 2555 2556 2557 2558 2559 2560 2561 2562 2563 2564 2565 2566 2567 2568
2569 2570 2571 2572 2573 2574 2575 2576 2577 2578 2579 2580 2581 2582 2583
2584 2585 2586 2587 2588 2589 2590 2591 2592 2593 2594 2595 2596 2597 2598
2599 2600 2601 2602 2603 2604 2605 2606 2607 2608 2609 2610 2611 2612 2613
2614 2615 2616 2617 2618 2619 2620 2621 2622 2623 2624 2625 2626 2627 2628
2629 2630 2631 2632 2633 2634 2635 2636 2637 2638 2639 2640 2641 2642 2643
2644 2645 2646 2647 2648 2649 2650 2651 2652 2653 2654 2655 2656 2657 2658
2659 2660 2661 2662 2663 2664 2665 2666 2667 2668 2669 2670 2671 2672 2673
2674 2675 2676 2677 2678 2679 2680 2681 2682 2683 2684 2685 2686 2687 2688
2689 2690 2691 2692 2693 2694 2695 2696 2697 2698 2699 2700 2701 2702 2703
2704 2705 2706 2707 2708 2709 2710 2711 2712 2713 2714 2715 2716 2717 2718
2719 2720 2721 2722 2723 2724 2725 2726 2727 2728 2729 2730 2731 2732 2733
2734 2735 2736 2737 2738 2739 2740 2741 2742 2743 2744 2745 2746 2747 2748
2749 2750 2751 2752 2753 2754 2755 2756 2757 2758 2759 2760 2761 2762 2763
2764 2765 2766 2767 2768 2769 2770 2771 2772 2773 2774 2775 2776 2777 2778
2779 2780 2781 2782 2783 2784 2785 2786 2787 2788 2789 2790 2791 2792 2793
2794 2795 2796 2797 2798 2799 2800 2801 2802 2803 2804 2805 2806 2807 2808
2809 2810 2811 2812 2813 2814 2815 2816 2817 2818 2819 2820 2821 2822 2823
2824 2825 2826 2827 2828 2829 2830 2831 2832 2833 2834 2835 2836 2837 2838
2839 2840 2841 2842 2843 2844 2845 2846 2847 2848 2849 2850 2851 2852 2853
2854 2855 2856 2857 2858 2859 2860 2861 2862 2863 2864 2865 2866 2867 2868
2869 2870 2871 2872 2873 2874 2875 2876 2877 2878 2879 2880 2881 2882 2883
2884 2885 2886 2887 2888 2889 2890 2891 2892 2893 2894 2895 2896 2897 2898
2899 2900 2901 2902 2903 2904 2905 2906 2907 2908 2909 2910 2911 2912 2913
2914 2915 2916 2917 2918 2919 2920 2921 2922 2923 2924 2925 2926 2927 2928
2929 2930 2931 2932 2933 2934 2935 2936 2937 2938 2939 2940 2941 2942 2943
2944 2945 2946 2947 2948 2949 2950 2951 2952 2953 2954 2955 2956 2957 2958
2959 2960 2961 2962 2963 2964 2965 2966 2967 2968 2969 2970 2971 2972 2973
2974 2975 2976 2977 2978 2979 2980 2981 2982 2983 2984 2985 2986 2987 2988
2989 2990 2991 2992 2993 2994 2995 2996 2997 2998 2999 3000 3001 3002 3003
3004 3005 3006 3007 3008 3009 3010 3011 3012 3013 3014 3015 3016 3017 3018
3019 3020 3021 3022 3023 3024 3025 3026 3027 3028 3029 3030 3031 3032 3033
3034 3035 3036 3037 3038 3039 3040 3041 3042 3043 3044 3045 3046 3047 3048
3049 3050 3051 3052 3053 3054 3055 3056 3057 3058 3059 3060 3061 3062 3063
3064 3065 3066 3067 3068 3069 3070 3071 3072 3073 3074 3075 3076 3077 3078
3079 3080 3081 3082 3083 3084 3085 3086 3087 3088 3089 3090 3091 3092 3093
3094 3095 3096 3097 3098 3099 3100 3101 3102 3103 3104 3105 3106 3107 3108
3109 3110 3111 3112 3113 3114 3115 3116 3117 3118 3119 3120 3121 3122 3123
3124 3125 3126 3127 3128 3129 3130 3131 3132 3133 3134 3135 3136 3137 3138
3139 3140 3141 3142 3143 3144 3145 3146 3147 3148 3149 3150 3151 3152 3153
3154 3155 3156 3157 3158 3159 3160 3161 3162 3163 3164 3165 3166 3167 3168
3169 3170 3171 3172 3173 3174 3175 3176 3177 3178 3179 3180 3181 3182 3183
3184 3185 3186 3187 3188 3189 3190 3191 3192 3193 3194 3195 3196 3197 3198
3199 3200 3201 3202 3203 3204 3205 3206 3207 3208 3209 3210 3211 3212 3213
3214 3215 3216 3217 3218 3219 3220 3221 3222 3223 3224 3225 3226 3227 3228
3229 3230 3231 3232 3233 3234 3235 3236 3237 3238 3239 3240 3241 3242 3243
3244 3245 3246 3247 3248 3249 3250 3251 3252 3253 3254 3255 3256 3257 3258
3259 3260 3261 3262 3263 3264 3265 3266 3267 3268 3269 3270 3271 3272 3273
3274 3275 3276 3277 3278 3279 3280 3281 3282 3283 3284 3285 3286 3287 3288
3289 3290 3291 3292 3293 3294 3295 3296 3297 3298 3299 3300 3301 3302 3303
3304 3305 3306 3307 3308 3309 3310 3311 3312 3313 3314 3315 3316 3317 3318
3319 3320 3321 3322 3323 3324 3325 3326 3327 3328 3329 3330 3331 3332 3333
3334 3335 3336 3337 3338 3339 3340 3341 3342 3343 3344 3345 3346 3347 3348
3349 3350 3351 3352 3353 3354 3355 3356 3357 3358 3359 3360 3361 3362 3363
3364 3365 3366 3367 3368 3369 3370 3371 3372 3373 3374 3375 3376 3377 3378
3379 3380 3381 3382 3383 3384 3385 3386 3387 3388 3389 3390 3391 3392 3393
3394 3395 3396 3397 3398 3399 3400 3401 3402 3403 3404 3405 3406 3407 3408
3409 3410 3411 3412 3413 3414 3415 3416 3417 3418 3419 3420 3421 3422 3423
3424 3425 3426 3427 3428 3429 3430 3431 3432 3433 3434 3435 3436 3437 3438
3439 3440 3441 3442 3443 3444 3445 3446 3447 3448 3449 3450 3451 3452 3453
3454 3455 3456 3457 3458 3459 3460 3461 3462 3463 3464 3465 3466 3467 3468
3469 3470 3471 3472 3473 3474 3475 3476 3477 3478 3479 3480 3481 3482 3483
3484 3485 3486 3487 3488 3489 3490 3491 3492 3493 3494 3495 3496 3497 3498
3499 3500 3501 3502 3503 3504 3505 3506 3507 3508 3509 3510 3511 3512 3513
3514 3515 3516 3517 3518 3519 3520 3521 3522 3523 3524 3525 3526 3527 3528
3529 3530 3531 3532 3533 3534 3535 3536 3537 3538 3539 3540 3541 3542 3543
3544 3545 3546 3547 3548 3549 3550 3551 3552 3553 3554 3555 3556 3557 3558
3559 3560 3561 3562 3563 3564 3565 3566 3567 3568 3569 3570 3571 3572 3573
3574 3575 3576 3577 3578 3579 3580 3581 3582 3583 3584 3585 3586 3587 3588
3589 3590 3591 3592 3593 3594 3595 3596 3597 3598 3599 3600 3601 3602 3603
3604 3605 3606 3607 3608 3609 3610 3611 3612 3613 3614 3615 3616 3617 3618
3619 3620 3621 3622 3623 3624 3625 3626 3627 3628 3629 3630 3631 3632 3633
3634 3635 3636 3637 3638 3639 3640 3641 3642 3643 3644 3645 3646 3647 3648
3649 3650 3651 3652 3653 3654 3655 3656 3657 3658 3659 3660 3661 3662 3663
3664 3665 3666 3667 3668 3669 3670 3671 3672 3673 3674 3675 3676 3677 3678
3679 3680 3681 3682 3683 3684 3685 3686 3687 3688 3689 3690 3691 3692 3693
3694 3695 3696 3697 3698 3699 3700 3701 3702 3703 3704 3705 3706 3707 3708
3709 3710 3711 3712 3713 3714 3715 3716 3717 3718 3719 3720 3721 3722 3723
3724 3725 3726 3727 3728 3729 3730 3731 3732 3733 3734 3735 3736 3737 3738
3739 3740 3741 3742 3743 3744 3745 3746 3747 3748 3749 3750 3751 3752 3753
3754 3755 3756 3757 3758 3759 3760 3761 3762 3763 3764 3765 3766 3767 3768
3769 3770 3771 3772 3773 3774 3775 3776 3777 3778 3779 3780 3781 3782 3783
3784 3785 3786 3787 3788 3789 3790 3791 3792 3793 3794 3795 3796 3797 3798
3799 3800 3801 3802 3803 3804 3805 3806 3807 3808 3809 3810 3811 3812 3813
3814 3815 3816 3817 3818 3819 3820 3821 3822 3823 3824 3825 3826 3827 3828
3829 3830 3831 3832 3833 3834 3835 3836 3837 3838 3839 3840 3841 3842 3843
3844 3845 3846 3847 3848 3849 3850 3851 3852 3853 3854 3855 3856 3857 3858
3859 3860 3861 3862 3863 3864 3865 3866 3867 3868 3869 3870 3871 3872 3873
3874 3875 3876 3877 3878 3879 3880 3881 3882 3883 3884 3885 3886 3887 3888
3889 3890 3891 3892 3893 3894 3895 3896 3897 3898 3899 3900 3901 3902 3903
3904 3905 3906 3907 3908 3909 3910 3911 3912 3913 3914 3915 3916 3917 3918
3919 3920 3921 3922 3923 3924 3925 3926 3927 3928 3929 3930 3931 3932 3933
3934 3935 3936 3937 3938 3939 3940 3941 3942 3943 3944 3945 3946 3947 3948
3949 3950 3951 3952 3953 3954 3955 3956 3957 3958 3959 3960 3961 3962 3963
3964 3965 3966 3967 3968 3969 3970 3971 3972 3973 3974 3975 3976 3977 3978
3979 3980 3981 3982 3983 3984 3985 3986 3987 3988 3989 3990 3991 3992 3993
3994 3995 3996 3997 3998 3999 4000 4001 4002 4003 4004 4005 4006 4007 4008
4009 4010 4011 4012 4013 4014 4015 4016 4017 4018 4019 4020 4021 4022 4023
4024 4025 4026 4027 4028 4029 4030 4031 4032 4033 4034 4035 4036 4037 4038
4039 4040 4041 4042 4043 4044 4045 4046 4047 4048 4049 4050 4051 4052 4053
4054 4055 4056 4057 4058 4059 4060 4061 4062 4063 4064 4065 4066 4067 4068
4069 4070 4071 4072 4073 4074 4075 4076 4077 4078 4079 4080 4081 4082 4083
4084 4085 4086 4087 4088 4089 4090 4091 4092 4093 4094 4095 4096 4097 4098
4099 4100 4101 4102 4103 4104 4105 4106 4107 4108 4109 4110 4111 4112 4113
4114 4115 4116 4117 4118 4119 4120 4121 4122 4123 4124 4125 4126 4127 4128
4129 4130 4131 4132 4133 4134 4135 4136 4137 4138 4139 4140 4141 4142 4143
4144 4145 4146 4147 4148 4149 4150 4151 4152 4153 4154 4155 4156 4157 4158
4159 4160 4161 4162 4163 4164 4165 4166 4167 4168 4169 4170 4171 4172 4173
4174 4175 4176 4177 4178 4179 4180 4181 4182 4183 4184 4185 4186 4187 4188
4189 4190 4191 4192 4193 4194 4195 4196 4197 4198 4199 4200 4201 4202 4203
4204 4205 4206 4207 4208 4209 4210 4211 4212 4213 4214 4215 4216 4217 4218
4219 4220 4221 4222 4223 4224 4225 4226 4227 4228 4229 4230 4231 4232 4233
4234 4235 4236 4237 4238 4239 4240 4241 4242 4243 4244 4245 4246 4247 4248
4249 4250 4251 4252 4253 4254 4255 4256 4257 4258 4259 4260 4261 4262 4263
4264 4265 4266 4267 4268 4269 4270 4271 4272 4273 4274 4275 4276 4277 4278
4279 4280 4281 4282 4283 4284 4285 4286 4287 4288 4289 4290 4291 4292 4293
4294 4295 4296 4297 4298 4299 4300 4301 4302 4303 4304 4305 4306 4307 4308
4309 4310 4311 4312 4313 4314 4315 4316 4317 4318 4319 4320 4321 4322 4323
4324 4325 4326 4327 4328 4329 4330 4331 4332 4333 4334 4335 4336 4337 4338
4339 4340 4341 4342 4343 4344 4345 4346 4347 4348 4349 4350 4351 4352 4353
4354 4355 4356 4357 4358 4359 4360 4361 4362 4363 4364 4365 4366 4367 4368
4369 4370 4371 4372 4373 4374 4375 4376 4377 4378 4379 4380 4381 4382 4383
4384 4385 4386 4387 4388 4389 4390 4391 4392 4393 4394 4395 4396 4397 4398
4399 4400 4401 4402 4403 4404 4405 4406 4407 4408 4409 4410 4411 4412 4413
4414 4415 4416 4417 4418 4419 4420 4421 4422 4423 4424 4425 4426 4427 4428
4429 4430 4431 4432 4433 4434 4435 4436 4437 4438 4439 4440 4441 4442 4443
4444 4445 4446 4447 4448 4449 4450 4451 4452 4453 4454 4455 4456 4457 4458
4459 4460 4461 4462 4463 4464 4465 4466 4467 4468 4469 4470 4471 4472 4473
4474 4475 4476 4477 4478 4479 4480 4481 4482 4483 4484 4485 4486 4487 4488
4489 4490 4491 4492 4493 4494 4495 4496 4497 4498 4499 4500 4501 4502 4503
4504 4505 4506 4507 4508 4509 4510 4511 4512 4513 4514 4515 4516 4517 4518
4519 4520 4521 4522 4523 4524 4525 4526 4527 4528 4529 4530 4531 4532 4533
4534 4535 4536 4537 4538 4539 4540 4541 4542 4543 4544 4545 4546 4547 4548
4549 4550 4551 4552 4553 4554 4555 4556 4557 4558 4559 4560 4561 4562 4563
4564 4565 4566 4567 4568 4569 4570 4571 4572 4573 4574 4575 4576 4577 4578
4579 4580 4581 4582 4583 4584 4585 4586 4587 4588 4589 4590 4591 4592 4593
4594 4595 4596 4597 4598 4599 4600 4601 4602 4603 4604 4605 4606 4607 4608
4609 4610 4611 4612 4613 4614 4615 4616 4617 4618 4619 4620 4621 4622 4623
4624 4625 4626 4627 4628 4629 4630 4631 4632 4633 4634 4635 4636 4637 4638
4639 4640 4641 4642 4643 4644 4645 4646 4647 4648 4649 4650 4651 4652 4653
4654 4655 4656 4657 4658 4659 4660 4661 4662 4663 4664 4665 4666 4667 4668
4669 4670 4671 4672 4673 4674 4675 4676 4677 4678 4679 4680 4681 4682 4683
4684 4685 4686 4687 4688 4689 4690 4691 4692 4693 4694 4695 4696 4697 4698
4699 4700 4701 4702 4703 4704 4705 4706 4707 4708 4709 4710 4711 4712 4713
4714 4715 4716 4717 4718 4719 4720 4721 4722 4723 4724 4725 4726
[ non-Protein ]
   1    2    3    4    5    6    7    8    9   10   11   12   13   14   15
  16   17   18   19   20   21   22   23   24   25   26   27   28   29   30
  31   32   33
[ RECEPTOR ]
  34   35   36   37   38   39   40   41   42   43   44   45   46   47   48
  49   50   51   52   53   54   55   56   57   58   59   60   61   62   63
  64   65   66   67   68   69   70   71   72   73   74   75   76   77   78
  79   80   81   82   83   84   85   86   87   88   89   90   91   92   93
  94   95   96   97   98   99  100  101  102  103  104  105  106  107  108
 109  110  111  112  113  114  115  116  117  118  119  120  121  122  123
 124  125  126  127  128  129  130  131  132  133  134  135  136  137  138
 139  140  141  142  143  144  145  146  147  148  149  150  151  152  153
 154  155  156  157  158  159  160  161  162  163  164  165  166  167  168
 169  170  171  172  173  174  175  176  177  178  179  180  181  182  183
 184  185  186  187  188  189  190  191  192  193  194  195  196  197  198
 199  200  201  202  203  204  205  206  207  208  209  210  211  212  213
 214  215  216  217  218  219  220  221  222  223  224  225  226  227  228
 229  230  231  232  233  234  235  236  237  238  239  240  241  242  243
 244  245  246  247  248  249  250  251  252  253  254  255  256  257  258
 259  260  261  262  263  264  265  266  267  268  269  270  271  272  273
 274  275  276  277  278  279  280  281  282  283  284  285  286  287  288
 289  290  291  292  293  294  295  296  297  298  299  300  301  302  303
 304  305  306  307  308  309  310  311  312  313  314  315  316  317  318
 319  320  321  322  323  324  325  326  327  328  329  330  331  332  333
 334  335  336  337  338  339  340  341  342  343  344  345  346  347  348
 349  350  351  352  353  354  355  356  357  358  359  360  361  362  363
 364  365  366  367  368  369  370  371  372  373  374  375  376  377  378
 379  380  381  382  383  384  385  386  387  388  389  390  391  392  393
 394  395  396  397  398  399  400  401  402  403  404  405  406  407  408
 409  410  411  412  413  414  415  416  417  418  419  420  421  422  423
 424  425  426  427  428  429  430  431  432  433  434  435  436  437  438
 439  440  441  442  443  444  445  446  447  448  449  450  451  452  453
 454  455  456  457  458  459  460  461  462  463  464  465  466  467  468
 469  470  471  472  473  474  475  476  477  478  479  480  481  482  483
 484  485  486  487  488  489  490  491  492  493  494  495  496  497  498
 499  500  501  502  503  504  505  506  507  508  509  510  511  512  513
 514  515  516  517  518  519  520  521  522  523  524  525  526  527  528
 529  530  531  532  533  534  535  536  537  538  539  540  541  542  543
 544  545  546  547  548  549  550  551  552  553  554  555  556  557  558
 559  560  561  562  563  564  565  566  567  568  569  570  571  572  573
 574  575  576  577  578  579  580  581  582  583  584  585  586  587  588
 589  590  591  592  593  594  595  596  597  598  599  600  601  602  603
 604  605  606  607  608  609  610  611  612  613  614  615  616  617  618
 619  620  621  622  623  624  625  626  627  628  629  630  631  632  633
 634  635  636  637  638  639  640  641  642  643  644  645  646  647  648
 649  650  651  652  653  654  655  656  657  658  659  660  661  662  663
 664  665  666  667  668  669  670  671  672  673  674  675  676  677  678
 679  680  681  682  683  684  685  686  687  688  689  690  691  692  693
 694  695  696  697  698  699  700  701  702  703  704  705  706  707  708
 709  710  711  712  713  714  715  716  717  718  719  720  721  722  723
 724  725  726  727  728  729  730  731  732  733  734  735  736  737  738
 739  740  741  742  743  744  745  746  747  748  749  750  751  752  753
 754  755  756  757  758  759  760  761  762  763  764  765  766  767  768
 769  770  771  772  773  774  775  776  777  778  779  780  781  782  783
 784  785  786  787  788  789  790  791  792  793  794  795  796  797  798
 799  800  801  802  803  804  805  806  807  808  809  810  811  812  813
 814  815  816  817  818  819  820  821  822  823  824  825  826  827  828
 829  830  831  832  833  834  835  836  837  838  839  840  841  842  843
 844  845  846  847  848  849  850  851  852  853  854  855  856  857  858
 859  860  861  862  863  864  865  866  867  868  869  870  871  872  873
 874  875  876  877  878  879  880  881  882  883  884  885  886  887  888
 889  890  891  892  893  894  895  896  897  898  899  900  901  902  903
 904  905  906  907  908  909  910  911  912  913  914  915  916  917  918
 919  920  921  922  923  924  925  926  927  928  929  930  931  932  933
 934  935  936  937  938  939  940  941  942  943  944  945  946  947  948
 949  950  951  952  953  954  955  956  957  958  959  960  961  962  963
 964  965  966  967  968  969  970  971  972  973  974  975  976  977  978
 979  980  981  982  983  984  985  986  987  988  989  990  991  992  993
 994  995  996  997  998  999 1000 1001 1002 1003 1004 1005 1006 1007 1008
1009 1010 1011 1012 1013 1014 1015 1016 1017 1018 1019 1020 1021 1022 1023
1024 1025 1026 1027 1028 1029 1030 1031 1032 1033 1034 1035 1036 1037 1038
1039 1040 1041 1042 1043 1044 1045 1046 1047 1048 1049 1050 1051 1052 1053
1054 1055 1056 1057 1058 1059 1060 1061 1062 1063 1064 1065 1066 1067 1068
1069 1070 1071 1072 1073 1074 1075 1076 1077 1078 1079 1080 1081 1082 1083
1084 1085 1086 1087 1088 1089 1090 1091 1092 1093 1094 1095 1096 1097 1098
1099 1100 1101 1102 1103 1104 1105 1106 1107 1108 1109 1110 1111 1112 1113
1114 1115 1116 1117 1118 1119 1120 1121 1122 1123 1124 1125 1126 1127 1128
1129 1130 1131 1132 1133 1134 1135 1136 1137 1138 1139 1140 1141 1142 1143
1144 1145 1146 1147 1148 1149 1150 1151 1152 1153 1154 1155 1156 1157 1158
1159 1160 1161 1162 1163 1164 1165 1166 1167 1168 1169 1170 1171 1172 1173
1174 1175 1176 1177 1178 1179 1180 1181 1182 1183 1184 1185 1186 1187 1188
1189 1190 1191 1192 1193 1194 1195 1196 1197 1198 1199 1200 1201 1202 1203
1204 1205 1206 1207 1208 1209 1210 1211 1212 1213 1214 1215 1216 1217 1218
1219 1220 1221 1222 1223 1224 1225 1226 1227 1228 1229 1230 1231 1232 1233
1234 1235 1236 1237 1238 1239 1240 1241 1242 1243 1244 1245 1246 1247 1248
1249 1250 1251 1252 1253 1254 1255 1256 1257 1258 1259 1260 1261 1262 1263
1264 1265 1266 1267 1268 1269 1270 1271 1272 1273 1274 1275 1276 1277 1278
1279 1280 1281 1282 1283 1284 1285 1286 1287 1288 1289 1290 1291 1292 1293
1294 1295 1296 1297 1298 1299 1300 1301 1302 1303 1304 1305 1306 1307 1308
1309 1310 1311 1312 1313 1314 1315 1316 1317 1318 1319 1320 1321 1322 1323
1324 1325 1326 1327 1328 1329 1330 1331 1332 1333 1334 1335 1336 1337 1338
1339 1340 1341 1342 1343 1344 1345 1346 1347 1348 1349 1350 1351 1352 1353
1354 1355 1356 1357 1358 1359 1360 1361 1362 1363 1364 1365 1366 1367 1368
1369 1370 1371 1372 1373 1374 1375 1376 1377 1378 1379 1380 1381 1382 1383
1384 1385 1386 1387 1388 1389 1390 1391 1392 1393 1394 1395 1396 1397 1398
1399 1400 1401 1402 1403 1404 1405 1406 1407 1408 1409 1410 1411 1412 1413
1414 1415 1416 1417 1418 1419 1420 1421 1422 1423 1424 1425 1426 1427 1428
1429 1430 1431 1432 1433 1434 1435 1436 1437 1438 1439 1440 1441 1442 1443
1444 1445 1446 1447 1448 1449 1450 1451 1452 1453 1454 1455 1456 1457 1458
1459 1460 1461 1462 1463 1464 1465 1466 1467 1468 1469 1470 1471 1472 1473
1474 1475 1476 1477 1478 1479 1480 1481 1482 1483 1484 1485 1486 1487 1488
1489 1490 1491 1492 1493 1494 1495 1496 1497 1498 1499 1500 1501 1502 1503
1504 1505 1506 1507 1508 1509 1510 1511 1512 1513 1514 1515 1516 1517 1518
1519 1520 1521 1522 1523 1524 1525 1526 1527 1528 1529 1530 1531 1532 1533
1534 1535 1536 1537 1538 1539 1540 1541 1542 1543 1544 1545 1546 1547 1548
1549 1550 1551 1552 1553 1554 1555 1556 1557 1558 1559 1560 1561 1562 1563
1564 1565 1566 1567 1568 1569 1570 1571 1572 1573 1574 1575 1576 1577 1578
1579 1580 1581 1582 1583 1584 1585 1586 1587 1588 1589 1590 1591 1592 1593
1594 1595 1596 1597 1598 1599 1600 1601 1602 1603 1604 1605 1606 1607 1608
1609 1610 1611 1612 1613 1614 1615 1616 1617 1618 1619 1620 1621 1622 1623
1624 1625 1626 1627 1628 1629 1630 1631 1632 1633 1634 1635 1636 1637 1638
1639 1640 1641 1642 1643 1644 1645 1646 1647 1648 1649 1650 1651 1652 1653
1654 1655 1656 1657 1658 1659 1660 1661 1662 1663 1664 1665 1666 1667 1668
1669 1670 1671 1672 1673 1674 1675 1676 1677 1678 1679 1680 1681 1682 1683
1684 1685 1686 1687 1688 1689 1690 1691 1692 1693 1694 1695 1696 1697 1698
1699 1700 1701 1702 1703 1704 1705 1706 1707 1708 1709 1710 1711 1712 1713
1714 1715 1716 1717 1718 1719 1720 1721 1722 1723 1724 1725 1726 1727 1728
1729 1730 1731 1732 1733 1734 1735 1736 1737 1738 1739 1740 1741 1742 1743
1744 1745 1746 1747 1748 1749 1750 1751 1752 1753 1754 1755 1756 1757 1758
1759 1760 1761 1762 1763 1764 1765 1766 1767 1768 1769 1770 1771 1772 1773
1774 1775 1776 1777 1778 1779 1780 1781 1782 1783 1784 1785 1786 1787 1788
1789 1790 1791 1792 1793 1794 1795 1796 1797 1798 1799 1800 1801 1802 1803
1804 1805 1806 1807 1808 1809 1810 1811 1812 1813 1814 1815 1816 1817 1818
1819 1820 1821 1822 1823 1824 1825 1826 1827 1828 1829 1830 1831 1832 1833
1834 1835 1836 1837 1838 1839 1840 1841 1842 1843 1844 1845 1846 1847 1848
1849 1850 1851 1852 1853 1854 1855 1856 1857 1858 1859 1860 1861 1862 1863
1864 1865 1866 1867 1868 1869 1870 1871 1872 1873 1874 1875 1876 1877 1878
1879 1880 1881 1882 1883 1884 1885 1886 1887 1888 1889 1890 1891 1892 1893
1894 1895 1896 1897 1898 1899 1900 1901 1902 1903 1904 1905 1906 1907 1908
1909 1910 1911 1912 1913 1914 1915 1916 1917 1918 1919 1920 1921 1922 1923
1924 1925 1926 1927 1928 1929 1930 1931 1932 1933 1934 1935 1936 1937 1938
1939 1940 1941 1942 1943 1944 1945 1946 1947 1948 1949 1950 1951 1952 1953
1954 1955 1956 1957 1958 1959 1960 1961 1962 1963 1964 1965 1966 1967 1968
1969 1970 1971 1972 1973 1974 1975 1976 1977 1978 1979 1980 1981 1982 1983
1984 1985 1986 1987 1988 1989 1990 1991 1992 1993 1994 1995 1996 1997 1998
1999 2000 2001 2002 2003 2004 2005 2006 2007 2008 2009 2010 2011 2012 2013
2014 2015 2016 2017 2018 2019 2020 2021 2022 2023 2024 2025 2026 2027 2028
2029 2030 2031 2032 2033 2034 2035 2036 2037 2038 2039 2040 2041 2042 2043
2044 2045 2046 2047 2048 2049 2050 2051 2052 2053 2054 2055 2056 2057 2058
2059 2060 2061 2062 2063 2064 2065 2066 2067 2068 2069 2070 2071 2072 2073
2074 2075 2076 2077 2078 2079 2080 2081 2082 2083 2084 2085 2086 2087 2088
2089 2090 2091 2092 2093 2094 2095 2096 2097 2098 2099 2100 2101 2102 2103
2104 2105 2106 2107 2108 2109 2110 2111 2112 2113 2114 2115 2116 2117 2118
2119 2120 2121 2122 2123 2124 2125 2126 2127 2128 2129 2130 2131 2132 2133
2134 2135 2136 2137 2138 2139 2140 2141 2142 2143 2144 2145 2146 2147 2148
2149 2150 2151 2152 2153 2154 2155 2156 2157 2158 2159 2160 2161 2162 2163
2164 2165 2166 2167 2168 2169 2170 2171 2172 2173 2174 2175 2176 2177 2178
2179 2180 2181 2182 2183 2184 2185 2186 2187 2188 2189 2190 2191 2192 2193
2194 2195 2196 2197 2198 2199 2200 2201 2202 2203 2204 2205 2206 2207 2208
2209 2210 2211 2212 2213 2214 2215 2216 2217 2218 2219 2220 2221 2222 2223
2224 2225 2226 2227 2228 2229 2230 2231 2232 2233 2234 2235 2236 2237 2238
2239 2240 2241 2242 2243 2244 2245 2246 2247 2248 2249 2250 2251 2252 2253
2254 2255 2256 2257 2258 2259 2260 2261 2262 2263 2264 2265 2266 2267 2268
2269 2270 2271 2272 2273 2274 2275 2276 2277 2278 2279 2280 2281 2282 2283
2284 2285 2286 2287 2288 2289 2290 2291 2292 2293 2294 2295 2296 2297 2298
2299 2300 2301 2302 2303 2304 2305 2306 2307 2308 2309 2310 2311 2312 2313
2314 2315 2316 2317 2318 2319 2320 2321 2322 2323 2324 2325 2326 2327 2328
2329 2330 2331 2332 2333 2334 2335 2336 2337 2338 2339 2340 2341 2342 2343
2344 2345 2346 2347 2348 2349 2350 2351 2352 2353 2354 2355 2356 2357 2358
2359 2360 2361 2362 2363 2364 2365 2366 2367 2368 2369 2370 2371 2372 2373
2374 2375 2376 2377 2378 2379 2380 2381 2382 2383 2384 2385 2386 2387 2388
2389 2390 2391 2392 2393 2394 2395 2396 2397 2398 2399 2400 2401 2402 2403
2404 2405 2406 2407 2408 2409 2410 2411 2412 2413 2414 2415 2416 2417 2418
2419 2420 2421 2422 2423 2424 2425 2426 2427 2428 2429 2430 2431 2432 2433
2434 2435 2436 2437 2438 2439 2440 2441 2442 2443 2444 2445 2446 2447 2448
2449 2450 2451 2452 2453 2454 2455 2456 2457 2458 2459 2460 2461 2462 2463
2464 2465 2466 2467 2468 2469 2470 2471 2472 2473 2474 2475 2476 2477 2478
2479 2480 2481 2482 2483 2484 2485 2486 2487 2488 2489 2490 2491 2492 2493
2494 2495 2496 2497 2498 2499 2500 2501 2502 2503 2504 2505 2506 2507 2508
2509 2510 2511 2512 2513 2514 2515 2516 2517 2518 2519 2520 2521 2522 2523
2524 2525 2526 2527 2528 2529 2530 2531 2532 2533 2534 2535 2536 2537 2538
2539 2540 2541 2542 2543 2544 2545 2546 2547 2548 2549 2550 2551 2552 2553
2554 2555 2556 2557 2558 2559 2560 2561 2562 2563 2564 2565 2566 2567 2568
2569 2570 2571 2572 2573 2574 2575 2576 2577 2578 2579 2580 2581 2582 2583
2584 2585 2586 2587 2588 2589 2590 2591 2592 2593 2594 2595 2596 2597 2598
2599 2600 2601 2602 2603 2604 2605 2606 2607 2608 2609 2610 2611 2612 2613
2614 2615 2616 2617 2618 2619 2620 2621 2622 2623 2624 2625 2626 2627 2628
2629 2630 2631 2632 2633 2634 2635 2636 2637 2638 2639 2640 2641 2642 2643
2644 2645 2646 2647 2648 2649 2650 2651 2652 2653 2654 2655 2656 2657 2658
2659 2660 2661 2662 2663 2664 2665 2666 2667 2668 2669 2670 2671 2672 2673
2674 2675 2676 2677 2678 2679 2680 2681 2682 2683 2684 2685 2686 2687 2688
2689 2690 2691 2692 2693 2694 2695 2696 2697 2698 2699 2700 2701 2702 2703
2704 2705 2706 2707 2708 2709 2710 2711 2712 2713 2714 2715 2716 2717 2718
2719 2720 2721 2722 2723 2724 2725 2726 2727 2728 2729 2730 2731 2732 2733
2734 2735 2736 2737 2738 2739 2740 2741 2742 2743 2744 2745 2746 2747 2748
2749 2750 2751 2752 2753 2754 2755 2756 2757 2758 2759 2760 2761 2762 2763
2764 2765 2766 2767 2768 2769 2770 2771 2772 2773 2774 2775 2776 2777 2778
2779 2780 2781 2782 2783 2784 2785 2786 2787 2788 2789 2790 2791 2792 2793
2794 2795 2796 2797 2798 2799 2800 2801 2802 2803 2804 2805 2806 2807 2808
2809 2810 2811 2812 2813 2814 2815 2816 2817 2818 2819 2820 2821 2822 2823
2824 2825 2826 2827 2828 2829 2830 2831 2832 2833 2834 2835 2836 2837 2838
2839 2840 2841 2842 2843 2844 2845 2846 2847 2848 2849 2850 2851 2852 2853
2854 2855 2856 2857 2858 2859 2860 2861 2862 2863 2864 2865 2866 2867 2868
2869 2870 2871 2872 2873 2874 2875 2876 2877 2878 2879 2880 2881 2882 2883
2884 2885 2886 2887 2888 2889 2890 2891 2892 2893 2894 2895 2896 2897 2898
2899 2900 2901 2902 2903 2904 2905 2906 2907 2908 2909 2910 2911 2912 2913
2914 2915 2916 2917 2918 2919 2920 2921 2922 2923 2924 2925 2926 2927 2928
2929 2930 2931 2932 2933 2934 2935 2936 2937 2938 2939 2940 2941 2942 2943
2944 2945 2946 2947 2948 2949 2950 2951 2952 2953 2954 2955 2956 2957 2958
2959 2960 2961 2962 2963 2964 2965 2966 2967 2968 2969 2970 2971 2972 2973
2974 2975 2976 2977 2978 2979 2980 2981 2982 2983 2984 2985 2986 2987 2988
2989 2990 2991 2992 2993 2994 2995 2996 2997 2998 2999 3000 3001 3002 3003
3004 3005 3006 3007 3008 3009 3010 3011 3012 3013 3014 3015 3016 3017 3018
3019 3020 3021 3022 3023 3024 3025 3026 3027 3028 3029 3030 3031 3032 3033
3034 3035 3036 3037 3038 3039 3040 3041 3042 3043 3044 3045 3046 3047 3048
3049 3050 3051 3052 3053 3054 3055 3056 3057 3058 3059 3060 3061 3062 3063
3064 3065 3066 3067 3068 3069 3070 3071 3072 3073 3074 3075 3076 3077 3078
3079 3080 3081 3082 3083 3084 3085 3086 3087 3088 3089 3090 3091 3092 3093
3094 3095 3096 3097 3098 3099 3100 3101 3102 3103 3104 3105 3106 3107 3108
3109 3110 3111 3112 3113 3114 3115 3116 3117 3118 3119 3120 3121 3122 3123
3124 3125 3126 3127 3128 3129 3130 3131 3132 3133 3134 3135 3136 3137 3138
3139 3140 3141 3142 3143 3144 3145 3146 3147 3148 3149 3150 3151 3152 3153
3154 3155 3156 3157 3158 3159 3160 3161 3162 3163 3164 3165 3166 3167 3168
3169 3170 3171 3172 3173 3174 3175 3176 3177 3178 3179 3180 3181 3182 3183
3184 3185 3186 3187 3188 3189 3190 3191 3192 3193 3194 3195 3196 3197 3198
3199 3200 3201 3202 3203 3204 3205 3206 3207 3208 3209 3210 3211 3212 3213
3214 3215 3216 3217 3218 3219 3220 3221 3222 3223 3224 3225 3226 3227 3228
3229 3230 3231 3232 3233 3234 3235 3236 3237 3238 3239 3240 3241 3242 3243
3244 3245 3246 3247 3248 3249 3250 3251 3252 3253 3254 3255 3256 3257 3258
3259 3260 3261 3262 3263 3264 3265 3266 3267 3268 3269 3270 3271 3272 3273
3274 3275 3276 3277 3278 3279 3280 3281 3282 3283 3284 3285 3286 3287 3288
3289 3290 3291 3292 3293 3294 3295 3296 3297 3298 3299 3300 3301 3302 3303
3304 3305 3306 3307 3308 3309 3310 3311 3312 3313 3314 3315 3316 3317 3318
3319 3320 3321 3322 3323 3324 3325 3326 3327 3328 3329 3330 3331 3332 3333
3334 3335 3336 3337 3338 3339 3340 3341 3342 3343 3344 3345 3346 3347 3348
3349 3350 3351 3352 3353 3354 3355 3356 3357 3358 3359 3360 3361 3362 3363
3364 3365 3366 3367 3368 3369 3370 3371 3372 3373 3374 3375 3376 3377 3378
3379 3380 3381 3382 3383 3384 3385 3386 3387 3388 3389 3390 3391 3392 3393
3394 3395 3396 3397 3398 3399 3400 3401 3402 3403 3404 3405 3406 3407 3408
3409 3410 3411 3412 3413 3414 3415 3416 3417 3418 3419 3420 3421 3422 3423
3424 3425 3426 3427 3428 3429 3430 3431 3432 3433 3434 3435 3436 3437 3438
3439 3440 3441 3442 3443 3444 3445 3446 3447 3448 3449 3450 3451 3452 3453
3454 3455 3456 3457 3458 3459 3460 3461 3462 3463 3464 3465 3466 3467 3468
3469 3470 3471 3472 3473 3474 3475 3476 3477 3478 3479 3480 3481 3482 3483
3484 3485 3486 3487 3488 3489 3490 3491 3492 3493 3494 3495 3496 3497 3498
3499 3500 3501 3502 3503 3504 3505 3506 3507 3508 3509 3510 3511 3512 3513
3514 3515 3516 3517 3518 3519 3520 3521 3522 3523 3524 3525 3526 3527 3528
3529 3530 3531 3532 3533 3534 3535 3536 3537 3538 3539 3540 3541 3542 3543
3544 3545 3546 3547 3548 3549 3550 3551 3552 3553 3554 3555 3556 3557 3558
3559 3560 3561 3562 3563 3564 3565 3566 3567 3568 3569 3570 3571 3572 3573
3574 3575 3576 3577 3578 3579 3580 3581 3582 3583 3584 3585 3586 3587 3588
3589 3590 3591 3592 3593 3594 3595 3596 3597 3598 3599 3600 3601 3602 3603
3604 3605 3606 3607 3608 3609 3610 3611 3612 3613 3614 3615 3616 3617 3618
3619 3620 3621 3622 3623 3624 3625 3626 3627 3628 3629 3630 3631 3632 3633
3634 3635 3636 3637 3638 3639 3640 3641 3642 3643 3644 3645 3646 3647 3648
3649 3650 3651 3652 3653 3654 3655 3656 3657 3658 3659 3660 3661 3662 3663
3664 3665 3666 3667 3668 3669 3670 3671 3672 3673 3674 3675 3676 3677 3678
3679 3680 3681 3682 3683 3684 3685 3686 3687 3688 3689 3690 3691 3692 3693
3694 3695 3696 3697 3698 3699 3700 3701 3702 3703 3704 3705 3706 3707 3708
3709 3710 3711 3712 3713 3714 3715 3716 3717 3718 3719 3720 3721 3722 3723
3724 3725 3726 3727 3728 3729 3730 3731 3732 3733 3734 3735 3736 3737 3738
3739 3740 3741 3742 3743 3744 3745 3746 3747 3748 3749 3750 3751 3752 3753
3754 3755 3756 3757 3758 3759 3760 3761 3762 3763 3764 3765 3766 3767 3768
3769 3770 3771 3772 3773 3774 3775 3776 3777 3778 3779 3780 3781 3782 3783
3784 3785 3786 3787 3788 3789 3790 3791 3792 3793 3794 3795 3796 3797 3798
3799 3800 3801 3802 3803 3804 3805 3806 3807 3808 3809 3810 3811 3812 3813
3814 3815 3816 3817 3818 3819 3820 3821 3822 3823 3824 3825 3826 3827 3828
3829 3830 3831 3832 3833 3834 3835 3836 3837 3838 3839 3840 3841 3842 3843
3844 3845 3846 3847 3848 3849 3850 3851 3852 3853 3854 3855 3856 3857 3858
3859 3860 3861 3862 3863 3864 3865 3866 3867 3868 3869 3870 3871 3872 3873
3874 3875 3876 3877 3878 3879 3880 3881 3882 3883 3884 3885 3886 3887 3888
3889 3890 3891 3892 3893 3894 3895 3896 3897 3898 3899 3900 3901 3902 3903
3904 3905 3906 3907 3908 3909 3910 3911 3912 3913 3914 3915 3916 3917 3918
3919 3920 3921 3922 3923 3924 3925 3926 3927 3928 3929 3930 3931 3932 3933
3934 3935 3936 3937 3938 3939 3940 3941 3942 3943 3944 3945 3946 3947 3948
3949 3950 3951 3952 3953 3954 3955 3956 3957 3958 3959 3960 3961 3962 3963
3964 3965 3966 3967 3968 3969 3970 3971 3972 3973 3974 3975 3976 3977 3978
3979 3980 3981 3982 3983 3984 3985 3986 3987 3988 3989 3990 3991 3992 3993
3994 3995 3996 3997 3998 3999 4000 4001 4002 4003 4004 4005 4006 4007 4008
4009 4010 4011 4012 4013 4014 4015 4016 4017 4018 4019 4020 4021 4022 4023
4024 4025 4026 4027 4028 4029 4030 4031 4032 4033 4034 4035 4036 4037 4038
4039 4040 4041 4042 4043 4044 4045 4046 4047 4048 4049 4050 4051 4052 4053
4054 4055 4056 4057 4058 4059 4060 4061 4062 4063 4064 4065 4066 4067 4068
4069 4070 4071 4072 4073 4074 4075 4076 4077 4078 4079 4080 4081 4082 4083
4084 4085 4086 4087 4088 4089 4090 4091 4092 4093 4094 4095 4096 4097 4098
4099 4100 4101 4102 4103 4104 4105 4106 4107 4108 4109 4110 4111 4112 4113
4114 4115 4116 4117 4118 4119 4120 4121 4122 4123 4124 4125 4126 4127 4128
4129 4130 4131 4132 4133 4134 4135 4136 4137 4138 4139 4140 4141 4142 4143
4144 4145 4146 4147 4148 4149 4150 4151 4152 4153 4154 4155 4156 4157 4158
4159 4160 4161 4162 4163 4164 4165 4166 4167 4168 4169 4170 4171 4172 4173
4174 4175 4176 4177 4178 4179 4180 4181 4182 4183 4184 4185 4186 4187 4188
4189 4190 4191 4192 4193 4194 4195 4196 4197 4198 4199 4200 4201 4202 4203
4204 4205 4206 4207 4208 4209 4210 4211 4212 4213 4214 4215 4216 4217 4218
4219 4220 4221 4222 4223 4224 4225 4226 4227 4228 4229 4230 4231 4232 4233
4234 4235 4236 4237 4238 4239 4240 4241 4242 4243 4244 4245 4246 4247 4248
4249 4250 4251 4252 4253 4254 4255 4256 4257 4258 4259 4260 4261 4262 4263
4264 4265 4266 4267 4268 4269 4270 4271 4272 4273 4274 4275 4276 4277 4278
4279 4280 4281 4282 4283 4284 4285 4286 4287 4288 4289 4290 4291 4292 4293
4294 4295 4296 4297 4298 4299 4300 4301 4302 4303 4304 4305 4306 4307 4308
4309 4310 4311 4312 4313 4314 4315 4316 4317 4318 4319 4320 4321 4322 4323
4324 4325 4326 4327 4328 4329 4330 4331 4332 4333 4334 4335 4336 4337 4338
4339 4340 4341 4342 4343 4344 4345 4346 4347 4348 4349 4350 4351 4352 4353
4354 4355 4356 4357 4358 4359 4360 4361 4362 4363 4364 4365 4366 4367 4368
4369 4370 4371 4372 4373 4374 4375 4376 4377 4378 4379 4380 4381 4382 4383
4384 4385 4386 4387 4388 4389 4390 4391 4392 4393 4394 4395 4396 4397 4398
4399 4400 4401 4402 4403 4404 4405 4406 4407 4408 4409 4410 4411 4412 4413
4414 4415 4416 4417 4418 4419 4420 4421 4422 4423 4424 4425 4426 4427 4428
4429 4430 4431 4432 4433 4434 4435 4436 4437 4438 4439 4440 4441 4442 4443
4444 4445 4446 4447 4448 4449 4450 4451 4452 4453 4454 4455 4456 4457 4458
4459 4460 4461 4462 4463 4464 4465 4466 4467 4468 4469 4470 4471 4472 4473
4474 4475 4476 4477 4478 4479 4480 4481 4482 4483 4484 4485 4486 4487 4488
4489 4490 4491 4492 4493 4494 4495 4496 4497 4498 4499 4500 4501 4502 4503
4504 4505 4506 4507 4508 4509 4510 4511 4512 4513 4514 4515 4516 4517 4518
4519 4520 4521 4522 4523 4524 4525 4526 4527 4528 4529 4530 4531 4532 4533
4534 4535 4536 4537 4538 4539 4540 4541 4542 4543 4544 4545 4546 4547 4548
4549 4550 4551 4552 4553 4554 4555 4556 4557 4558 4559 4560 4561 4562 4563
4564 4565 4566 4567 4568 4569 4570 4571 4572 4573 4574 4575 4576 4577 4578
4579 4580 4581 4582 4583 4584 4585 4586 4587 4588 4589 4590 4591 4592 4593
4594 4595 4596 4597 4598 4599 4600 4601 4602 4603 4604 4605 4606 4607 4608
4609 4610 4611 4612 4613 4614 4615 4616 4617 4618 4619 4620 4621 4622 4623
4624 4625 4626 4627 4628 4629 4630 4631 4632 4633 4634 4635 4636 4637 4638
4639 4640 4641 4642 4643 4644 4645 4646 4647 4648 4649 4650 4651 4652 4653
4654 4655 4656 4657 4658 4659 4660 4661 4662 4663 4664 4665 4666 4667 4668
4669 4670 4671 4672 4673 4674 4675 4676 4677 4678 4679 4680 4681 4682 4683
4684 4685 4686 4687 4688 4689 4690 4691 4692 4693 4694 4695 4696 4697 4698
4699 4700 4701 4702 4703 4704 4705 4706 4707 4708 4709 4710 4711 4712 4713
4714 4715 4716 4717 4718 4719 4720 4721 4722 4723 4724 4725 4726
