[ System ]
   1    2    3    4    5    6    7    8    9   10   11   12   13   14   15
  16   17   18   19   20   21   22   23   24   25   26   27   28   29   30
  31   32   33   34   35   36   37   38   39   40   41   42   43   44   45
  46   47   48   49   50   51   52   53   54   55   56   57   58   59   60
  61   62   63   64   65   66   67   68   69   70   71   72   73   74   75
  76   77   78   79   80   81   82   83   84   85   86   87   88   89   90
  91   92   93   94   95   96   97   98   99  100  101  102  103  104  105
 106  107  108  109  110  111  112  113  114  115  116  117  118  119  120
 121  122  123  124  125  126  127  128  129  130  131  132  133  134  135
 136  137  138  139  140  141  142  143  144  145  146  147  148  149  150
 151  152  153  154  155  156  157  158  159  160  161  162  163  164  165
 166  167  168  169  170  171  172  173  174  175  176  177  178  179  180
 181  182  183  184  185  186  187  188  189  190  191  192  193  194  195
 196  197  198  199  200  201  202  203  204  205  206  207  208  209  210
 211  212  213  214  215  216  217  218  219  220  221  222  223  224  225
 226  227  228  229  230  231  232  233  234  235  236  237  238  239  240
 241  242  243  244  245  246  247  248  249  250  251  252  253  254  255
 256  257  258  259  260  261  262  263  264  265  266  267  268  269  270
 271  272  273  274  275  276  277  278  279  280  281  282  283  284  285
 286  287  288  289  290  291  292  293  294  295  296  297  298  299  300
 301  302  303  304  305  306  307  308  309  310  311  312  313  314  315
 316  317  318  319  320  321  322  323  324  325  326  327  328  329  330
 331  332  333  334  335  336  337  338  339  340  341  342  343  344  345
 346  347  348  349  350  351  352  353  354  355  356  357  358  359  360
 361  362  363  364  365  366  367  368  369  370  371  372  373  374  375
 376  377  378  379  380  381  382  383  384  385  386  387  388  389  390
 391  392  393  394  395  396  397  398  399  400  401  402  403  404  405
 406  407  408  409  410  411  412  413  414  415  416  417  418  419  420
 421  422  423  424  425  426  427  428  429  430  431  432  433  434  435
 436  437  438  439  440  441  442  443  444  445  446  447  448  449  450
 451  452  453  454  455  456  457  458  459  460  461  462  463  464  465
 466  467  468  469  470  471  472  473  474  475  476  477  478  479  480
 481  482  483  484  485  486  487  488  489  490  491  492  493  494  495
 496  497  498  499  500  501  502  503  504  505  506  507  508  509  510
 511  512  513  514  515  516  517  518  519  520  521  522  523  524  525
 526  527  528  529  530  531  532  533  534  535  536  537  538  539  540
 541  542  543  544  545  546  547  548  549  550  551  552  553  554  555
 556  557  558  559  560  561  562  563  564  565  566  567  568  569  570
 571  572  573  574  575  576  577  578  579  580  581  582  583  584  585
 586  587  588  589  590  591  592  593  594  595  596  597  598  599  600
 601  602  603  604  605  606  607  608  609  610  611  612  613  614  615
 616  617  618  619  620  621  622  623  624  625  626  627  628  629  630
 631  632  633  634  635  636  637  638  639  640  641  642  643  644  645
 646  647  648  649  650  651  652  653  654  655  656  657  658  659  660
 661  662  663  664  665  666  667  668  669  670  671  672  673  674  675
 676  677  678  679  680  681  682  683  684  685  686  687  688  689  690
 691  692  693  694  695  696  697  698  699  700  701  702  703  704  705
 706  707  708  709  710  711  712  713  714  715  716  717  718  719  720
 721  722  723  724  725  726  727  728  729  730  731  732  733  734  735
 736  737  738  739  740  741  742  743  744  745  746  747  748  749  750
 751  752  753  754  755  756  757  758  759  760  761  762  763  764  765
 766  767  768  769  770  771  772  773  774  775  776  777  778  779  780
 781  782  783  784  785  786  787  788  789  790  791  792  793  794  795
 796  797  798  799  800  801  802  803  804  805  806  807  808  809  810
 811  812  813  814  815  816  817  818  819  820  821  822  823  824  825
 826  827  828  829  830  831  832  833  834  835  836  837  838  839  840
 841  842  843  844  845  846  847  848  849  850  851  852  853  854  855
 856  857  858  859  860  861  862  863  864  865  866  867  868  869  870
 871  872  873  874  875  876  877  878  879  880  881  882  883  884  885
 886  887  888  889  890  891  892  893  894  895  896  897  898  899  900
 901  902  903  904  905  906  907  908  909  910  911  912  913  914  915
 916  917  918  919  920  921  922  923  924  925  926  927  928  929  930
 931  932  933  934  935  936  937  938  939  940  941  942  943  944  945
 946  947  948  949  950  951  952  953  954  955  956  957  958  959  960
 961  962  963  964  965  966  967  968  969  970  971  972  973  974  975
 976  977  978  979  980  981  982  983  984  985  986  987  988  989  990
 991  992  993  994  995  996  997  998  999 1000 1001 1002 1003 1004 1005
1006 1007 1008 1009 1010 1011 1012 1013 1014 1015 1016 1017 1018 1019 1020
1021 1022 1023 1024 1025 1026 1027 1028 1029 1030 1031 1032 1033 1034 1035
1036 1037 1038 1039 1040 1041 1042 1043 1044 1045 1046 1047 1048 1049 1050
1051 1052 1053 1054 1055 1056 1057 1058 1059 1060 1061 1062 1063 1064 1065
1066 1067 1068 1069 1070 1071 1072 1073 1074 1075 1076 1077 1078 1079 1080
1081 1082 1083 1084 1085 1086 1087 1088 1089 1090 1091 1092 1093 1094 1095
1096 1097 1098 1099 1100 1101 1102 1103 1104 1105 1106 1107 1108 1109 1110
1111 1112 1113 1114 1115 1116 1117 1118 1119 1120 1121 1122 1123 1124 1125
1126 1127 1128 1129 1130 1131 1132 1133 1134 1135 1136 1137 1138 1139 1140
1141 1142 1143 1144 1145 1146 1147 1148 1149 1150 1151 1152 1153 1154 1155
1156 1157 1158 1159 1160 1161 1162 1163 1164 1165 1166 1167 1168 1169 1170
1171 1172 1173 1174 1175 1176 1177 1178 1179 1180 1181 1182 1183 1184 1185
1186 1187 1188 1189 1190 1191 1192 1193 1194 1195 1196 1197 1198 1199 1200
1201 1202 1203 1204 1205 1206 1207 1208 1209 1210 1211 1212 1213 1214 1215
1216 1217 1218 1219 1220 1221 1222 1223 1224 1225 1226 1227 1228 1229 1230
1231 1232 1233 1234 1235 1236 1237 1238 1239 1240 1241 1242 1243 1244 1245
1246 1247 1248 1249 1250 1251 1252 1253 1254 1255 1256 1257 1258 1259 1260
1261 1262 1263 1264 1265 1266 1267 1268 1269 1270 1271 1272 1273 1274 1275
1276 1277 1278 1279 1280 1281 1282 1283 1284 1285 1286 1287 1288 1289 1290
1291 1292 1293 1294 1295 1296 1297 1298 1299 1300 1301 1302 1303 1304 1305
1306 1307 1308 1309 1310 1311 1312 1313 1314 1315 1316 1317 1318 1319 1320
1321 1322 1323 1324 1325 1326 1327 1328 1329 1330 1331 1332 1333 1334 1335
1336 1337 1338 1339 1340 1341 1342 1343 1344 1345 1346 1347 1348 1349 1350
1351 1352 1353 1354 1355 1356 1357 1358 1359 1360 1361 1362 1363 1364 1365
1366 1367 1368 1369 1370 1371 1372 1373 1374 1375 1376 1377 1378 1379 1380
1381 1382 1383 1384 1385 1386 1387 1388 1389 1390 1391 1392 1393 1394 1395
1396 1397 1398 1399 1400 1401 1402 1403 1404 1405 1406 1407 1408 1409 1410
1411 1412 1413 1414 1415 1416 1417 1418 1419 1420 1421 1422 1423 1424 1425
1426 1427 1428 1429 1430 1431 1432 1433 1434 1435 1436 1437 1438 1439 1440
1441 1442 1443 1444 1445 1446 1447 1448 1449 1450 1451 1452 1453 1454 1455
1456 1457 1458 1459 1460 1461 1462 1463 1464 1465 1466 1467 1468 1469 1470
1471 1472 1473 1474 1475 1476 1477 1478 1479 1480 1481 1482 1483 1484 1485
1486 1487 1488 1489 1490 1491 1492 1493 1494 1495 1496 1497 1498 1499 1500
1501 1502 1503 1504 1505 1506 1507 1508 1509 1510 1511 1512 1513 1514 1515
1516 1517 1518 1519 1520 1521 1522 1523 1524 1525 1526 1527 1528 1529 1530
1531 1532 1533 1534 1535 1536 1537 1538 1539 1540 1541 1542 1543 1544 1545
1546 1547 1548 1549 1550 1551 1552 1553 1554 1555 1556 1557 1558 1559 1560
1561 1562 1563 1564 1565 1566 1567 1568 1569 1570 1571 1572 1573 1574 1575
1576 1577 1578 1579 1580 1581 1582 1583 1584 1585 1586 1587 1588 1589 1590
1591 1592 1593 1594 1595 1596 1597 1598 1599 1600 1601 1602 1603 1604 1605
1606 1607 1608 1609 1610 1611 1612 1613 1614 1615 1616 1617 1618 1619 1620
1621 1622 1623 1624 1625 1626 1627 1628 1629 1630 1631 1632 1633 1634 1635
1636 1637 1638 1639 1640 1641 1642 1643 1644 1645 1646 1647 1648 1649 1650
1651 1652 1653 1654 1655 1656 1657 1658 1659 1660 1661 1662 1663 1664 1665
1666 1667 1668 1669 1670 1671 1672 1673 1674 1675 1676 1677 1678 1679 1680
1681 1682 1683 1684 1685 1686 1687 1688 1689 1690 1691 1692 1693 1694 1695
1696 1697 1698 1699 1700 1701 1702 1703 1704 1705 1706 1707 1708 1709 1710
1711 1712 1713 1714 1715 1716 1717 1718 1719 1720 1721 1722 1723 1724 1725
1726 1727 1728 1729 1730 1731 1732 1733 1734 1735 1736 1737 1738 1739 1740
1741 1742 1743 1744 1745 1746 1747 1748 1749 1750 1751 1752 1753 1754 1755
1756 1757 1758 1759 1760 1761 1762 1763 1764 1765 1766 1767 1768 1769 1770
1771 1772 1773 1774 1775 1776 1777 1778 1779 1780 1781 1782 1783 1784 1785
1786 1787 1788 1789 1790 1791 1792 1793 1794 1795 1796 1797 1798 1799 1800
1801 1802 1803 1804 1805 1806 1807 1808 1809 1810 1811 1812 1813 1814 1815
1816 1817 1818 1819 1820 1821 1822 1823 1824 1825 1826 1827 1828 1829 1830
1831 1832 1833 1834 1835 1836 1837 1838 1839 1840 1841 1842 1843 1844 1845
1846 1847 1848 1849 1850 1851 1852 1853 1854 1855 1856 1857 1858 1859 1860
1861 1862 1863 1864 1865 1866 1867 1868 1869 1870 1871 1872 1873 1874 1875
1876 1877 1878 1879 1880 1881 1882 1883 1884 1885 1886 1887 1888 1889 1890
1891 1892 1893 1894 1895 1896 1897 1898 1899 1900 1901 1902 1903 1904 1905
1906 1907 1908 1909 1910 1911 1912 1913 1914 1915 1916 1917 1918 1919 1920
1921 1922 1923 1924 1925 1926 1927 1928 1929 1930 1931 1932 1933 1934 1935
1936 1937 1938 1939 1940 1941 1942 1943 1944 1945 1946 1947 1948 1949 1950
1951 1952 1953 1954 1955 1956 1957 1958 1959 1960 1961 1962 1963 1964 1965
1966 1967 1968 1969 1970 1971 1972 1973 1974 1975 1976 1977 1978 1979 1980
1981 1982 1983 1984 1985 1986 1987 1988 1989 1990 1991 1992 1993 1994 1995
1996 1997 1998 1999 2000 2001 2002 2003 2004 2005 2006 2007 2008 2009 2010
2011 2012 2013 2014 2015 2016 2017 2018 2019 2020 2021 2022 2023 2024 2025
2026 2027 2028 2029 2030 2031 2032 2033 2034 2035 2036 2037 2038 2039 2040
2041 2042 2043 2044 2045 2046 2047 2048 2049 2050 2051 2052 2053 2054 2055
2056 2057 2058 2059 2060 2061 2062 2063 2064 2065 2066 2067 2068 2069 2070
2071 2072 2073 2074 2075 2076 2077 2078 2079 2080 2081 2082 2083 2084 2085
2086 2087 2088 2089 2090 2091 2092 2093 2094 2095 2096 2097 2098 2099 2100
2101 2102 2103 2104 2105 2106 2107 2108 2109 2110 2111 2112 2113 2114 2115
2116 2117 2118 2119 2120 2121 2122 2123 2124 2125 2126 2127 2128 2129 2130
2131 2132 2133 2134 2135 2136 2137 2138 2139 2140 2141 2142 2143 2144 2145
2146 2147 2148 2149 2150 2151 2152 2153 2154 2155 2156 2157 2158 2159 2160
2161 2162 2163 2164 2165 2166 2167 2168 2169 2170 2171 2172 2173 2174 2175
2176 2177 2178 2179 2180 2181 2182 2183 2184 2185 2186 2187 2188 2189 2190
2191 2192 2193 2194 2195 2196 2197 2198 2199 2200 2201 2202 2203 2204 2205
2206 2207 2208 2209 2210 2211 2212 2213 2214 2215 2216 2217 2218 2219 2220
2221 2222 2223 2224 2225 2226 2227 2228 2229 2230 2231 2232 2233 2234 2235
2236 2237 2238 2239 2240 2241 2242 2243 2244 2245 2246 2247 2248 2249 2250
2251 2252 2253 2254 2255 2256 2257 2258 2259 2260 2261 2262 2263 2264 2265
2266 2267 2268 2269 2270 2271 2272 2273 2274 2275 2276 2277 2278 2279 2280
2281 2282 2283 2284 2285 2286 2287 2288 2289 2290 2291 2292 2293 2294 2295
2296 2297 2298 2299 2300 2301 2302 2303 2304 2305 2306 2307 2308 2309 2310
2311 2312 2313 2314 2315 2316 2317 2318 2319 2320 2321 2322 2323 2324 2325
2326 2327 2328 2329 2330 2331 2332 2333 2334 2335 2336 2337 2338 2339 2340
2341 2342 2343 2344 2345 2346 2347 2348 2349 2350 2351 2352 2353 2354 2355
2356 2357 2358 2359 2360 2361 2362 2363 2364 2365 2366 2367 2368 2369 2370
2371 2372 2373 2374 2375 2376 2377 2378 2379 2380 2381 2382 2383 2384 2385
2386 2387 2388 2389 2390 2391 2392 2393 2394 2395 2396 2397 2398 2399 2400
2401 2402 2403 2404 2405 2406 2407 2408 2409 2410 2411 2412 2413 2414 2415
2416 2417 2418 2419 2420 2421 2422 2423 2424 2425 2426 2427 2428 2429 2430
2431 2432 2433 2434 2435 2436 2437 2438 2439 2440 2441 2442 2443 2444 2445
2446 2447 2448 2449 2450 2451 2452 2453 2454 2455 2456 2457 2458 2459 2460
2461 2462 2463 2464 2465 2466 2467 2468 2469 2470 2471 2472 2473 2474 2475
2476 2477 2478 2479 2480 2481 2482 2483 2484 2485 2486 2487 2488 2489 2490
2491 2492 2493 2494 2495 2496 2497 2498 2499 2500 2501 2502 2503 2504 2505
2506 2507 2508 2509 2510 2511 2512 2513 2514 2515 2516 2517 2518 2519 2520
2521 2522 2523 2524 2525 2526 2527 2528 2529 2530 2531 2532 2533 2534 2535
2536 2537 2538 2539 2540 2541 2542 2543 2544 2545 2546 2547 2548 2549 2550
2551 2552 2553 2554 2555 2556 2557 2558 2559 2560 2561 2562 2563 2564 2565
2566 2567 2568 2569 2570 2571 2572 2573 2574 2575 2576 2577 2578 2579 2580
2581 2582 2583 2584 2585 2586 2587 2588 2589 2590 2591 2592 2593 2594 2595
2596 2597 2598 2599 2600 2601 2602 2603 2604 2605 2606 2607 2608 2609 2610
2611 2612 2613 2614 2615 2616 2617 2618 2619 2620 2621 2622 2623 2624 2625
2626 2627 2628 2629 2630 2631 2632 2633 2634 2635 2636 2637 2638 2639 2640
2641 2642 2643 2644 2645 2646 2647 2648 2649 2650 2651 2652 2653 2654 2655
2656 2657 2658 2659 2660 2661 2662 2663 2664 2665 2666 2667 2668 2669 2670
2671 2672 2673 2674 2675 2676 2677 2678 2679 2680 2681 2682 2683 2684 2685
2686 2687 2688 2689 2690 2691 2692 2693 2694 2695 2696 2697 2698 2699 2700
2701 2702 2703 2704 2705 2706 2707 2708 2709 2710 2711 2712 2713 2714 2715
2716 2717 2718 2719 2720 2721 2722 2723 2724 2725 2726 2727 2728 2729 2730
2731 2732 2733 2734 2735 2736 2737 2738 2739 2740 2741 2742 2743 2744 2745
2746 2747 2748 2749 2750 2751 2752 2753 2754 2755 2756 2757 2758 2759 2760
2761 2762 2763 2764 2765 2766 2767 2768 2769 2770 2771 2772 2773 2774 2775
2776 2777 2778 2779 2780 2781 2782 2783 2784 2785 2786 2787 2788 2789 2790
2791 2792 2793 2794 2795 2796 2797 2798 2799 2800 2801 2802 2803 2804 2805
2806 2807 2808 2809 2810 2811 2812 2813 2814 2815 2816 2817 2818 2819 2820
2821 2822 2823 2824 2825 2826 2827 2828 2829 2830 2831 2832 2833 2834 2835
2836 2837 2838 2839 2840 2841 2842 2843 2844 2845 2846 2847 2848 2849 2850
2851 2852 2853 2854 2855 2856 2857 2858 2859 2860 2861 2862 2863 2864 2865
2866 2867 2868 2869 2870 2871 2872 2873 2874 2875 2876 2877 2878 2879 2880
2881 2882 2883 2884 2885 2886 2887 2888 2889 2890 2891 2892 2893 2894 2895
2896 2897 2898 2899 2900 2901 2902 2903 2904 2905 2906 2907 2908 2909 2910
2911 2912 2913 2914 2915 2916 2917 2918 2919 2920 2921 2922 2923 2924 2925
2926 2927 2928 2929 2930 2931 2932 2933 2934 2935 2936 2937 2938 2939 2940
2941 2942 2943 2944 2945 2946 2947 2948 2949 2950 2951 2952 2953 2954 2955
2956 2957 2958 2959 2960 2961 2962 2963 2964 2965 2966 2967 2968 2969 2970
2971 2972 2973 2974 2975 2976 2977 2978 2979 2980 2981 2982 2983 2984 2985
2986 2987 2988 2989 2990 2991 2992 2993 2994 2995 2996 2997 2998 2999 3000
3001 3002 3003 3004 3005 3006 3007 3008 3009 3010 3011 3012 3013 3014 3015
3016 3017 3018 3019 3020 3021 3022 3023 3024 3025 3026 3027 3028 3029 3030
3031 3032 3033 3034 3035 3036 3037 3038 3039 3040 3041 3042 3043 3044 3045
3046 3047 3048 3049 3050 3051 3052 3053 3054 3055 3056 3057 3058 3059 3060
3061 3062 3063 3064 3065 3066 3067 3068 3069 3070 3071 3072 3073 3074 3075
3076 3077 3078 3079 3080 3081 3082 3083 3084 3085 3086 3087 3088 3089 3090
3091 3092 3093 3094 3095 3096 3097 3098 3099 3100 3101 3102 3103 3104 3105
3106 3107 3108 3109 3110 3111 3112 3113 3114 3115 3116 3117 3118 3119 3120
3121 3122 3123 3124 3125 3126 3127 3128 3129 3130 3131 3132 3133 3134 3135
3136 3137 3138 3139 3140 3141 3142 3143 3144 3145 3146 3147 3148 3149 3150
3151 3152 3153 3154 3155 3156 3157 3158 3159 3160 3161 3162 3163 3164 3165
3166 3167 3168 3169 3170 3171 3172 3173 3174 3175 3176 3177 3178 3179 3180
3181 3182 3183 3184 3185 3186 3187 3188 3189 3190 3191 3192 3193 3194 3195
3196 3197 3198 3199 3200 3201 3202 3203 3204 3205 3206 3207 3208 3209 3210
3211 3212 3213 3214 3215 3216 3217 3218 3219 3220 3221 3222 3223 3224 3225
3226 3227 3228 3229 3230 3231 3232 3233 3234 3235 3236 3237 3238 3239 3240
3241 3242 3243 3244 3245 3246 3247 3248 3249 3250 3251 3252 3253 3254 3255
3256 3257 3258 3259 3260 3261 3262 3263 3264 3265 3266 3267 3268 3269 3270
3271 3272 3273 3274 3275 3276 3277 3278 3279 3280 3281 3282 3283 3284 3285
3286 3287 3288 3289 3290 3291 3292 3293 3294 3295 3296 3297 3298 3299 3300
3301 3302 3303 3304 3305 3306 3307 3308 3309 3310 3311 3312 3313 3314 3315
3316 3317 3318 3319 3320 3321 3322 3323 3324 3325 3326 3327 3328 3329 3330
3331 3332 3333 3334 3335 3336 3337 3338 3339 3340 3341 3342 3343 3344 3345
3346 3347 3348 3349 3350 3351 3352 3353 3354 3355 3356 3357 3358 3359 3360
3361 3362 3363 3364 3365 3366 3367 3368 3369 3370 3371 3372 3373 3374 3375
3376 3377 3378 3379 3380 3381 3382 3383 3384 3385 3386 3387 3388 3389 3390
3391 3392 3393 3394 3395 3396 3397 3398 3399 3400 3401 3402 3403 3404 3405
3406 3407 3408 3409 3410 3411 3412 3413 3414 3415 3416 3417 3418 3419 3420
3421 3422 3423 3424 3425 3426 3427 3428 3429 3430 3431 3432 3433 3434 3435
3436 3437 3438 3439 3440 3441 3442 3443 3444 3445 3446 3447 3448 3449 3450
3451 3452 3453 3454 3455 3456 3457 3458 3459 3460 3461 3462 3463 3464 3465
3466 3467 3468 3469 3470 3471 3472 3473 3474 3475 3476 3477 3478 3479 3480
3481 3482 3483 3484 3485 3486 3487 3488 3489 3490 3491 3492 3493 3494 3495
3496 3497 3498 3499 3500 3501 3502 3503 3504 3505 3506 3507 3508 3509 3510
3511 3512 3513 3514 3515 3516 3517 3518 3519 3520 3521 3522 3523 3524 3525
3526 3527 3528 3529 3530 3531 3532 3533 3534 3535 3536 3537 3538 3539 3540
3541 3542 3543 3544 3545 3546 3547 3548 3549 3550 3551 3552 3553 3554 3555
3556 3557 3558 3559 3560 3561 3562 3563 3564 3565 3566 3567 3568 3569 3570
3571 3572 3573 3574 3575 3576 3577 3578 3579 3580 3581 3582 3583 3584 3585
3586 3587 3588 3589 3590 3591 3592 3593 3594 3595 3596 3597 3598 3599 3600
3601 3602 3603 3604 3605 3606 3607 3608 3609 3610 3611 3612 3613 3614 3615
3616 3617 3618 3619 3620 3621 3622 3623 3624 3625 3626 3627 3628 3629 3630
3631 3632 3633 3634 3635 3636 3637 3638 3639 3640 3641 3642 3643 3644 3645
3646 3647 3648 3649 3650 3651 3652 3653 3654 3655 3656 3657 3658 3659 3660
3661 3662 3663 3664 3665 3666 3667 3668 3669 3670 3671 3672 3673 3674 3675
3676 3677 3678 3679 3680 3681 3682 3683 3684 3685 3686 3687 3688 3689 3690
3691 3692 3693 3694 3695 3696 3697 3698 3699 3700 3701 3702 3703 3704 3705
3706 3707 3708 3709 3710 3711 3712 3713 3714 3715 3716 3717 3718 3719 3720
3721 3722 3723 3724 3725 3726 3727 3728 3729 3730 3731 3732 3733 3734 3735
3736 3737 3738 3739 3740 3741 3742 3743 3744 3745 3746 3747 3748 3749 3750
3751 3752 3753 3754 3755 3756 3757 3758 3759 3760 3761 3762 3763 3764 3765
3766 3767 3768 3769 3770 3771 3772 3773 3774 3775 3776 3777 3778 3779 3780
3781 3782 3783 3784 3785 3786 3787 3788 3789 3790 3791 3792 3793 3794 3795
3796 3797 3798 3799 3800 3801 3802 3803 3804 3805 3806 3807 3808 3809 3810
3811 3812 3813 3814 3815 3816 3817 3818 3819 3820 3821 3822 3823 3824 3825
3826 3827 3828 3829 3830 3831 3832 3833 3834 3835 3836 3837 3838 3839 3840
3841 3842 3843 3844 3845 3846 3847 3848 3849 3850 3851 3852 3853 3854 3855
3856 3857 3858 3859 3860 3861 3862 3863 3864 3865 3866 3867 3868 3869 3870
3871 3872 3873 3874 3875 3876 3877 3878 3879 3880 3881 3882 3883 3884 3885
3886 3887 3888 3889 3890 3891 3892 3893 3894 3895 3896 3897 3898 3899 3900
3901 3902 3903 3904 3905 3906 3907 3908 3909 3910 3911 3912 3913 3914 3915
3916 3917 3918 3919 3920 3921 3922 3923 3924 3925 3926 3927 3928 3929 3930
3931 3932 3933 3934 3935 3936 3937 3938 3939 3940 3941 3942 3943 3944 3945
3946 3947 3948 3949 3950 3951 3952 3953 3954 3955 3956 3957 3958 3959 3960
3961 3962 3963 3964 3965 3966 3967 3968 3969 3970 3971 3972 3973 3974 3975
3976 3977 3978 3979 3980 3981 3982 3983 3984 3985 3986 3987 3988 3989 3990
3991 3992 3993 3994 3995 3996 3997 3998 3999 4000 4001 4002 4003 4004 4005
4006 4007 4008 4009 4010 4011 4012 4013 4014 4015 4016 4017 4018 4019 4020
4021 4022 4023 4024 4025 4026 4027 4028 4029 4030 4031 4032 4033 4034 4035
4036 4037 4038 4039 4040 4041 4042 4043 4044 4045 4046 4047 4048 4049 4050
4051 4052 4053 4054 4055 4056 4057 4058 4059 4060 4061 4062 4063 4064 4065
4066 4067 4068 4069 4070 4071 4072 4073 4074 4075 4076 4077 4078 4079 4080
4081 4082 4083 4084 4085 4086 4087 4088 4089 4090 4091 4092 4093 4094 4095
4096 4097 4098 4099 4100 4101 4102 4103 4104 4105 4106 4107 4108 4109 4110
4111 4112 4113 4114 4115 4116 4117 4118 4119 4120 4121 4122 4123 4124 4125
4126 4127 4128 4129 4130 4131 4132 4133 4134 4135 4136 4137 4138 4139 4140
4141 4142 4143 4144 4145 4146 4147 4148 4149 4150 4151 4152 4153 4154 4155
4156 4157 4158 4159 4160 4161 4162 4163 4164 4165 4166 4167 4168 4169 4170
4171 4172 4173 4174 4175 4176 4177 4178 4179 4180 4181 4182 4183 4184 4185
4186 4187 4188 4189 4190 4191 4192 4193 4194 4195 4196 4197 4198 4199 4200
4201 4202 4203 4204 4205 4206 4207 4208 4209 4210 4211 4212 4213 4214 4215
4216 4217 4218 4219 4220 4221 4222 4223 4224 4225 4226 4227 4228 4229 4230
4231 4232 4233 4234 4235 4236 4237 4238 4239 4240 4241 4242 4243 4244 4245
4246 4247 4248 4249 4250 4251 4252 4253 4254 4255 4256 4257 4258 4259 4260
4261 4262 4263 4264 4265 4266 4267 4268 4269 4270 4271 4272 4273 4274 4275
4276 4277 4278 4279 4280 4281 4282 4283 4284 4285 4286 4287 4288 4289 4290
4291 4292 4293 4294 4295 4296 4297 4298 4299 4300 4301 4302 4303 4304 4305
4306 4307 4308 4309 4310 4311 4312 4313 4314 4315 4316 4317 4318 4319 4320
4321 4322 4323 4324 4325 4326 4327 4328 4329 4330 4331 4332 4333 4334 4335
4336 4337 4338 4339 4340 4341 4342 4343 4344 4345 4346 4347 4348 4349 4350
4351 4352 4353 4354 4355 4356 4357 4358 4359 4360 4361 4362 4363 4364 4365
4366 4367 4368 4369 4370 4371 4372 4373 4374 4375 4376 4377 4378 4379 4380
4381 4382 4383 4384 4385 4386 4387 4388 4389 4390 4391 4392 4393 4394 4395
4396 4397 4398 4399 4400 4401 4402 4403 4404 4405 4406 4407 4408 4409 4410
4411 4412 4413 4414 4415 4416 4417 4418 4419 4420 4421 4422 4423 4424 4425
4426 4427 4428 4429 4430 4431 4432 4433 4434 4435 4436 4437 4438 4439 4440
4441 4442 4443 4444 4445 4446 4447 4448 4449 4450 4451 4452 4453 4454 4455
4456 4457 4458 4459 4460 4461 4462 4463 4464 4465 4466 4467 4468 4469 4470
4471 4472 4473 4474 4475 4476 4477 4478 4479 4480 4481 4482 4483 4484 4485
4486 4487 4488 4489 4490 4491 4492 4493 4494 4495 4496 4497 4498 4499 4500
4501 4502 4503 4504 4505 4506 4507 4508 4509 4510 4511 4512 4513 4514 4515
4516 4517 4518 4519 4520 4521 4522 4523 4524 4525 4526 4527 4528 4529 4530
4531 4532 4533 4534 4535 4536 4537 4538 4539 4540 4541 4542 4543 4544 4545
4546 4547 4548 4549 4550 4551 4552 4553 4554 4555 4556 4557 4558 4559 4560
4561 4562 4563 4564 4565 4566 4567 4568 4569 4570 4571 4572 4573 4574 4575
4576 4577 4578 4579 4580 4581 4582 4583 4584 4585 4586 4587 4588 4589 4590
4591 4592 4593 4594 4595 4596 4597 4598 4599 4600 4601 4602 4603 4604 4605
4606 4607 4608 4609 4610 4611 4612 4613 4614 4615 4616 4617 4618 4619 4620
4621 4622 4623 4624 4625 4626 4627 4628 4629 4630 4631 4632 4633 4634 4635
4636 4637 4638 4639 4640 4641 4642 4643 4644 4645 4646 4647 4648 4649 4650
4651 4652 4653 4654 4655 4656 4657 4658 4659 4660 4661 4662 4663 4664 4665
4666 4667 4668 4669 4670 4671 4672 4673 4674 4675 4676 4677 4678 4679 4680
4681 4682 4683 4684 4685 4686 4687 4688 4689 4690 4691 4692 4693 4694 4695
4696 4697 4698 4699 4700 4701 4702 4703 4704 4705 4706 4707 4708 4709 4710
4711 4712 4713 4714 4715 4716 4717 4718 4719 4720 4721 4722 4723 4724 4725
4726 4727 4728 4729 4730
[ Other ]
   1    2    3    4    5    6    7    8    9   10   11   12   13   14   15
  16   17   18   19   20   21   22   23   24   25   26   27   28   29   30
  31   32   33   34   35   36   37
[ LIGAND ]
   1    2    3    4    5    6    7    8    9   10   11   12   13   14   15
  16   17   18   19   20   21   22   23   24   25   26   27   28   29   30
  31   32   33   34   35   36   37
[ Protein ]
  38   39   40   41   42   43   44   45   46   47   48   49   50   51   52
  53   54   55   56   57   58   59   60   61   62   63   64   65   66   67
  68   69   70   71   72   73   74   75   76   77   78   79   80   81   82
  83   84   85   86   87   88   89   90   91   92   93   94   95   96   97
  98   99  100  101  102  103  104  105  106  107  108  109  110  111  112
 113  114  115  116  117  118  119  120  121  122  123  124  125  126  127
 128  129  130  131  132  133  134  135  136  137  138  139  140  141  142
 143  144  145  146  147  148  149  150  151  152  153  154  155  156  157
 158  159  160  161  162  163  164  165  166  167  168  169  170  171  172
 173  174  175  176  177  178  179  180  181  182  183  184  185  186  187
 188  189  190  191  192  193  194  195  196  197  198  199  200  201  202
 203  204  205  206  207  208  209  210  211  212  213  214  215  216  217
 218  219  220  221  222  223  224  225  226  227  228  229  230  231  232
 233  234  235  236  237  238  239  240  241  242  243  244  245  246  247
 248  249  250  251  252  253  254  255  256  257  258  259  260  261  262
 263  264  265  266  267  268  269  270  271  272  273  274  275  276  277
 278  279  280  281  282  283  284  285  286  287  288  289  290  291  292
 293  294  295  296  297  298  299  300  301  302  303  304  305  306  307
 308  309  310  311  312  313  314  315  316  317  318  319  320  321  322
 323  324  325  326  327  328  329  330  331  332  333  334  335  336  337
 338  339  340  341  342  343  344  345  346  347  348  349  350  351  352
 353  354  355  356  357  358  359  360  361  362  363  364  365  366  367
 368  369  370  371  372  373  374  375  376  377  378  379  380  381  382
 383  384  385  386  387  388  389  390  391  392  393  394  395  396  397
 398  399  400  401  402  403  404  405  406  407  408  409  410  411  412
 413  414  415  416  417  418  419  420  421  422  423  424  425  426  427
 428  429  430  431  432  433  434  435  436  437  438  439  440  441  442
 443  444  445  446  447  448  449  450  451  452  453  454  455  456  457
 458  459  460  461  462  463  464  465  466  467  468  469  470  471  472
 473  474  475  476  477  478  479  480  481  482  483  484  485  486  487
 488  489  490  491  492  493  494  495  496  497  498  499  500  501  502
 503  504  505  506  507  508  509  510  511  512  513  514  515  516  517
 518  519  520  521  522  523  524  525  526  527  528  529  530  531  532
 533  534  535  536  537  538  539  540  541  542  543  544  545  546  547
 548  549  550  551  552  553  554  555  556  557  558  559  560  561  562
 563  564  565  566  567  568  569  570  571  572  573  574  575  576  577
 578  579  580  581  582  583  584  585  586  587  588  589  590  591  592
 593  594  595  596  597  598  599  600  601  602  603  604  605  606  607
 608  609  610  611  612  613  614  615  616  617  618  619  620  621  622
 623  624  625  626  627  628  629  630  631  632  633  634  635  636  637
 638  639  640  641  642  643  644  645  646  647  648  649  650  651  652
 653  654  655  656  657  658  659  660  661  662  663  664  665  666  667
 668  669  670  671  672  673  674  675  676  677  678  679  680  681  682
 683  684  685  686  687  688  689  690  691  692  693  694  695  696  697
 698  699  700  701  702  703  704  705  706  707  708  709  710  711  712
 713  714  715  716  717  718  719  720  721  722  723  724  725  726  727
 728  729  730  731  732  733  734  735  736  737  738  739  740  741  742
 743  744  745  746  747  748  749  750  751  752  753  754  755  756  757
 758  759  760  761  762  763  764  765  766  767  768  769  770  771  772
 773  774  775  776  777  778  779  780  781  782  783  784  785  786  787
 788  789  790  791  792  793  794  795  796  797  798  799  800  801  802
 803  804  805  806  807  808  809  810  811  812  813  814  815  816  817
 818  819  820  821  822  823  824  825  826  827  828  829  830  831  832
 833  834  835  836  837  838  839  840  841  842  843  844  845  846  847
 848  849  850  851  852  853  854  855  856  857  858  859  860  861  862
 863  864  865  866  867  868  869  870  871  872  873  874  875  876  877
 878  879  880  881  882  883  884  885  886  887  888  889  890  891  892
 893  894  895  896  897  898  899  900  901  902  903  904  905  906  907
 908  909  910  911  912  913  914  915  916  917  918  919  920  921  922
 923  924  925  926  927  928  929  930  931  932  933  934  935  936  937
 938  939  940  941  942  943  944  945  946  947  948  949  950  951  952
 953  954  955  956  957  958  959  960  961  962  963  964  965  966  967
 968  969  970  971  972  973  974  975  976  977  978  979  980  981  982
 983  984  985  986  987  988  989  990  991  992  993  994  995  996  997
 998  999 1000 1001 1002 1003 1004 1005 1006 1007 1008 1009 1010 1011 1012
1013 1014 1015 1016 1017 1018 1019 1020 1021 1022 1023 1024 1025 1026 1027
1028 1029 1030 1031 1032 1033 1034 1035 1036 1037 1038 1039 1040 1041 1042
1043 1044 1045 1046 1047 1048 1049 1050 1051 1052 1053 1054 1055 1056 1057
1058 1059 1060 1061 1062 1063 1064 1065 1066 1067 1068 1069 1070 1071 1072
1073 1074 1075 1076 1077 1078 1079 1080 1081 1082 1083 1084 1085 1086 1087
1088 1089 1090 1091 1092 1093 1094 1095 1096 1097 1098 1099 1100 1101 1102
1103 1104 1105 1106 1107 1108 1109 1110 1111 1112 1113 1114 1115 1116 1117
1118 1119 1120 1121 1122 1123 1124 1125 1126 1127 1128 1129 1130 1131 1132
1133 1134 1135 1136 1137 1138 1139 1140 1141 1142 1143 1144 1145 1146 1147
1148 1149 1150 1151 1152 1153 1154 1155 1156 1157 1158 1159 1160 1161 1162
1163 1164 1165 1166 1167 1168 1169 1170 1171 1172 1173 1174 1175 1176 1177
1178 1179 1180 1181 1182 1183 1184 1185 1186 1187 1188 1189 1190 1191 1192
1193 1194 1195 1196 1197 1198 1199 1200 1201 1202 1203 1204 1205 1206 1207
1208 1209 1210 1211 1212 1213 1214 1215 1216 1217 1218 1219 1220 1221 1222
1223 1224 1225 1226 1227 1228 1229 1230 1231 1232 1233 1234 1235 1236 1237
1238 1239 1240 1241 1242 1243 1244 1245 1246 1247 1248 1249 1250 1251 1252
1253 1254 1255 1256 1257 1258 1259 1260 1261 1262 1263 1264 1265 1266 1267
1268 1269 1270 1271 1272 1273 1274 1275 1276 1277 1278 1279 1280 1281 1282
1283 1284 1285 1286 1287 1288 1289 1290 1291 1292 1293 1294 1295 1296 1297
1298 1299 1300 1301 1302 1303 1304 1305 1306 1307 1308 1309 1310 1311 1312
1313 1314 1315 1316 1317 1318 1319 1320 1321 1322 1323 1324 1325 1326 1327
1328 1329 1330 1331 1332 1333 1334 1335 1336 1337 1338 1339 1340 1341 1342
1343 1344 1345 1346 1347 1348 1349 1350 1351 1352 1353 1354 1355 1356 1357
1358 1359 1360 1361 1362 1363 1364 1365 1366 1367 1368 1369 1370 1371 1372
1373 1374 1375 1376 1377 1378 1379 1380 1381 1382 1383 1384 1385 1386 1387
1388 1389 1390 1391 1392 1393 1394 1395 1396 1397 1398 1399 1400 1401 1402
1403 1404 1405 1406 1407 1408 1409 1410 1411 1412 1413 1414 1415 1416 1417
1418 1419 1420 1421 1422 1423 1424 1425 1426 1427 1428 1429 1430 1431 1432
1433 1434 1435 1436 1437 1438 1439 1440 1441 1442 1443 1444 1445 1446 1447
1448 1449 1450 1451 1452 1453 1454 1455 1456 1457 1458 1459 1460 1461 1462
1463 1464 1465 1466 1467 1468 1469 1470 1471 1472 1473 1474 1475 1476 1477
1478 1479 1480 1481 1482 1483 1484 1485 1486 1487 1488 1489 1490 1491 1492
1493 1494 1495 1496 1497 1498 1499 1500 1501 1502 1503 1504 1505 1506 1507
1508 1509 1510 1511 1512 1513 1514 1515 1516 1517 1518 1519 1520 1521 1522
1523 1524 1525 1526 1527 1528 1529 1530 1531 1532 1533 1534 1535 1536 1537
1538 1539 1540 1541 1542 1543 1544 1545 1546 1547 1548 1549 1550 1551 1552
1553 1554 1555 1556 1557 1558 1559 1560 1561 1562 1563 1564 1565 1566 1567
1568 1569 1570 1571 1572 1573 1574 1575 1576 1577 1578 1579 1580 1581 1582
1583 1584 1585 1586 1587 1588 1589 1590 1591 1592 1593 1594 1595 1596 1597
1598 1599 1600 1601 1602 1603 1604 1605 1606 1607 1608 1609 1610 1611 1612
1613 1614 1615 1616 1617 1618 1619 1620 1621 1622 1623 1624 1625 1626 1627
1628 1629 1630 1631 1632 1633 1634 1635 1636 1637 1638 1639 1640 1641 1642
1643 1644 1645 1646 1647 1648 1649 1650 1651 1652 1653 1654 1655 1656 1657
1658 1659 1660 1661 1662 1663 1664 1665 1666 1667 1668 1669 1670 1671 1672
1673 1674 1675 1676 1677 1678 1679 1680 1681 1682 1683 1684 1685 1686 1687
1688 1689 1690 1691 1692 1693 1694 1695 1696 1697 1698 1699 1700 1701 1702
1703 1704 1705 1706 1707 1708 1709 1710 1711 1712 1713 1714 1715 1716 1717
1718 1719 1720 1721 1722 1723 1724 1725 1726 1727 1728 1729 1730 1731 1732
1733 1734 1735 1736 1737 1738 1739 1740 1741 1742 1743 1744 1745 1746 1747
1748 1749 1750 1751 1752 1753 1754 1755 1756 1757 1758 1759 1760 1761 1762
1763 1764 1765 1766 1767 1768 1769 1770 1771 1772 1773 1774 1775 1776 1777
1778 1779 1780 1781 1782 1783 1784 1785 1786 1787 1788 1789 1790 1791 1792
1793 1794 1795 1796 1797 1798 1799 1800 1801 1802 1803 1804 1805 1806 1807
1808 1809 1810 1811 1812 1813 1814 1815 1816 1817 1818 1819 1820 1821 1822
1823 1824 1825 1826 1827 1828 1829 1830 1831 1832 1833 1834 1835 1836 1837
1838 1839 1840 1841 1842 1843 1844 1845 1846 1847 1848 1849 1850 1851 1852
1853 1854 1855 1856 1857 1858 1859 1860 1861 1862 1863 1864 1865 1866 1867
1868 1869 1870 1871 1872 1873 1874 1875 1876 1877 1878 1879 1880 1881 1882
1883 1884 1885 1886 1887 1888 1889 1890 1891 1892 1893 1894 1895 1896 1897
1898 1899 1900 1901 1902 1903 1904 1905 1906 1907 1908 1909 1910 1911 1912
1913 1914 1915 1916 1917 1918 1919 1920 1921 1922 1923 1924 1925 1926 1927
1928 1929 1930 1931 1932 1933 1934 1935 1936 1937 1938 1939 1940 1941 1942
1943 1944 1945 1946 1947 1948 1949 1950 1951 1952 1953 1954 1955 1956 1957
1958 1959 1960 1961 1962 1963 1964 1965 1966 1967 1968 1969 1970 1971 1972
1973 1974 1975 1976 1977 1978 1979 1980 1981 1982 1983 1984 1985 1986 1987
1988 1989 1990 1991 1992 1993 1994 1995 1996 1997 1998 1999 2000 2001 2002
2003 2004 2005 2006 2007 2008 2009 2010 2011 2012 2013 2014 2015 2016 2017
2018 2019 2020 2021 2022 2023 2024 2025 2026 2027 2028 2029 2030 2031 2032
2033 2034 2035 2036 2037 2038 2039 2040 2041 2042 2043 2044 2045 2046 2047
2048 2049 2050 2051 2052 2053 2054 2055 2056 2057 2058 2059 2060 2061 2062
2063 2064 2065 2066 2067 2068 2069 2070 2071 2072 2073 2074 2075 2076 2077
2078 2079 2080 2081 2082 2083 2084 2085 2086 2087 2088 2089 2090 2091 2092
2093 2094 2095 2096 2097 2098 2099 2100 2101 2102 2103 2104 2105 2106 2107
2108 2109 2110 2111 2112 2113 2114 2115 2116 2117 2118 2119 2120 2121 2122
2123 2124 2125 2126 2127 2128 2129 2130 2131 2132 2133 2134 2135 2136 2137
2138 2139 2140 2141 2142 2143 2144 2145 2146 2147 2148 2149 2150 2151 2152
2153 2154 2155 2156 2157 2158 2159 2160 2161 2162 2163 2164 2165 2166 2167
2168 2169 2170 2171 2172 2173 2174 2175 2176 2177 2178 2179 2180 2181 2182
2183 2184 2185 2186 2187 2188 2189 2190 2191 2192 2193 2194 2195 2196 2197
2198 2199 2200 2201 2202 2203 2204 2205 2206 2207 2208 2209 2210 2211 2212
2213 2214 2215 2216 2217 2218 2219 2220 2221 2222 2223 2224 2225 2226 2227
2228 2229 2230 2231 2232 2233 2234 2235 2236 2237 2238 2239 2240 2241 2242
2243 2244 2245 2246 2247 2248 2249 2250 2251 2252 2253 2254 2255 2256 2257
2258 2259 2260 2261 2262 2263 2264 2265 2266 2267 2268 2269 2270 2271 2272
2273 2274 2275 2276 2277 2278 2279 2280 2281 2282 2283 2284 2285 2286 2287
2288 2289 2290 2291 2292 2293 2294 2295 2296 2297 2298 2299 2300 2301 2302
2303 2304 2305 2306 2307 2308 2309 2310 2311 2312 2313 2314 2315 2316 2317
2318 2319 2320 2321 2322 2323 2324 2325 2326 2327 2328 2329 2330 2331 2332
2333 2334 2335 2336 2337 2338 2339 2340 2341 2342 2343 2344 2345 2346 2347
2348 2349 2350 2351 2352 2353 2354 2355 2356 2357 2358 2359 2360 2361 2362
2363 2364 2365 2366 2367 2368 2369 2370 2371 2372 2373 2374 2375 2376 2377
2378 2379 2380 2381 2382 2383 2384 2385 2386 2387 2388 2389 2390 2391 2392
2393 2394 2395 2396 2397 2398 2399 2400 2401 2402 2403 2404 2405 2406 2407
2408 2409 2410 2411 2412 2413 2414 2415 2416 2417 2418 2419 2420 2421 2422
2423 2424 2425 2426 2427 2428 2429 2430 2431 2432 2433 2434 2435 2436 2437
2438 2439 2440 2441 2442 2443 2444 2445 2446 2447 2448 2449 2450 2451 2452
2453 2454 2455 2456 2457 2458 2459 2460 2461 2462 2463 2464 2465 2466 2467
2468 2469 2470 2471 2472 2473 2474 2475 2476 2477 2478 2479 2480 2481 2482
2483 2484 2485 2486 2487 2488 2489 2490 2491 2492 2493 2494 2495 2496 2497
2498 2499 2500 2501 2502 2503 2504 2505 2506 2507 2508 2509 2510 2511 2512
2513 2514 2515 2516 2517 2518 2519 2520 2521 2522 2523 2524 2525 2526 2527
2528 2529 2530 2531 2532 2533 2534 2535 2536 2537 2538 2539 2540 2541 2542
2543 2544 2545 2546 2547 2548 2549 2550 2551 2552 2553 2554 2555 2556 2557
2558 2559 2560 2561 2562 2563 2564 2565 2566 2567 2568 2569 2570 2571 2572
2573 2574 2575 2576 2577 2578 2579 2580 2581 2582 2583 2584 2585 2586 2587
2588 2589 2590 2591 2592 2593 2594 2595 2596 2597 2598 2599 2600 2601 2602
2603 2604 2605 2606 2607 2608 2609 2610 2611 2612 2613 2614 2615 2616 2617
2618 2619 2620 2621 2622 2623 2624 2625 2626 2627 2628 2629 2630 2631 2632
2633 2634 2635 2636 2637 2638 2639 2640 2641 2642 2643 2644 2645 2646 2647
2648 2649 2650 2651 2652 2653 2654 2655 2656 2657 2658 2659 2660 2661 2662
2663 2664 2665 2666 2667 2668 2669 2670 2671 2672 2673 2674 2675 2676 2677
2678 2679 2680 2681 2682 2683 2684 2685 2686 2687 2688 2689 2690 2691 2692
2693 2694 2695 2696 2697 2698 2699 2700 2701 2702 2703 2704 2705 2706 2707
2708 2709 2710 2711 2712 2713 2714 2715 2716 2717 2718 2719 2720 2721 2722
2723 2724 2725 2726 2727 2728 2729 2730 2731 2732 2733 2734 2735 2736 2737
2738 2739 2740 2741 2742 2743 2744 2745 2746 2747 2748 2749 2750 2751 2752
2753 2754 2755 2756 2757 2758 2759 2760 2761 2762 2763 2764 2765 2766 2767
2768 2769 2770 2771 2772 2773 2774 2775 2776 2777 2778 2779 2780 2781 2782
2783 2784 2785 2786 2787 2788 2789 2790 2791 2792 2793 2794 2795 2796 2797
2798 2799 2800 2801 2802 2803 2804 2805 2806 2807 2808 2809 2810 2811 2812
2813 2814 2815 2816 2817 2818 2819 2820 2821 2822 2823 2824 2825 2826 2827
2828 2829 2830 2831 2832 2833 2834 2835 2836 2837 2838 2839 2840 2841 2842
2843 2844 2845 2846 2847 2848 2849 2850 2851 2852 2853 2854 2855 2856 2857
2858 2859 2860 2861 2862 2863 2864 2865 2866 2867 2868 2869 2870 2871 2872
2873 2874 2875 2876 2877 2878 2879 2880 2881 2882 2883 2884 2885 2886 2887
2888 2889 2890 2891 2892 2893 2894 2895 2896 2897 2898 2899 2900 2901 2902
2903 2904 2905 2906 2907 2908 2909 2910 2911 2912 2913 2914 2915 2916 2917
2918 2919 2920 2921 2922 2923 2924 2925 2926 2927 2928 2929 2930 2931 2932
2933 2934 2935 2936 2937 2938 2939 2940 2941 2942 2943 2944 2945 2946 2947
2948 2949 2950 2951 2952 2953 2954 2955 2956 2957 2958 2959 2960 2961 2962
2963 2964 2965 2966 2967 2968 2969 2970 2971 2972 2973 2974 2975 2976 2977
2978 2979 2980 2981 2982 2983 2984 2985 2986 2987 2988 2989 2990 2991 2992
2993 2994 2995 2996 2997 2998 2999 3000 3001 3002 3003 3004 3005 3006 3007
3008 3009 3010 3011 3012 3013 3014 3015 3016 3017 3018 3019 3020 3021 3022
3023 3024 3025 3026 3027 3028 3029 3030 3031 3032 3033 3034 3035 3036 3037
3038 3039 3040 3041 3042 3043 3044 3045 3046 3047 3048 3049 3050 3051 3052
3053 3054 3055 3056 3057 3058 3059 3060 3061 3062 3063 3064 3065 3066 3067
3068 3069 3070 3071 3072 3073 3074 3075 3076 3077 3078 3079 3080 3081 3082
3083 3084 3085 3086 3087 3088 3089 3090 3091 3092 3093 3094 3095 3096 3097
3098 3099 3100 3101 3102 3103 3104 3105 3106 3107 3108 3109 3110 3111 3112
3113 3114 3115 3116 3117 3118 3119 3120 3121 3122 3123 3124 3125 3126 3127
3128 3129 3130 3131 3132 3133 3134 3135 3136 3137 3138 3139 3140 3141 3142
3143 3144 3145 3146 3147 3148 3149 3150 3151 3152 3153 3154 3155 3156 3157
3158 3159 3160 3161 3162 3163 3164 3165 3166 3167 3168 3169 3170 3171 3172
3173 3174 3175 3176 3177 3178 3179 3180 3181 3182 3183 3184 3185 3186 3187
3188 3189 3190 3191 3192 3193 3194 3195 3196 3197 3198 3199 3200 3201 3202
3203 3204 3205 3206 3207 3208 3209 3210 3211 3212 3213 3214 3215 3216 3217
3218 3219 3220 3221 3222 3223 3224 3225 3226 3227 3228 3229 3230 3231 3232
3233 3234 3235 3236 3237 3238 3239 3240 3241 3242 3243 3244 3245 3246 3247
3248 3249 3250 3251 3252 3253 3254 3255 3256 3257 3258 3259 3260 3261 3262
3263 3264 3265 3266 3267 3268 3269 3270 3271 3272 3273 3274 3275 3276 3277
3278 3279 3280 3281 3282 3283 3284 3285 3286 3287 3288 3289 3290 3291 3292
3293 3294 3295 3296 3297 3298 3299 3300 3301 3302 3303 3304 3305 3306 3307
3308 3309 3310 3311 3312 3313 3314 3315 3316 3317 3318 3319 3320 3321 3322
3323 3324 3325 3326 3327 3328 3329 3330 3331 3332 3333 3334 3335 3336 3337
3338 3339 3340 3341 3342 3343 3344 3345 3346 3347 3348 3349 3350 3351 3352
3353 3354 3355 3356 3357 3358 3359 3360 3361 3362 3363 3364 3365 3366 3367
3368 3369 3370 3371 3372 3373 3374 3375 3376 3377 3378 3379 3380 3381 3382
3383 3384 3385 3386 3387 3388 3389 3390 3391 3392 3393 3394 3395 3396 3397
3398 3399 3400 3401 3402 3403 3404 3405 3406 3407 3408 3409 3410 3411 3412
3413 3414 3415 3416 3417 3418 3419 3420 3421 3422 3423 3424 3425 3426 3427
3428 3429 3430 3431 3432 3433 3434 3435 3436 3437 3438 3439 3440 3441 3442
3443 3444 3445 3446 3447 3448 3449 3450 3451 3452 3453 3454 3455 3456 3457
3458 3459 3460 3461 3462 3463 3464 3465 3466 3467 3468 3469 3470 3471 3472
3473 3474 3475 3476 3477 3478 3479 3480 3481 3482 3483 3484 3485 3486 3487
3488 3489 3490 3491 3492 3493 3494 3495 3496 3497 3498 3499 3500 3501 3502
3503 3504 3505 3506 3507 3508 3509 3510 3511 3512 3513 3514 3515 3516 3517
3518 3519 3520 3521 3522 3523 3524 3525 3526 3527 3528 3529 3530 3531 3532
3533 3534 3535 3536 3537 3538 3539 3540 3541 3542 3543 3544 3545 3546 3547
3548 3549 3550 3551 3552 3553 3554 3555 3556 3557 3558 3559 3560 3561 3562
3563 3564 3565 3566 3567 3568 3569 3570 3571 3572 3573 3574 3575 3576 3577
3578 3579 3580 3581 3582 3583 3584 3585 3586 3587 3588 3589 3590 3591 3592
3593 3594 3595 3596 3597 3598 3599 3600 3601 3602 3603 3604 3605 3606 3607
3608 3609 3610 3611 3612 3613 3614 3615 3616 3617 3618 3619 3620 3621 3622
3623 3624 3625 3626 3627 3628 3629 3630 3631 3632 3633 3634 3635 3636 3637
3638 3639 3640 3641 3642 3643 3644 3645 3646 3647 3648 3649 3650 3651 3652
3653 3654 3655 3656 3657 3658 3659 3660 3661 3662 3663 3664 3665 3666 3667
3668 3669 3670 3671 3672 3673 3674 3675 3676 3677 3678 3679 3680 3681 3682
3683 3684 3685 3686 3687 3688 3689 3690 3691 3692 3693 3694 3695 3696 3697
3698 3699 3700 3701 3702 3703 3704 3705 3706 3707 3708 3709 3710 3711 3712
3713 3714 3715 3716 3717 3718 3719 3720 3721 3722 3723 3724 3725 3726 3727
3728 3729 3730 3731 3732 3733 3734 3735 3736 3737 3738 3739 3740 3741 3742
3743 3744 3745 3746 3747 3748 3749 3750 3751 3752 3753 3754 3755 3756 3757
3758 3759 3760 3761 3762 3763 3764 3765 3766 3767 3768 3769 3770 3771 3772
3773 3774 3775 3776 3777 3778 3779 3780 3781 3782 3783 3784 3785 3786 3787
3788 3789 3790 3791 3792 3793 3794 3795 3796 3797 3798 3799 3800 3801 3802
3803 3804 3805 3806 3807 3808 3809 3810 3811 3812 3813 3814 3815 3816 3817
3818 3819 3820 3821 3822 3823 3824 3825 3826 3827 3828 3829 3830 3831 3832
3833 3834 3835 3836 3837 3838 3839 3840 3841 3842 3843 3844 3845 3846 3847
3848 3849 3850 3851 3852 3853 3854 3855 3856 3857 3858 3859 3860 3861 3862
3863 3864 3865 3866 3867 3868 3869 3870 3871 3872 3873 3874 3875 3876 3877
3878 3879 3880 3881 3882 3883 3884 3885 3886 3887 3888 3889 3890 3891 3892
3893 3894 3895 3896 3897 3898 3899 3900 3901 3902 3903 3904 3905 3906 3907
3908 3909 3910 3911 3912 3913 3914 3915 3916 3917 3918 3919 3920 3921 3922
3923 3924 3925 3926 3927 3928 3929 3930 3931 3932 3933 3934 3935 3936 3937
3938 3939 3940 3941 3942 3943 3944 3945 3946 3947 3948 3949 3950 3951 3952
3953 3954 3955 3956 3957 3958 3959 3960 3961 3962 3963 3964 3965 3966 3967
3968 3969 3970 3971 3972 3973 3974 3975 3976 3977 3978 3979 3980 3981 3982
3983 3984 3985 3986 3987 3988 3989 3990 3991 3992 3993 3994 3995 3996 3997
3998 3999 4000 4001 4002 4003 4004 4005 4006 4007 4008 4009 4010 4011 4012
4013 4014 4015 4016 4017 4018 4019 4020 4021 4022 4023 4024 4025 4026 4027
4028 4029 4030 4031 4032 4033 4034 4035 4036 4037 4038 4039 4040 4041 4042
4043 4044 4045 4046 4047 4048 4049 4050 4051 4052 4053 4054 4055 4056 4057
4058 4059 4060 4061 4062 4063 4064 4065 4066 4067 4068 4069 4070 4071 4072
4073 4074 4075 4076 4077 4078 4079 4080 4081 4082 4083 4084 4085 4086 4087
4088 4089 4090 4091 4092 4093 4094 4095 4096 4097 4098 4099 4100 4101 4102
4103 4104 4105 4106 4107 4108 4109 4110 4111 4112 4113 4114 4115 4116 4117
4118 4119 4120 4121 4122 4123 4124 4125 4126 4127 4128 4129 4130 4131 4132
4133 4134 4135 4136 4137 4138 4139 4140 4141 4142 4143 4144 4145 4146 4147
4148 4149 4150 4151 4152 4153 4154 4155 4156 4157 4158 4159 4160 4161 4162
4163 4164 4165 4166 4167 4168 4169 4170 4171 4172 4173 4174 4175 4176 4177
4178 4179 4180 4181 4182 4183 4184 4185 4186 4187 4188 4189 4190 4191 4192
4193 4194 4195 4196 4197 4198 4199 4200 4201 4202 4203 4204 4205 4206 4207
4208 4209 4210 4211 4212 4213 4214 4215 4216 4217 4218 4219 4220 4221 4222
4223 4224 4225 4226 4227 4228 4229 4230 4231 4232 4233 4234 4235 4236 4237
4238 4239 4240 4241 4242 4243 4244 4245 4246 4247 4248 4249 4250 4251 4252
4253 4254 4255 4256 4257 4258 4259 4260 4261 4262 4263 4264 4265 4266 4267
4268 4269 4270 4271 4272 4273 4274 4275 4276 4277 4278 4279 4280 4281 4282
4283 4284 4285 4286 4287 4288 4289 4290 4291 4292 4293 4294 4295 4296 4297
4298 4299 4300 4301 4302 4303 4304 4305 4306 4307 4308 4309 4310 4311 4312
4313 4314 4315 4316 4317 4318 4319 4320 4321 4322 4323 4324 4325 4326 4327
4328 4329 4330 4331 4332 4333 4334 4335 4336 4337 4338 4339 4340 4341 4342
4343 4344 4345 4346 4347 4348 4349 4350 4351 4352 4353 4354 4355 4356 4357
4358 4359 4360 4361 4362 4363 4364 4365 4366 4367 4368 4369 4370 4371 4372
4373 4374 4375 4376 4377 4378 4379 4380 4381 4382 4383 4384 4385 4386 4387
4388 4389 4390 4391 4392 4393 4394 4395 4396 4397 4398 4399 4400 4401 4402
4403 4404 4405 4406 4407 4408 4409 4410 4411 4412 4413 4414 4415 4416 4417
4418 4419 4420 4421 4422 4423 4424 4425 4426 4427 4428 4429 4430 4431 4432
4433 4434 4435 4436 4437 4438 4439 4440 4441 4442 4443 4444 4445 4446 4447
4448 4449 4450 4451 4452 4453 4454 4455 4456 4457 4458 4459 4460 4461 4462
4463 4464 4465 4466 4467 4468 4469 4470 4471 4472 4473 4474 4475 4476 4477
4478 4479 4480 4481 4482 4483 4484 4485 4486 4487 4488 4489 4490 4491 4492
4493 4494 4495 4496 4497 4498 4499 4500 4501 4502 4503 4504 4505 4506 4507
4508 4509 4510 4511 4512 4513 4514 4515 4516 4517 4518 4519 4520 4521 4522
4523 4524 4525 4526 4527 4528 4529 4530 4531 4532 4533 4534 4535 4536 4537
4538 4539 4540 4541 4542 4543 4544 4545 4546 4547 4548 4549 4550 4551 4552
4553 4554 4555 4556 4557 4558 4559 4560 4561 4562 4563 4564 4565 4566 4567
4568 4569 4570 4571 4572 4573 4574 4575 4576 4577 4578 4579 4580 4581 4582
4583 4584 4585 4586 4587 4588 4589 4590 4591 4592 4593 4594 4595 4596 4597
4598 4599 4600 4601 4602 4603 4604 4605 4606 4607 4608 4609 4610 4611 4612
4613 4614 4615 4616 4617 4618 4619 4620 4621 4622 4623 4624 4625 4626 4627
4628 4629 4630 4631 4632 4633 4634 4635 4636 4637 4638 4639 4640 4641 4642
4643 4644 4645 4646 4647 4648 4649 4650 4651 4652 4653 4654 4655 4656 4657
4658 4659 4660 4661 4662 4663 4664 4665 4666 4667 4668 4669 4670 4671 4672
4673 4674 4675 4676 4677 4678 4679 4680 4681 4682 4683 4684 4685 4686 4687
4688 4689 4690 4691 4692 4693 4694 4695 4696 4697 4698 4699 4700 4701 4702
4703 4704 4705 4706 4707 4708 4709 4710 4711 4712 4713 4714 4715 4716 4717
4718 4719 4720 4721 4722 4723 4724 4725 4726 4727 4728 4729 4730
[ Protein-H ]
  38   41   44   47   50   52   53   54   56   58   61   64   67   69   70
  73   76   77   78   80   82   85   88   91   94   98   99  100  102  104
 107  110  113  116  120  121  122  124  126  129  132  135  137  138  141
 144  145  146  147  150  153  156  158  159  160  162  164  167  170  171
 172  173  174  175  177  179  182  183  184  185  186  187  189  191  194
 195  197  199  201  203  205  206  207  209  211  214  217  220  223  227
 228  229  231  233  236  237  239  241  243  245  247  248  249  251  254
 255  256  258  260  263  266  269  272  276  277  278  280  282  284  288
 291  295  296  297  299  301  304  306  310  314  315  316  318  321  322
 323  325  327  330  333  334  335  336  337  338  340  343  344  345  347
 349  352  354  355  356  358  360  363  364  366  368  370  372  374  375
 376  378  380  383  385  386  387  389  391  393  397  399  400  401  403
 405  407  411  415  416  417  419  421  423  427  431  432  433  435  437
 440  442  446  450  451  452  454  456  460  461  462  464  466  469  472
 475  477  478  481  484  485  486  488  490  493  496  497  498  499  500
 501  503  505  508  510  514  518  519  520  522  524  528  529  530  532
 534  536  540  542  543  544  546  548  551  553  554  555  557  559  562
 565  568  570  571  574  577  578  579  581  583  586  589  590  591  592
 593  594  596  598  601  602  604  606  607  609  611  613  614  615  617
 619  623  624  625  627  629  631  635  638  642  643  644  646  648  651
 654  657  660  664  665  666  668  670  672  676  679  683  684  685  687
 689  692  694  698  702  703  704  706  708  711  714  715  716  717  718
 719  721  723  726  729  732  735  739  740  741  743  745  748  751  754
 756  757  760  763  764  765  767  769  772  773  774  776  778  780  781
 782  784  786  788  792  795  799  800  801  803  805  807  811  814  818
 819  820  822  824  827  830  833  836  840  841  842  844  846  849  852
 853  854  855  856  857  859  861  864  865  866  869  870  871  873  875
 878  881  884  887  891  892  893  895  897  899  903  907  908  909  910
 913  916  919  921  922  923  925  927  930  931  933  935  936  938  940
 942  943  944  946  948  950  954  958  959  960  962  964  966  970  972
 973  974  976  978  981  984  987  989  990  993  996  997  998 1000 1002
1005 1008 1009 1010 1011 1012 1013 1015 1017 1020 1023 1026 1028 1029 1032
1035 1036 1037 1039 1041 1044 1045 1046 1047 1048 1049 1051 1053 1055 1059
1063 1064 1065 1067 1069 1072 1075 1076 1080 1081 1082 1084 1086 1089 1091
1092 1093 1095 1097 1100 1103 1106 1108 1109 1112 1115 1116 1117 1119 1121
1124 1126 1130 1134 1135 1136 1138 1140 1143 1144 1145 1146 1147 1148 1150
1152 1155 1156 1157 1159 1161 1163 1164 1165 1166 1169 1172 1175 1177 1178
1179 1181 1183 1186 1187 1189 1191 1193 1195 1197 1198 1199 1201 1203 1206
1207 1209 1211 1213 1215 1217 1218 1219 1221 1223 1225 1229 1233 1234 1235
1237 1239 1242 1245 1248 1251 1255 1256 1257 1259 1261 1264 1266 1270 1274
1275 1276 1278 1280 1283 1284 1286 1288 1289 1291 1293 1295 1296 1297 1299
1301 1304 1305 1307 1309 1311 1313 1315 1316 1317 1319 1321 1323 1327 1329
1330 1331 1333 1335 1338 1339 1341 1343 1345 1347 1349 1350 1351 1353 1355
1358 1361 1362 1363 1366 1367 1368 1370 1372 1375 1376 1377 1378 1379 1380
1382 1384 1387 1388 1389 1390 1391 1392 1394 1396 1399 1402 1403 1404 1405
1406 1407 1409 1411 1414 1417 1420 1423 1427 1428 1429 1431 1433 1436 1438
1442 1446 1447 1448 1450 1452 1455 1456 1458 1460 1461 1463 1465 1467 1468
1469 1471 1473 1476 1477 1479 1481 1483 1485 1487 1488 1489 1491 1494 1495
1496 1498 1500 1503 1505 1509 1513 1514 1515 1517 1519 1522 1524 1525 1526
1528 1530 1533 1534 1536 1538 1539 1541 1543 1545 1546 1547 1549 1551 1555
1556 1557 1559 1561 1564 1567 1570 1573 1577 1578 1579 1581 1583 1586 1587
1588 1591 1592 1593 1595 1598 1599 1600 1602 1604 1607 1610 1611 1612 1613
1614 1615 1617 1619 1622 1624 1628 1632 1633 1634 1636 1638 1641 1643 1647
1651 1652 1653 1655 1657 1660 1663 1666 1669 1673 1674 1675 1677 1679 1682
1683 1685 1687 1688 1690 1692 1694 1695 1696 1698 1700 1702 1706 1709 1713
1714 1715 1717 1719 1722 1725 1728 1730 1731 1734 1737 1738 1739 1741 1743
1746 1749 1752 1755 1759 1760 1761 1763 1765 1767 1771 1774 1778 1779 1780
1782 1785 1786 1787 1789 1791 1794 1796 1797 1798 1800 1802 1805 1806 1808
1810 1812 1814 1816 1817 1818 1820 1822 1825 1826 1827 1828 1829 1830 1832
1834 1837 1840 1841 1842 1843 1844 1845 1847 1849 1851 1855 1857 1858 1859
1861 1863 1866 1868 1869 1870 1872 1874 1876 1880 1882 1883 1884 1886 1888
1891 1894 1897 1899 1900 1903 1906 1907 1908 1910 1912 1915 1916 1918 1920
1922 1924 1926 1927 1928 1930 1932 1935 1936 1938 1940 1941 1943 1945 1947
1948 1949 1951 1953 1955 1959 1961 1962 1963 1965 1967 1971 1972 1973 1975
1977 1980 1983 1984 1985 1986 1987 1988 1990 1992 1994 1998 2001 2005 2006
2007 2009 2011 2013 2017 2021 2022 2023 2025 2027 2030 2032 2033 2034 2036
2038 2042 2043 2044 2046 2048 2051 2053 2057 2061 2062 2063 2065 2067 2070
2073 2074 2075 2076 2077 2078 2080 2082 2085 2086 2088 2090 2091 2093 2095
2097 2098 2099 2101 2103 2106 2108 2112 2116 2117 2118 2120 2122 2125 2126
2127 2129 2131 2133 2134 2135 2137 2140 2141 2142 2144 2146 2149 2152 2155
2158 2162 2163 2164 2166 2169 2170 2171 2173 2175 2177 2181 2184 2188 2189
2190 2192 2194 2196 2200 2203 2207 2208 2209 2211 2213 2216 2217 2218 2220
2222 2224 2225 2226 2228 2230 2233 2236 2239 2241 2242 2245 2248 2249 2250
2252 2254 2257 2258 2259 2260 2261 2262 2264 2266 2269 2271 2275 2279 2280
2281 2283 2285 2288 2291 2294 2297 2301 2302 2303 2304 2307 2310 2313 2315
2316 2317 2319 2321 2324 2327 2328 2329 2330 2331 2332 2334 2336 2339 2340
2341 2344 2345 2346 2348 2350 2352 2356 2359 2363 2364 2365 2367 2369 2372
2374 2378 2382 2383 2384 2386 2388 2391 2393 2397 2401 2402 2403 2405 2407
2410 2411 2412 2415 2416 2417 2419 2421 2424 2427 2428 2429 2430 2431 2432
2434 2436 2439 2440 2441 2442 2443 2444 2446 2448 2451 2454 2455 2459 2460
2461 2463 2465 2468 2469 2471 2473 2474 2476 2477 2478 2480 2482 2484 2488
2491 2495 2496 2497 2499 2501 2504 2507 2508 2509 2512 2513 2514 2516 2518
2520 2524 2527 2531 2532 2533 2535 2537 2539 2543 2545 2546 2547 2549 2551
2554 2555 2556 2557 2558 2559 2561 2563 2566 2567 2569 2571 2573 2575 2577
2578 2579 2581 2584 2585 2586 2588 2590 2592 2596 2598 2599 2600 2602 2604
2608 2609 2610 2612 2614 2617 2620 2623 2626 2630 2631 2632 2634 2636 2638
2642 2646 2647 2648 2650 2652 2655 2657 2661 2665 2666 2667 2669 2671 2674
2676 2677 2678 2679 2682 2685 2688 2690 2691 2692 2694 2696 2699 2702 2703
2704 2705 2706 2707 2709 2711 2714 2716 2717 2718 2720 2722 2725 2728 2731
2734 2738 2739 2740 2742 2744 2747 2750 2751 2752 2755 2756 2757 2759 2761
2765 2766 2767 2769 2771 2774 2777 2780 2782 2783 2786 2789 2790 2791 2793
2795 2799 2800 2801 2803 2805 2808 2809 2810 2813 2814 2815 2817 2819 2822
2824 2825 2826 2828 2830 2833 2834 2836 2838 2840 2842 2844 2845 2846 2848
2850 2852 2856 2860 2861 2862 2864 2867 2868 2869 2871 2873 2875 2879 2881
2882 2883 2885 2887 2891 2892 2893 2895 2897 2900 2903 2904 2905 2908 2909
2910 2912 2914 2917 2918 2920 2922 2923 2925 2927 2929 2930 2931 2933 2935
2937 2941 2945 2946 2947 2949 2951 2954 2956 2957 2958 2959 2962 2965 2968
2970 2971 2972 2974 2976 2979 2982 2983 2984 2985 2986 2987 2989 2991 2994
2996 3000 3004 3005 3006 3008 3010 3013 3015 3019 3023 3024 3025 3027 3029
3031 3035 3037 3038 3039 3041 3043 3046 3049 3050 3051 3052 3053 3054 3056
3058 3061 3064 3067 3070 3074 3075 3076 3078 3080 3083 3085 3086 3087 3089
3091 3095 3096 3097 3099 3101 3104 3106 3107 3108 3110 3112 3115 3118 3121
3124 3128 3129 3130 3132 3134 3137 3139 3140 3141 3143 3145 3148 3150 3151
3152 3154 3156 3159 3160 3161 3162 3163 3164 3166 3168 3171 3173 3177 3181
3182 3183 3185 3187 3190 3191 3193 3195 3196 3198 3200 3202 3204 3205 3206
3207 3209 3211 3215 3216 3217 3219 3221 3224 3226 3230 3234 3235 3236 3238
3241 3242 3243 3245 3247 3250 3252 3253 3254 3256 3258 3260 3264 3267 3271
3272 3273 3275 3277 3279 3283 3286 3290 3291 3292 3294 3296 3299 3300 3302
3304 3305 3307 3309 3311 3312 3313 3315 3317 3320 3323 3324 3325 3328 3329
3330 3332 3334 3337 3339 3343 3347 3348 3349 3351 3353 3355 3359 3363 3364
3365 3367 3369 3373 3374 3375 3377 3380 3381 3382 3384 3386 3389 3391 3395
3399 3400 3401 3402 3405 3408 3411 3413 3414 3415 3416 3419 3422 3425 3427
3428 3429 3431 3433 3436 3437 3439 3441 3443 3445 3447 3448 3449 3451 3453
3456 3459 3462 3464 3465 3468 3471 3472 3473 3475 3477 3481 3482 3483 3485
3488 3489 3490 3492 3494 3497 3498 3499 3502 3503 3504 3506 3508 3511 3514
3515 3516 3517 3518 3519 3521 3523 3526 3527 3529 3531 3532 3534 3536 3538
3539 3540 3542 3544 3547 3549 3553 3557 3558 3559 3561 3563 3565 3569 3572
3576 3577 3578 3580 3582 3585 3586 3588 3590 3592 3594 3596 3597 3598 3600
3602 3605 3608 3609 3610 3613 3614 3615 3617 3619 3622 3625 3628 3631 3635
3636 3637 3639 3641 3643 3647 3650 3654 3655 3656 3658 3660 3662 3666 3669
3673 3674 3675 3677 3679 3682 3685 3688 3691 3695 3696 3697 3699 3701 3704
3706 3710 3714 3715 3716 3718 3720 3723 3726 3727 3728 3729 3730 3731 3733
3735 3738 3739 3741 3743 3744 3746 3748 3750 3751 3752 3754 3756 3759 3760
3761 3762 3763 3764 3766 3768 3771 3772 3774 3776 3778 3780 3782 3783 3784
3785 3788 3791 3794 3796 3797 3798 3800 3802 3805 3808 3809 3810 3811 3812
3813 3815 3817 3820 3823 3826 3829 3833 3834 3835 3837 3839 3842 3843 3845
3847 3849 3851 3853 3854 3855 3857 3859 3862 3863 3865 3867 3869 3871 3873
3874 3875 3876 3879 3882 3885 3887 3888 3889 3891 3893 3896 3899 3902 3905
3909 3910 3911 3913 3915 3919 3920 3921 3923 3925 3928 3931 3934 3936 3937
3940 3943 3944 3945 3947 3949 3952 3953 3954 3955 3956 3957 3959 3961 3964
3966 3970 3974 3975 3976 3978 3980 3982 3986 3990 3991 3992 3994 3996 3999
4002 4003 4004 4005 4006 4007 4009 4011 4014 4017 4020 4023 4027 4028 4029
4031 4033 4036 4038 4042 4046 4047 4048 4050 4052 4055 4057 4061 4065 4066
4067 4069 4071 4073 4077 4081 4082 4083 4085 4087 4090 4092 4096 4100 4101
4102 4104 4106 4109 4110 4111 4112 4113 4114 4116 4118 4122 4123 4124 4126
4128 4130 4134 4136 4137 4138 4140 4142 4145 4148 4151 4154 4158 4159 4160
4162 4164 4167 4170 4173 4175 4176 4179 4182 4183 4184 4186 4188 4191 4193
4197 4201 4202 4203 4205 4208 4209 4210 4212 4214 4217 4219 4220 4221 4223
4225 4228 4231 4232 4233 4234 4235 4236 4238 4240 4243 4246 4247 4248 4249
4250 4251 4253 4255 4258 4261 4262 4266 4267 4268 4270 4272 4275 4278 4279
4280 4281 4282 4283 4285 4288 4289 4290 4292 4294 4297 4298 4300 4302 4303
4305 4307 4309 4310 4311 4313 4316 4317 4318 4319 4322 4325 4328 4330 4331
4332 4334 4336 4339 4341 4345 4349 4350 4351 4353 4355 4358 4361 4364 4367
4371 4372 4373 4375 4377 4381 4382 4383 4385 4387 4390 4391 4392 4394 4396
4398 4399 4400 4401 4404 4407 4410 4412 4413 4414 4416 4418 4421 4422 4424
4426 4428 4430 4432 4433 4434 4436 4438 4441 4442 4444 4446 4448 4450 4452
4453 4454 4456 4458 4461 4464 4465 4466 4467 4468 4469 4471 4473 4476 4478
4479 4480 4482 4484 4486 4490 4494 4495 4496 4498 4500 4502 4506 4508 4509
4510 4512 4514 4517 4518 4520 4522 4523 4525 4527 4529 4531 4532 4533 4534
4536 4538 4541 4544 4545 4546 4547 4548 4549 4551 4553 4556 4557 4558 4561
4562 4563 4565 4567 4570 4572 4576 4580 4581 4582 4584 4586 4589 4590 4591
4593 4595 4597 4598 4599 4601 4603 4606 4609 4610 4611 4614 4615 4616 4618
4620 4623 4626 4627 4628 4631 4632 4633 4635 4637 4639 4643 4645 4646 4647
4648 4651 4654 4657 4659 4660 4661 4662 4665 4668 4671 4673 4674 4675 4677
4679 4682 4685 4688 4691 4695 4696 4697 4699 4701 4704 4706 4710 4714 4715
4716 4718 4720 4722 4726 4728 4729 4730
[ C-alpha ]
  50   56   80  102  124  156  162  177  189  209  231  251  258  280  299
 318  325  340  347  358  378  389  403  419  435  454  464  488  503  522
 532  546  557  581  596  617  627  646  668  687  706  721  743  767  784
 803  822  844  859  873  895  919  925  946  962  976 1000 1015 1039 1051
1067 1084 1095 1119 1138 1150 1175 1181 1201 1221 1237 1259 1278 1299 1319
1333 1353 1370 1382 1394 1409 1431 1450 1471 1491 1498 1517 1528 1549 1559
1581 1595 1602 1617 1636 1655 1677 1698 1717 1741 1763 1782 1789 1800 1820
1832 1847 1861 1872 1886 1910 1930 1951 1965 1975 1990 2009 2025 2036 2046
2065 2080 2101 2120 2137 2144 2166 2173 2192 2211 2228 2252 2264 2283 2313
2319 2334 2348 2367 2386 2405 2419 2434 2446 2463 2480 2499 2516 2535 2549
2561 2581 2588 2602 2612 2634 2650 2669 2688 2694 2709 2720 2742 2759 2769
2793 2803 2817 2828 2848 2864 2871 2885 2895 2912 2933 2949 2968 2974 2989
3008 3027 3041 3056 3078 3089 3099 3110 3132 3143 3154 3166 3185 3209 3219
3238 3245 3256 3275 3294 3315 3332 3351 3367 3377 3384 3411 3425 3431 3451
3475 3485 3492 3506 3521 3542 3561 3580 3600 3617 3639 3658 3677 3699 3718
3733 3754 3766 3794 3800 3815 3837 3857 3885 3891 3913 3923 3947 3959 3978
3994 4009 4031 4050 4069 4085 4104 4116 4126 4140 4162 4186 4205 4212 4223
4238 4253 4270 4285 4292 4313 4328 4334 4353 4375 4385 4410 4416 4436 4456
4471 4482 4498 4512 4536 4551 4565 4584 4601 4618 4635 4657 4671 4677 4699
4718
[ Backbone ]
  38   50   52   54   56   76   78   80   98  100  102  120  122  124  144
 146  156  158  160  162  173  175  177  185  187  189  205  207  209  227
 229  231  247  249  251  254  256  258  276  278  280  295  297  299  314
 316  318  321  323  325  336  338  340  343  345  347  354  356  358  374
 376  378  385  387  389  399  401  403  415  417  419  431  433  435  450
 452  454  460  462  464  484  486  488  499  501  503  518  520  522  528
 530  532  542  544  546  553  555  557  577  579  581  592  594  596  613
 615  617  623  625  627  642  644  646  664  666  668  683  685  687  702
 704  706  717  719  721  739  741  743  763  765  767  780  782  784  799
 801  803  818  820  822  840  842  844  855  857  859  869  871  873  891
 893  895  907  909  919  921  923  925  942  944  946  958  960  962  972
 974  976  996  998 1000 1011 1013 1015 1035 1037 1039 1047 1049 1051 1063
1065 1067 1080 1082 1084 1091 1093 1095 1115 1117 1119 1134 1136 1138 1146
1148 1150 1163 1165 1175 1177 1179 1181 1197 1199 1201 1217 1219 1221 1233
1235 1237 1255 1257 1259 1274 1276 1278 1295 1297 1299 1315 1317 1319 1329
1331 1333 1349 1351 1353 1366 1368 1370 1378 1380 1382 1390 1392 1394 1405
1407 1409 1427 1429 1431 1446 1448 1450 1467 1469 1471 1487 1489 1491 1494
1496 1498 1513 1515 1517 1524 1526 1528 1545 1547 1549 1555 1557 1559 1577
1579 1581 1591 1593 1595 1598 1600 1602 1613 1615 1617 1632 1634 1636 1651
1653 1655 1673 1675 1677 1694 1696 1698 1713 1715 1717 1737 1739 1741 1759
1761 1763 1778 1780 1782 1785 1787 1789 1796 1798 1800 1816 1818 1820 1828
1830 1832 1843 1845 1847 1857 1859 1861 1868 1870 1872 1882 1884 1886 1906
1908 1910 1926 1928 1930 1947 1949 1951 1961 1963 1965 1971 1973 1975 1986
1988 1990 2005 2007 2009 2021 2023 2025 2032 2034 2036 2042 2044 2046 2061
2063 2065 2076 2078 2080 2097 2099 2101 2116 2118 2120 2133 2135 2137 2140
2142 2144 2162 2164 2166 2169 2171 2173 2188 2190 2192 2207 2209 2211 2224
2226 2228 2248 2250 2252 2260 2262 2264 2279 2281 2283 2301 2303 2313 2315
2317 2319 2330 2332 2334 2344 2346 2348 2363 2365 2367 2382 2384 2386 2401
2403 2405 2415 2417 2419 2430 2432 2434 2442 2444 2446 2459 2461 2463 2476
2478 2480 2495 2497 2499 2512 2514 2516 2531 2533 2535 2545 2547 2549 2557
2559 2561 2577 2579 2581 2584 2586 2588 2598 2600 2602 2608 2610 2612 2630
2632 2634 2646 2648 2650 2665 2667 2669 2676 2678 2688 2690 2692 2694 2705
2707 2709 2716 2718 2720 2738 2740 2742 2755 2757 2759 2765 2767 2769 2789
2791 2793 2799 2801 2803 2813 2815 2817 2824 2826 2828 2844 2846 2848 2860
2862 2864 2867 2869 2871 2881 2883 2885 2891 2893 2895 2908 2910 2912 2929
2931 2933 2945 2947 2949 2956 2958 2968 2970 2972 2974 2985 2987 2989 3004
3006 3008 3023 3025 3027 3037 3039 3041 3052 3054 3056 3074 3076 3078 3085
3087 3089 3095 3097 3099 3106 3108 3110 3128 3130 3132 3139 3141 3143 3150
3152 3154 3162 3164 3166 3181 3183 3185 3205 3207 3209 3215 3217 3219 3234
3236 3238 3241 3243 3245 3252 3254 3256 3271 3273 3275 3290 3292 3294 3311
3313 3315 3328 3330 3332 3347 3349 3351 3363 3365 3367 3373 3375 3377 3380
3382 3384 3399 3401 3411 3413 3415 3425 3427 3429 3431 3447 3449 3451 3471
3473 3475 3481 3483 3485 3488 3490 3492 3502 3504 3506 3517 3519 3521 3538
3540 3542 3557 3559 3561 3576 3578 3580 3596 3598 3600 3613 3615 3617 3635
3637 3639 3654 3656 3658 3673 3675 3677 3695 3697 3699 3714 3716 3718 3729
3731 3733 3750 3752 3754 3762 3764 3766 3782 3784 3794 3796 3798 3800 3811
3813 3815 3833 3835 3837 3853 3855 3857 3873 3875 3885 3887 3889 3891 3909
3911 3913 3919 3921 3923 3943 3945 3947 3955 3957 3959 3974 3976 3978 3990
3992 3994 4005 4007 4009 4027 4029 4031 4046 4048 4050 4065 4067 4069 4081
4083 4085 4100 4102 4104 4112 4114 4116 4122 4124 4126 4136 4138 4140 4158
4160 4162 4182 4184 4186 4201 4203 4205 4208 4210 4212 4219 4221 4223 4234
4236 4238 4249 4251 4253 4266 4268 4270 4281 4283 4285 4288 4290 4292 4309
4311 4313 4316 4318 4328 4330 4332 4334 4349 4351 4353 4371 4373 4375 4381
4383 4385 4398 4400 4410 4412 4414 4416 4432 4434 4436 4452 4454 4456 4467
4469 4471 4478 4480 4482 4494 4496 4498 4508 4510 4512 4532 4534 4536 4547
4549 4551 4561 4563 4565 4580 4582 4584 4597 4599 4601 4614 4616 4618 4631
4633 4635 4645 4647 4657 4659 4661 4671 4673 4675 4677 4695 4697 4699 4714
4716 4718 4728
[ MainChain ]
  38   50   52   53   54   56   76   77   78   80   98   99  100  102  120
 121  122  124  144  145  146  156  158  159  160  162  173  174  175  177
 185  186  187  189  205  206  207  209  227  228  229  231  247  248  249
 251  254  255  256  258  276  277  278  280  295  296  297  299  314  315
 316  318  321  322  323  325  336  337  338  340  343  344  345  347  354
 355  356  358  374  375  376  378  385  386  387  389  399  400  401  403
 415  416  417  419  431  432  433  435  450  451  452  454  460  461  462
 464  484  485  486  488  499  500  501  503  518  519  520  522  528  529
 530  532  542  543  544  546  553  554  555  557  577  578  579  581  592
 593  594  596  613  614  615  617  623  624  625  627  642  643  644  646
 664  665  666  668  683  684  685  687  702  703  704  706  717  718  719
 721  739  740  741  743  763  764  765  767  780  781  782  784  799  800
 801  803  818  819  820  822  840  841  842  844  855  856  857  859  869
 870  871  873  891  892  893  895  907  908  909  919  921  922  923  925
 942  943  944  946  958  959  960  962  972  973  974  976  996  997  998
1000 1011 1012 1013 1015 1035 1036 1037 1039 1047 1048 1049 1051 1063 1064
1065 1067 1080 1081 1082 1084 1091 1092 1093 1095 1115 1116 1117 1119 1134
1135 1136 1138 1146 1147 1148 1150 1163 1164 1165 1175 1177 1178 1179 1181
1197 1198 1199 1201 1217 1218 1219 1221 1233 1234 1235 1237 1255 1256 1257
1259 1274 1275 1276 1278 1295 1296 1297 1299 1315 1316 1317 1319 1329 1330
1331 1333 1349 1350 1351 1353 1366 1367 1368 1370 1378 1379 1380 1382 1390
1391 1392 1394 1405 1406 1407 1409 1427 1428 1429 1431 1446 1447 1448 1450
1467 1468 1469 1471 1487 1488 1489 1491 1494 1495 1496 1498 1513 1514 1515
1517 1524 1525 1526 1528 1545 1546 1547 1549 1555 1556 1557 1559 1577 1578
1579 1581 1591 1592 1593 1595 1598 1599 1600 1602 1613 1614 1615 1617 1632
1633 1634 1636 1651 1652 1653 1655 1673 1674 1675 1677 1694 1695 1696 1698
1713 1714 1715 1717 1737 1738 1739 1741 1759 1760 1761 1763 1778 1779 1780
1782 1785 1786 1787 1789 1796 1797 1798 1800 1816 1817 1818 1820 1828 1829
1830 1832 1843 1844 1845 1847 1857 1858 1859 1861 1868 1869 1870 1872 1882
1883 1884 1886 1906 1907 1908 1910 1926 1927 1928 1930 1947 1948 1949 1951
1961 1962 1963 1965 1971 1972 1973 1975 1986 1987 1988 1990 2005 2006 2007
2009 2021 2022 2023 2025 2032 2033 2034 2036 2042 2043 2044 2046 2061 2062
2063 2065 2076 2077 2078 2080 2097 2098 2099 2101 2116 2117 2118 2120 2133
2134 2135 2137 2140 2141 2142 2144 2162 2163 2164 2166 2169 2170 2171 2173
2188 2189 2190 2192 2207 2208 2209 2211 2224 2225 2226 2228 2248 2249 2250
2252 2260 2261 2262 2264 2279 2280 2281 2283 2301 2302 2303 2313 2315 2316
2317 2319 2330 2331 2332 2334 2344 2345 2346 2348 2363 2364 2365 2367 2382
2383 2384 2386 2401 2402 2403 2405 2415 2416 2417 2419 2430 2431 2432 2434
2442 2443 2444 2446 2459 2460 2461 2463 2476 2477 2478 2480 2495 2496 2497
2499 2512 2513 2514 2516 2531 2532 2533 2535 2545 2546 2547 2549 2557 2558
2559 2561 2577 2578 2579 2581 2584 2585 2586 2588 2598 2599 2600 2602 2608
2609 2610 2612 2630 2631 2632 2634 2646 2647 2648 2650 2665 2666 2667 2669
2676 2677 2678 2688 2690 2691 2692 2694 2705 2706 2707 2709 2716 2717 2718
2720 2738 2739 2740 2742 2755 2756 2757 2759 2765 2766 2767 2769 2789 2790
2791 2793 2799 2800 2801 2803 2813 2814 2815 2817 2824 2825 2826 2828 2844
2845 2846 2848 2860 2861 2862 2864 2867 2868 2869 2871 2881 2882 2883 2885
2891 2892 2893 2895 2908 2909 2910 2912 2929 2930 2931 2933 2945 2946 2947
2949 2956 2957 2958 2968 2970 2971 2972 2974 2985 2986 2987 2989 3004 3005
3006 3008 3023 3024 3025 3027 3037 3038 3039 3041 3052 3053 3054 3056 3074
3075 3076 3078 3085 3086 3087 3089 3095 3096 3097 3099 3106 3107 3108 3110
3128 3129 3130 3132 3139 3140 3141 3143 3150 3151 3152 3154 3162 3163 3164
3166 3181 3182 3183 3185 3205 3206 3207 3209 3215 3216 3217 3219 3234 3235
3236 3238 3241 3242 3243 3245 3252 3253 3254 3256 3271 3272 3273 3275 3290
3291 3292 3294 3311 3312 3313 3315 3328 3329 3330 3332 3347 3348 3349 3351
3363 3364 3365 3367 3373 3374 3375 3377 3380 3381 3382 3384 3399 3400 3401
3411 3413 3414 3415 3425 3427 3428 3429 3431 3447 3448 3449 3451 3471 3472
3473 3475 3481 3482 3483 3485 3488 3489 3490 3492 3502 3503 3504 3506 3517
3518 3519 3521 3538 3539 3540 3542 3557 3558 3559 3561 3576 3577 3578 3580
3596 3597 3598 3600 3613 3614 3615 3617 3635 3636 3637 3639 3654 3655 3656
3658 3673 3674 3675 3677 3695 3696 3697 3699 3714 3715 3716 3718 3729 3730
3731 3733 3750 3751 3752 3754 3762 3763 3764 3766 3782 3783 3784 3794 3796
3797 3798 3800 3811 3812 3813 3815 3833 3834 3835 3837 3853 3854 3855 3857
3873 3874 3875 3885 3887 3888 3889 3891 3909 3910 3911 3913 3919 3920 3921
3923 3943 3944 3945 3947 3955 3956 3957 3959 3974 3975 3976 3978 3990 3991
3992 3994 4005 4006 4007 4009 4027 4028 4029 4031 4046 4047 4048 4050 4065
4066 4067 4069 4081 4082 4083 4085 4100 4101 4102 4104 4112 4113 4114 4116
4122 4123 4124 4126 4136 4137 4138 4140 4158 4159 4160 4162 4182 4183 4184
4186 4201 4202 4203 4205 4208 4209 4210 4212 4219 4220 4221 4223 4234 4235
4236 4238 4249 4250 4251 4253 4266 4267 4268 4270 4281 4282 4283 4285 4288
4289 4290 4292 4309 4310 4311 4313 4316 4317 4318 4328 4330 4331 4332 4334
4349 4350 4351 4353 4371 4372 4373 4375 4381 4382 4383 4385 4398 4399 4400
4410 4412 4413 4414 4416 4432 4433 4434 4436 4452 4453 4454 4456 4467 4468
4469 4471 4478 4479 4480 4482 4494 4495 4496 4498 4508 4509 4510 4512 4532
4533 4534 4536 4547 4548 4549 4551 4561 4562 4563 4565 4580 4581 4582 4584
4597 4598 4599 4601 4614 4615 4616 4618 4631 4632 4633 4635 4645 4646 4647
4657 4659 4660 4661 4671 4673 4674 4675 4677 4695 4696 4697 4699 4714 4715
4716 4718 4728 4729 4730
[ MainChain+Cb ]
  38   47   50   52   53   54   56   58   76   77   78   80   82   98   99
 100  102  104  120  121  122  124  126  144  145  146  153  156  158  159
 160  162  164  173  174  175  177  179  185  186  187  189  191  205  206
 207  209  211  227  228  229  231  233  247  248  249  251  254  255  256
 258  260  276  277  278  280  282  295  296  297  299  301  314  315  316
 318  321  322  323  325  327  336  337  338  340  343  344  345  347  349
 354  355  356  358  360  374  375  376  378  380  385  386  387  389  391
 399  400  401  403  405  415  416  417  419  421  431  432  433  435  437
 450  451  452  454  456  460  461  462  464  466  484  485  486  488  490
 499  500  501  503  505  518  519  520  522  524  528  529  530  532  534
 542  543  544  546  548  553  554  555  557  559  577  578  579  581  583
 592  593  594  596  598  613  614  615  617  619  623  624  625  627  629
 642  643  644  646  648  664  665  666  668  670  683  684  685  687  689
 702  703  704  706  708  717  718  719  721  723  739  740  741  743  745
 763  764  765  767  769  780  781  782  784  786  799  800  801  803  805
 818  819  820  822  824  840  841  842  844  846  855  856  857  859  861
 869  870  871  873  875  891  892  893  895  897  907  908  909  916  919
 921  922  923  925  927  942  943  944  946  948  958  959  960  962  964
 972  973  974  976  978  996  997  998 1000 1002 1011 1012 1013 1015 1017
1035 1036 1037 1039 1041 1047 1048 1049 1051 1053 1063 1064 1065 1067 1069
1080 1081 1082 1084 1086 1091 1092 1093 1095 1097 1115 1116 1117 1119 1121
1134 1135 1136 1138 1140 1146 1147 1148 1150 1152 1163 1164 1165 1172 1175
1177 1178 1179 1181 1183 1197 1198 1199 1201 1203 1217 1218 1219 1221 1223
1233 1234 1235 1237 1239 1255 1256 1257 1259 1261 1274 1275 1276 1278 1280
1295 1296 1297 1299 1301 1315 1316 1317 1319 1321 1329 1330 1331 1333 1335
1349 1350 1351 1353 1355 1366 1367 1368 1370 1372 1378 1379 1380 1382 1384
1390 1391 1392 1394 1396 1405 1406 1407 1409 1411 1427 1428 1429 1431 1433
1446 1447 1448 1450 1452 1467 1468 1469 1471 1473 1487 1488 1489 1491 1494
1495 1496 1498 1500 1513 1514 1515 1517 1519 1524 1525 1526 1528 1530 1545
1546 1547 1549 1551 1555 1556 1557 1559 1561 1577 1578 1579 1581 1583 1591
1592 1593 1595 1598 1599 1600 1602 1604 1613 1614 1615 1617 1619 1632 1633
1634 1636 1638 1651 1652 1653 1655 1657 1673 1674 1675 1677 1679 1694 1695
1696 1698 1700 1713 1714 1715 1717 1719 1737 1738 1739 1741 1743 1759 1760
1761 1763 1765 1778 1779 1780 1782 1785 1786 1787 1789 1791 1796 1797 1798
1800 1802 1816 1817 1818 1820 1822 1828 1829 1830 1832 1834 1843 1844 1845
1847 1849 1857 1858 1859 1861 1863 1868 1869 1870 1872 1874 1882 1883 1884
1886 1888 1906 1907 1908 1910 1912 1926 1927 1928 1930 1932 1947 1948 1949
1951 1953 1961 1962 1963 1965 1967 1971 1972 1973 1975 1977 1986 1987 1988
1990 1992 2005 2006 2007 2009 2011 2021 2022 2023 2025 2027 2032 2033 2034
2036 2038 2042 2043 2044 2046 2048 2061 2062 2063 2065 2067 2076 2077 2078
2080 2082 2097 2098 2099 2101 2103 2116 2117 2118 2120 2122 2133 2134 2135
2137 2140 2141 2142 2144 2146 2162 2163 2164 2166 2169 2170 2171 2173 2175
2188 2189 2190 2192 2194 2207 2208 2209 2211 2213 2224 2225 2226 2228 2230
2248 2249 2250 2252 2254 2260 2261 2262 2264 2266 2279 2280 2281 2283 2285
2301 2302 2303 2310 2313 2315 2316 2317 2319 2321 2330 2331 2332 2334 2336
2344 2345 2346 2348 2350 2363 2364 2365 2367 2369 2382 2383 2384 2386 2388
2401 2402 2403 2405 2407 2415 2416 2417 2419 2421 2430 2431 2432 2434 2436
2442 2443 2444 2446 2448 2459 2460 2461 2463 2465 2476 2477 2478 2480 2482
2495 2496 2497 2499 2501 2512 2513 2514 2516 2518 2531 2532 2533 2535 2537
2545 2546 2547 2549 2551 2557 2558 2559 2561 2563 2577 2578 2579 2581 2584
2585 2586 2588 2590 2598 2599 2600 2602 2604 2608 2609 2610 2612 2614 2630
2631 2632 2634 2636 2646 2647 2648 2650 2652 2665 2666 2667 2669 2671 2676
2677 2678 2685 2688 2690 2691 2692 2694 2696 2705 2706 2707 2709 2711 2716
2717 2718 2720 2722 2738 2739 2740 2742 2744 2755 2756 2757 2759 2761 2765
2766 2767 2769 2771 2789 2790 2791 2793 2795 2799 2800 2801 2803 2805 2813
2814 2815 2817 2819 2824 2825 2826 2828 2830 2844 2845 2846 2848 2850 2860
2861 2862 2864 2867 2868 2869 2871 2873 2881 2882 2883 2885 2887 2891 2892
2893 2895 2897 2908 2909 2910 2912 2914 2929 2930 2931 2933 2935 2945 2946
2947 2949 2951 2956 2957 2958 2965 2968 2970 2971 2972 2974 2976 2985 2986
2987 2989 2991 3004 3005 3006 3008 3010 3023 3024 3025 3027 3029 3037 3038
3039 3041 3043 3052 3053 3054 3056 3058 3074 3075 3076 3078 3080 3085 3086
3087 3089 3091 3095 3096 3097 3099 3101 3106 3107 3108 3110 3112 3128 3129
3130 3132 3134 3139 3140 3141 3143 3145 3150 3151 3152 3154 3156 3162 3163
3164 3166 3168 3181 3182 3183 3185 3187 3205 3206 3207 3209 3211 3215 3216
3217 3219 3221 3234 3235 3236 3238 3241 3242 3243 3245 3247 3252 3253 3254
3256 3258 3271 3272 3273 3275 3277 3290 3291 3292 3294 3296 3311 3312 3313
3315 3317 3328 3329 3330 3332 3334 3347 3348 3349 3351 3353 3363 3364 3365
3367 3369 3373 3374 3375 3377 3380 3381 3382 3384 3386 3399 3400 3401 3408
3411 3413 3414 3415 3422 3425 3427 3428 3429 3431 3433 3447 3448 3449 3451
3453 3471 3472 3473 3475 3477 3481 3482 3483 3485 3488 3489 3490 3492 3494
3502 3503 3504 3506 3508 3517 3518 3519 3521 3523 3538 3539 3540 3542 3544
3557 3558 3559 3561 3563 3576 3577 3578 3580 3582 3596 3597 3598 3600 3602
3613 3614 3615 3617 3619 3635 3636 3637 3639 3641 3654 3655 3656 3658 3660
3673 3674 3675 3677 3679 3695 3696 3697 3699 3701 3714 3715 3716 3718 3720
3729 3730 3731 3733 3735 3750 3751 3752 3754 3756 3762 3763 3764 3766 3768
3782 3783 3784 3791 3794 3796 3797 3798 3800 3802 3811 3812 3813 3815 3817
3833 3834 3835 3837 3839 3853 3854 3855 3857 3859 3873 3874 3875 3882 3885
3887 3888 3889 3891 3893 3909 3910 3911 3913 3915 3919 3920 3921 3923 3925
3943 3944 3945 3947 3949 3955 3956 3957 3959 3961 3974 3975 3976 3978 3980
3990 3991 3992 3994 3996 4005 4006 4007 4009 4011 4027 4028 4029 4031 4033
4046 4047 4048 4050 4052 4065 4066 4067 4069 4071 4081 4082 4083 4085 4087
4100 4101 4102 4104 4106 4112 4113 4114 4116 4118 4122 4123 4124 4126 4128
4136 4137 4138 4140 4142 4158 4159 4160 4162 4164 4182 4183 4184 4186 4188
4201 4202 4203 4205 4208 4209 4210 4212 4214 4219 4220 4221 4223 4225 4234
4235 4236 4238 4240 4249 4250 4251 4253 4255 4266 4267 4268 4270 4272 4281
4282 4283 4285 4288 4289 4290 4292 4294 4309 4310 4311 4313 4316 4317 4318
4325 4328 4330 4331 4332 4334 4336 4349 4350 4351 4353 4355 4371 4372 4373
4375 4377 4381 4382 4383 4385 4387 4398 4399 4400 4407 4410 4412 4413 4414
4416 4418 4432 4433 4434 4436 4438 4452 4453 4454 4456 4458 4467 4468 4469
4471 4473 4478 4479 4480 4482 4484 4494 4495 4496 4498 4500 4508 4509 4510
4512 4514 4532 4533 4534 4536 4538 4547 4548 4549 4551 4553 4561 4562 4563
4565 4567 4580 4581 4582 4584 4586 4597 4598 4599 4601 4603 4614 4615 4616
4618 4620 4631 4632 4633 4635 4637 4645 4646 4647 4654 4657 4659 4660 4661
4668 4671 4673 4674 4675 4677 4679 4695 4696 4697 4699 4701 4714 4715 4716
4718 4720 4728 4729 4730
[ MainChain+H ]
  38   39   40   50   52   53   54   55   56   76   77   78   79   80   98
  99  100  101  102  120  121  122  123  124  144  145  146  156  158  159
 160  161  162  173  174  175  176  177  185  186  187  188  189  205  206
 207  208  209  227  228  229  230  231  247  248  249  250  251  254  255
 256  257  258  276  277  278  279  280  295  296  297  298  299  314  315
 316  317  318  321  322  323  324  325  336  337  338  339  340  343  344
 345  346  347  354  355  356  357  358  374  375  376  377  378  385  386
 387  388  389  399  400  401  402  403  415  416  417  418  419  431  432
 433  434  435  450  451  452  453  454  460  461  462  463  464  484  485
 486  487  488  499  500  501  502  503  518  519  520  521  522  528  529
 530  531  532  542  543  544  545  546  553  554  555  556  557  577  578
 579  580  581  592  593  594  595  596  613  614  615  616  617  623  624
 625  626  627  642  643  644  645  646  664  665  666  667  668  683  684
 685  686  687  702  703  704  705  706  717  718  719  720  721  739  740
 741  742  743  763  764  765  766  767  780  781  782  783  784  799  800
 801  802  803  818  819  820  821  822  840  841  842  843  844  855  856
 857  858  859  869  870  871  872  873  891  892  893  894  895  907  908
 909  919  921  922  923  924  925  942  943  944  945  946  958  959  960
 961  962  972  973  974  975  976  996  997  998  999 1000 1011 1012 1013
1014 1015 1035 1036 1037 1038 1039 1047 1048 1049 1050 1051 1063 1064 1065
1066 1067 1080 1081 1082 1083 1084 1091 1092 1093 1094 1095 1115 1116 1117
1118 1119 1134 1135 1136 1137 1138 1146 1147 1148 1149 1150 1163 1164 1165
1175 1177 1178 1179 1180 1181 1197 1198 1199 1200 1201 1217 1218 1219 1220
1221 1233 1234 1235 1236 1237 1255 1256 1257 1258 1259 1274 1275 1276 1277
1278 1295 1296 1297 1298 1299 1315 1316 1317 1318 1319 1329 1330 1331 1332
1333 1349 1350 1351 1352 1353 1366 1367 1368 1369 1370 1378 1379 1380 1381
1382 1390 1391 1392 1393 1394 1405 1406 1407 1408 1409 1427 1428 1429 1430
1431 1446 1447 1448 1449 1450 1467 1468 1469 1470 1471 1487 1488 1489 1490
1491 1494 1495 1496 1497 1498 1513 1514 1515 1516 1517 1524 1525 1526 1527
1528 1545 1546 1547 1548 1549 1555 1556 1557 1558 1559 1577 1578 1579 1580
1581 1591 1592 1593 1594 1595 1598 1599 1600 1601 1602 1613 1614 1615 1616
1617 1632 1633 1634 1635 1636 1651 1652 1653 1654 1655 1673 1674 1675 1676
1677 1694 1695 1696 1697 1698 1713 1714 1715 1716 1717 1737 1738 1739 1740
1741 1759 1760 1761 1762 1763 1778 1779 1780 1781 1782 1785 1786 1787 1788
1789 1796 1797 1798 1799 1800 1816 1817 1818 1819 1820 1828 1829 1830 1831
1832 1843 1844 1845 1846 1847 1857 1858 1859 1860 1861 1868 1869 1870 1871
1872 1882 1883 1884 1885 1886 1906 1907 1908 1909 1910 1926 1927 1928 1929
1930 1947 1948 1949 1950 1951 1961 1962 1963 1964 1965 1971 1972 1973 1974
1975 1986 1987 1988 1989 1990 2005 2006 2007 2008 2009 2021 2022 2023 2024
2025 2032 2033 2034 2035 2036 2042 2043 2044 2045 2046 2061 2062 2063 2064
2065 2076 2077 2078 2079 2080 2097 2098 2099 2100 2101 2116 2117 2118 2119
2120 2133 2134 2135 2136 2137 2140 2141 2142 2143 2144 2162 2163 2164 2165
2166 2169 2170 2171 2172 2173 2188 2189 2190 2191 2192 2207 2208 2209 2210
2211 2224 2225 2226 2227 2228 2248 2249 2250 2251 2252 2260 2261 2262 2263
2264 2279 2280 2281 2282 2283 2301 2302 2303 2313 2315 2316 2317 2318 2319
2330 2331 2332 2333 2334 2344 2345 2346 2347 2348 2363 2364 2365 2366 2367
2382 2383 2384 2385 2386 2401 2402 2403 2404 2405 2415 2416 2417 2418 2419
2430 2431 2432 2433 2434 2442 2443 2444 2445 2446 2459 2460 2461 2462 2463
2476 2477 2478 2479 2480 2495 2496 2497 2498 2499 2512 2513 2514 2515 2516
2531 2532 2533 2534 2535 2545 2546 2547 2548 2549 2557 2558 2559 2560 2561
2577 2578 2579 2580 2581 2584 2585 2586 2587 2588 2598 2599 2600 2601 2602
2608 2609 2610 2611 2612 2630 2631 2632 2633 2634 2646 2647 2648 2649 2650
2665 2666 2667 2668 2669 2676 2677 2678 2688 2690 2691 2692 2693 2694 2705
2706 2707 2708 2709 2716 2717 2718 2719 2720 2738 2739 2740 2741 2742 2755
2756 2757 2758 2759 2765 2766 2767 2768 2769 2789 2790 2791 2792 2793 2799
2800 2801 2802 2803 2813 2814 2815 2816 2817 2824 2825 2826 2827 2828 2844
2845 2846 2847 2848 2860 2861 2862 2863 2864 2867 2868 2869 2870 2871 2881
2882 2883 2884 2885 2891 2892 2893 2894 2895 2908 2909 2910 2911 2912 2929
2930 2931 2932 2933 2945 2946 2947 2948 2949 2956 2957 2958 2968 2970 2971
2972 2973 2974 2985 2986 2987 2988 2989 3004 3005 3006 3007 3008 3023 3024
3025 3026 3027 3037 3038 3039 3040 3041 3052 3053 3054 3055 3056 3074 3075
3076 3077 3078 3085 3086 3087 3088 3089 3095 3096 3097 3098 3099 3106 3107
3108 3109 3110 3128 3129 3130 3131 3132 3139 3140 3141 3142 3143 3150 3151
3152 3153 3154 3162 3163 3164 3165 3166 3181 3182 3183 3184 3185 3205 3206
3207 3208 3209 3215 3216 3217 3218 3219 3234 3235 3236 3237 3238 3241 3242
3243 3244 3245 3252 3253 3254 3255 3256 3271 3272 3273 3274 3275 3290 3291
3292 3293 3294 3311 3312 3313 3314 3315 3328 3329 3330 3331 3332 3347 3348
3349 3350 3351 3363 3364 3365 3366 3367 3373 3374 3375 3376 3377 3380 3381
3382 3383 3384 3399 3400 3401 3411 3413 3414 3415 3425 3427 3428 3429 3430
3431 3447 3448 3449 3450 3451 3471 3472 3473 3474 3475 3481 3482 3483 3484
3485 3488 3489 3490 3491 3492 3502 3503 3504 3505 3506 3517 3518 3519 3520
3521 3538 3539 3540 3541 3542 3557 3558 3559 3560 3561 3576 3577 3578 3579
3580 3596 3597 3598 3599 3600 3613 3614 3615 3616 3617 3635 3636 3637 3638
3639 3654 3655 3656 3657 3658 3673 3674 3675 3676 3677 3695 3696 3697 3698
3699 3714 3715 3716 3717 3718 3729 3730 3731 3732 3733 3750 3751 3752 3753
3754 3762 3763 3764 3765 3766 3782 3783 3784 3794 3796 3797 3798 3799 3800
3811 3812 3813 3814 3815 3833 3834 3835 3836 3837 3853 3854 3855 3856 3857
3873 3874 3875 3885 3887 3888 3889 3890 3891 3909 3910 3911 3912 3913 3919
3920 3921 3922 3923 3943 3944 3945 3946 3947 3955 3956 3957 3958 3959 3974
3975 3976 3977 3978 3990 3991 3992 3993 3994 4005 4006 4007 4008 4009 4027
4028 4029 4030 4031 4046 4047 4048 4049 4050 4065 4066 4067 4068 4069 4081
4082 4083 4084 4085 4100 4101 4102 4103 4104 4112 4113 4114 4115 4116 4122
4123 4124 4125 4126 4136 4137 4138 4139 4140 4158 4159 4160 4161 4162 4182
4183 4184 4185 4186 4201 4202 4203 4204 4205 4208 4209 4210 4211 4212 4219
4220 4221 4222 4223 4234 4235 4236 4237 4238 4249 4250 4251 4252 4253 4266
4267 4268 4269 4270 4281 4282 4283 4284 4285 4288 4289 4290 4291 4292 4309
4310 4311 4312 4313 4316 4317 4318 4328 4330 4331 4332 4333 4334 4349 4350
4351 4352 4353 4371 4372 4373 4374 4375 4381 4382 4383 4384 4385 4398 4399
4400 4410 4412 4413 4414 4415 4416 4432 4433 4434 4435 4436 4452 4453 4454
4455 4456 4467 4468 4469 4470 4471 4478 4479 4480 4481 4482 4494 4495 4496
4497 4498 4508 4509 4510 4511 4512 4532 4533 4534 4535 4536 4547 4548 4549
4550 4551 4561 4562 4563 4564 4565 4580 4581 4582 4583 4584 4597 4598 4599
4600 4601 4614 4615 4616 4617 4618 4631 4632 4633 4634 4635 4645 4646 4647
4657 4659 4660 4661 4671 4673 4674 4675 4676 4677 4695 4696 4697 4698 4699
4714 4715 4716 4717 4718 4728 4729 4730
[ SideChain ]
  41   42   43   44   45   46   47   48   49   51   57   58   59   60   61
  62   63   64   65   66   67   68   69   70   71   72   73   74   75   81
  82   83   84   85   86   87   88   89   90   91   92   93   94   95   96
  97  103  104  105  106  107  108  109  110  111  112  113  114  115  116
 117  118  119  125  126  127  128  129  130  131  132  133  134  135  136
 137  138  139  140  141  142  143  147  148  149  150  151  152  153  154
 155  157  163  164  165  166  167  168  169  170  171  172  178  179  180
 181  182  183  184  190  191  192  193  194  195  196  197  198  199  200
 201  202  203  204  210  211  212  213  214  215  216  217  218  219  220
 221  222  223  224  225  226  232  233  234  235  236  237  238  239  240
 241  242  243  244  245  246  252  253  259  260  261  262  263  264  265
 266  267  268  269  270  271  272  273  274  275  281  282  283  284  285
 286  287  288  289  290  291  292  293  294  300  301  302  303  304  305
 306  307  308  309  310  311  312  313  319  320  326  327  328  329  330
 331  332  333  334  335  341  342  348  349  350  351  352  353  359  360
 361  362  363  364  365  366  367  368  369  370  371  372  373  379  380
 381  382  383  384  390  391  392  393  394  395  396  397  398  404  405
 406  407  408  409  410  411  412  413  414  420  421  422  423  424  425
 426  427  428  429  430  436  437  438  439  440  441  442  443  444  445
 446  447  448  449  455  456  457  458  459  465  466  467  468  469  470
 471  472  473  474  475  476  477  478  479  480  481  482  483  489  490
 491  492  493  494  495  496  497  498  504  505  506  507  508  509  510
 511  512  513  514  515  516  517  523  524  525  526  527  533  534  535
 536  537  538  539  540  541  547  548  549  550  551  552  558  559  560
 561  562  563  564  565  566  567  568  569  570  571  572  573  574  575
 576  582  583  584  585  586  587  588  589  590  591  597  598  599  600
 601  602  603  604  605  606  607  608  609  610  611  612  618  619  620
 621  622  628  629  630  631  632  633  634  635  636  637  638  639  640
 641  647  648  649  650  651  652  653  654  655  656  657  658  659  660
 661  662  663  669  670  671  672  673  674  675  676  677  678  679  680
 681  682  688  689  690  691  692  693  694  695  696  697  698  699  700
 701  707  708  709  710  711  712  713  714  715  716  722  723  724  725
 726  727  728  729  730  731  732  733  734  735  736  737  738  744  745
 746  747  748  749  750  751  752  753  754  755  756  757  758  759  760
 761  762  768  769  770  771  772  773  774  775  776  777  778  779  785
 786  787  788  789  790  791  792  793  794  795  796  797  798  804  805
 806  807  808  809  810  811  812  813  814  815  816  817  823  824  825
 826  827  828  829  830  831  832  833  834  835  836  837  838  839  845
 846  847  848  849  850  851  852  853  854  860  861  862  863  864  865
 866  867  868  874  875  876  877  878  879  880  881  882  883  884  885
 886  887  888  889  890  896  897  898  899  900  901  902  903  904  905
 906  910  911  912  913  914  915  916  917  918  920  926  927  928  929
 930  931  932  933  934  935  936  937  938  939  940  941  947  948  949
 950  951  952  953  954  955  956  957  963  964  965  966  967  968  969
 970  971  977  978  979  980  981  982  983  984  985  986  987  988  989
 990  991  992  993  994  995 1001 1002 1003 1004 1005 1006 1007 1008 1009
1010 1016 1017 1018 1019 1020 1021 1022 1023 1024 1025 1026 1027 1028 1029
1030 1031 1032 1033 1034 1040 1041 1042 1043 1044 1045 1046 1052 1053 1054
1055 1056 1057 1058 1059 1060 1061 1062 1068 1069 1070 1071 1072 1073 1074
1075 1076 1077 1078 1079 1085 1086 1087 1088 1089 1090 1096 1097 1098 1099
1100 1101 1102 1103 1104 1105 1106 1107 1108 1109 1110 1111 1112 1113 1114
1120 1121 1122 1123 1124 1125 1126 1127 1128 1129 1130 1131 1132 1133 1139
1140 1141 1142 1143 1144 1145 1151 1152 1153 1154 1155 1156 1157 1158 1159
1160 1161 1162 1166 1167 1168 1169 1170 1171 1172 1173 1174 1176 1182 1183
1184 1185 1186 1187 1188 1189 1190 1191 1192 1193 1194 1195 1196 1202 1203
1204 1205 1206 1207 1208 1209 1210 1211 1212 1213 1214 1215 1216 1222 1223
1224 1225 1226 1227 1228 1229 1230 1231 1232 1238 1239 1240 1241 1242 1243
1244 1245 1246 1247 1248 1249 1250 1251 1252 1253 1254 1260 1261 1262 1263
1264 1265 1266 1267 1268 1269 1270 1271 1272 1273 1279 1280 1281 1282 1283
1284 1285 1286 1287 1288 1289 1290 1291 1292 1293 1294 1300 1301 1302 1303
1304 1305 1306 1307 1308 1309 1310 1311 1312 1313 1314 1320 1321 1322 1323
1324 1325 1326 1327 1328 1334 1335 1336 1337 1338 1339 1340 1341 1342 1343
1344 1345 1346 1347 1348 1354 1355 1356 1357 1358 1359 1360 1361 1362 1363
1364 1365 1371 1372 1373 1374 1375 1376 1377 1383 1384 1385 1386 1387 1388
1389 1395 1396 1397 1398 1399 1400 1401 1402 1403 1404 1410 1411 1412 1413
1414 1415 1416 1417 1418 1419 1420 1421 1422 1423 1424 1425 1426 1432 1433
1434 1435 1436 1437 1438 1439 1440 1441 1442 1443 1444 1445 1451 1452 1453
1454 1455 1456 1457 1458 1459 1460 1461 1462 1463 1464 1465 1466 1472 1473
1474 1475 1476 1477 1478 1479 1480 1481 1482 1483 1484 1485 1486 1492 1493
1499 1500 1501 1502 1503 1504 1505 1506 1507 1508 1509 1510 1511 1512 1518
1519 1520 1521 1522 1523 1529 1530 1531 1532 1533 1534 1535 1536 1537 1538
1539 1540 1541 1542 1543 1544 1550 1551 1552 1553 1554 1560 1561 1562 1563
1564 1565 1566 1567 1568 1569 1570 1571 1572 1573 1574 1575 1576 1582 1583
1584 1585 1586 1587 1588 1589 1590 1596 1597 1603 1604 1605 1606 1607 1608
1609 1610 1611 1612 1618 1619 1620 1621 1622 1623 1624 1625 1626 1627 1628
1629 1630 1631 1637 1638 1639 1640 1641 1642 1643 1644 1645 1646 1647 1648
1649 1650 1656 1657 1658 1659 1660 1661 1662 1663 1664 1665 1666 1667 1668
1669 1670 1671 1672 1678 1679 1680 1681 1682 1683 1684 1685 1686 1687 1688
1689 1690 1691 1692 1693 1699 1700 1701 1702 1703 1704 1705 1706 1707 1708
1709 1710 1711 1712 1718 1719 1720 1721 1722 1723 1724 1725 1726 1727 1728
1729 1730 1731 1732 1733 1734 1735 1736 1742 1743 1744 1745 1746 1747 1748
1749 1750 1751 1752 1753 1754 1755 1756 1757 1758 1764 1765 1766 1767 1768
1769 1770 1771 1772 1773 1774 1775 1776 1777 1783 1784 1790 1791 1792 1793
1794 1795 1801 1802 1803 1804 1805 1806 1807 1808 1809 1810 1811 1812 1813
1814 1815 1821 1822 1823 1824 1825 1826 1827 1833 1834 1835 1836 1837 1838
1839 1840 1841 1842 1848 1849 1850 1851 1852 1853 1854 1855 1856 1862 1863
1864 1865 1866 1867 1873 1874 1875 1876 1877 1878 1879 1880 1881 1887 1888
1889 1890 1891 1892 1893 1894 1895 1896 1897 1898 1899 1900 1901 1902 1903
1904 1905 1911 1912 1913 1914 1915 1916 1917 1918 1919 1920 1921 1922 1923
1924 1925 1931 1932 1933 1934 1935 1936 1937 1938 1939 1940 1941 1942 1943
1944 1945 1946 1952 1953 1954 1955 1956 1957 1958 1959 1960 1966 1967 1968
1969 1970 1976 1977 1978 1979 1980 1981 1982 1983 1984 1985 1991 1992 1993
1994 1995 1996 1997 1998 1999 2000 2001 2002 2003 2004 2010 2011 2012 2013
2014 2015 2016 2017 2018 2019 2020 2026 2027 2028 2029 2030 2031 2037 2038
2039 2040 2041 2047 2048 2049 2050 2051 2052 2053 2054 2055 2056 2057 2058
2059 2060 2066 2067 2068 2069 2070 2071 2072 2073 2074 2075 2081 2082 2083
2084 2085 2086 2087 2088 2089 2090 2091 2092 2093 2094 2095 2096 2102 2103
2104 2105 2106 2107 2108 2109 2110 2111 2112 2113 2114 2115 2121 2122 2123
2124 2125 2126 2127 2128 2129 2130 2131 2132 2138 2139 2145 2146 2147 2148
2149 2150 2151 2152 2153 2154 2155 2156 2157 2158 2159 2160 2161 2167 2168
2174 2175 2176 2177 2178 2179 2180 2181 2182 2183 2184 2185 2186 2187 2193
2194 2195 2196 2197 2198 2199 2200 2201 2202 2203 2204 2205 2206 2212 2213
2214 2215 2216 2217 2218 2219 2220 2221 2222 2223 2229 2230 2231 2232 2233
2234 2235 2236 2237 2238 2239 2240 2241 2242 2243 2244 2245 2246 2247 2253
2254 2255 2256 2257 2258 2259 2265 2266 2267 2268 2269 2270 2271 2272 2273
2274 2275 2276 2277 2278 2284 2285 2286 2287 2288 2289 2290 2291 2292 2293
2294 2295 2296 2297 2298 2299 2300 2304 2305 2306 2307 2308 2309 2310 2311
2312 2314 2320 2321 2322 2323 2324 2325 2326 2327 2328 2329 2335 2336 2337
2338 2339 2340 2341 2342 2343 2349 2350 2351 2352 2353 2354 2355 2356 2357
2358 2359 2360 2361 2362 2368 2369 2370 2371 2372 2373 2374 2375 2376 2377
2378 2379 2380 2381 2387 2388 2389 2390 2391 2392 2393 2394 2395 2396 2397
2398 2399 2400 2406 2407 2408 2409 2410 2411 2412 2413 2414 2420 2421 2422
2423 2424 2425 2426 2427 2428 2429 2435 2436 2437 2438 2439 2440 2441 2447
2448 2449 2450 2451 2452 2453 2454 2455 2456 2457 2458 2464 2465 2466 2467
2468 2469 2470 2471 2472 2473 2474 2475 2481 2482 2483 2484 2485 2486 2487
2488 2489 2490 2491 2492 2493 2494 2500 2501 2502 2503 2504 2505 2506 2507
2508 2509 2510 2511 2517 2518 2519 2520 2521 2522 2523 2524 2525 2526 2527
2528 2529 2530 2536 2537 2538 2539 2540 2541 2542 2543 2544 2550 2551 2552
2553 2554 2555 2556 2562 2563 2564 2565 2566 2567 2568 2569 2570 2571 2572
2573 2574 2575 2576 2582 2583 2589 2590 2591 2592 2593 2594 2595 2596 2597
2603 2604 2605 2606 2607 2613 2614 2615 2616 2617 2618 2619 2620 2621 2622
2623 2624 2625 2626 2627 2628 2629 2635 2636 2637 2638 2639 2640 2641 2642
2643 2644 2645 2651 2652 2653 2654 2655 2656 2657 2658 2659 2660 2661 2662
2663 2664 2670 2671 2672 2673 2674 2675 2679 2680 2681 2682 2683 2684 2685
2686 2687 2689 2695 2696 2697 2698 2699 2700 2701 2702 2703 2704 2710 2711
2712 2713 2714 2715 2721 2722 2723 2724 2725 2726 2727 2728 2729 2730 2731
2732 2733 2734 2735 2736 2737 2743 2744 2745 2746 2747 2748 2749 2750 2751
2752 2753 2754 2760 2761 2762 2763 2764 2770 2771 2772 2773 2774 2775 2776
2777 2778 2779 2780 2781 2782 2783 2784 2785 2786 2787 2788 2794 2795 2796
2797 2798 2804 2805 2806 2807 2808 2809 2810 2811 2812 2818 2819 2820 2821
2822 2823 2829 2830 2831 2832 2833 2834 2835 2836 2837 2838 2839 2840 2841
2842 2843 2849 2850 2851 2852 2853 2854 2855 2856 2857 2858 2859 2865 2866
2872 2873 2874 2875 2876 2877 2878 2879 2880 2886 2887 2888 2889 2890 2896
2897 2898 2899 2900 2901 2902 2903 2904 2905 2906 2907 2913 2914 2915 2916
2917 2918 2919 2920 2921 2922 2923 2924 2925 2926 2927 2928 2934 2935 2936
2937 2938 2939 2940 2941 2942 2943 2944 2950 2951 2952 2953 2954 2955 2959
2960 2961 2962 2963 2964 2965 2966 2967 2969 2975 2976 2977 2978 2979 2980
2981 2982 2983 2984 2990 2991 2992 2993 2994 2995 2996 2997 2998 2999 3000
3001 3002 3003 3009 3010 3011 3012 3013 3014 3015 3016 3017 3018 3019 3020
3021 3022 3028 3029 3030 3031 3032 3033 3034 3035 3036 3042 3043 3044 3045
3046 3047 3048 3049 3050 3051 3057 3058 3059 3060 3061 3062 3063 3064 3065
3066 3067 3068 3069 3070 3071 3072 3073 3079 3080 3081 3082 3083 3084 3090
3091 3092 3093 3094 3100 3101 3102 3103 3104 3105 3111 3112 3113 3114 3115
3116 3117 3118 3119 3120 3121 3122 3123 3124 3125 3126 3127 3133 3134 3135
3136 3137 3138 3144 3145 3146 3147 3148 3149 3155 3156 3157 3158 3159 3160
3161 3167 3168 3169 3170 3171 3172 3173 3174 3175 3176 3177 3178 3179 3180
3186 3187 3188 3189 3190 3191 3192 3193 3194 3195 3196 3197 3198 3199 3200
3201 3202 3203 3204 3210 3211 3212 3213 3214 3220 3221 3222 3223 3224 3225
3226 3227 3228 3229 3230 3231 3232 3233 3239 3240 3246 3247 3248 3249 3250
3251 3257 3258 3259 3260 3261 3262 3263 3264 3265 3266 3267 3268 3269 3270
3276 3277 3278 3279 3280 3281 3282 3283 3284 3285 3286 3287 3288 3289 3295
3296 3297 3298 3299 3300 3301 3302 3303 3304 3305 3306 3307 3308 3309 3310
3316 3317 3318 3319 3320 3321 3322 3323 3324 3325 3326 3327 3333 3334 3335
3336 3337 3338 3339 3340 3341 3342 3343 3344 3345 3346 3352 3353 3354 3355
3356 3357 3358 3359 3360 3361 3362 3368 3369 3370 3371 3372 3378 3379 3385
3386 3387 3388 3389 3390 3391 3392 3393 3394 3395 3396 3397 3398 3402 3403
3404 3405 3406 3407 3408 3409 3410 3412 3416 3417 3418 3419 3420 3421 3422
3423 3424 3426 3432 3433 3434 3435 3436 3437 3438 3439 3440 3441 3442 3443
3444 3445 3446 3452 3453 3454 3455 3456 3457 3458 3459 3460 3461 3462 3463
3464 3465 3466 3467 3468 3469 3470 3476 3477 3478 3479 3480 3486 3487 3493
3494 3495 3496 3497 3498 3499 3500 3501 3507 3508 3509 3510 3511 3512 3513
3514 3515 3516 3522 3523 3524 3525 3526 3527 3528 3529 3530 3531 3532 3533
3534 3535 3536 3537 3543 3544 3545 3546 3547 3548 3549 3550 3551 3552 3553
3554 3555 3556 3562 3563 3564 3565 3566 3567 3568 3569 3570 3571 3572 3573
3574 3575 3581 3582 3583 3584 3585 3586 3587 3588 3589 3590 3591 3592 3593
3594 3595 3601 3602 3603 3604 3605 3606 3607 3608 3609 3610 3611 3612 3618
3619 3620 3621 3622 3623 3624 3625 3626 3627 3628 3629 3630 3631 3632 3633
3634 3640 3641 3642 3643 3644 3645 3646 3647 3648 3649 3650 3651 3652 3653
3659 3660 3661 3662 3663 3664 3665 3666 3667 3668 3669 3670 3671 3672 3678
3679 3680 3681 3682 3683 3684 3685 3686 3687 3688 3689 3690 3691 3692 3693
3694 3700 3701 3702 3703 3704 3705 3706 3707 3708 3709 3710 3711 3712 3713
3719 3720 3721 3722 3723 3724 3725 3726 3727 3728 3734 3735 3736 3737 3738
3739 3740 3741 3742 3743 3744 3745 3746 3747 3748 3749 3755 3756 3757 3758
3759 3760 3761 3767 3768 3769 3770 3771 3772 3773 3774 3775 3776 3777 3778
3779 3780 3781 3785 3786 3787 3788 3789 3790 3791 3792 3793 3795 3801 3802
3803 3804 3805 3806 3807 3808 3809 3810 3816 3817 3818 3819 3820 3821 3822
3823 3824 3825 3826 3827 3828 3829 3830 3831 3832 3838 3839 3840 3841 3842
3843 3844 3845 3846 3847 3848 3849 3850 3851 3852 3858 3859 3860 3861 3862
3863 3864 3865 3866 3867 3868 3869 3870 3871 3872 3876 3877 3878 3879 3880
3881 3882 3883 3884 3886 3892 3893 3894 3895 3896 3897 3898 3899 3900 3901
3902 3903 3904 3905 3906 3907 3908 3914 3915 3916 3917 3918 3924 3925 3926
3927 3928 3929 3930 3931 3932 3933 3934 3935 3936 3937 3938 3939 3940 3941
3942 3948 3949 3950 3951 3952 3953 3954 3960 3961 3962 3963 3964 3965 3966
3967 3968 3969 3970 3971 3972 3973 3979 3980 3981 3982 3983 3984 3985 3986
3987 3988 3989 3995 3996 3997 3998 3999 4000 4001 4002 4003 4004 4010 4011
4012 4013 4014 4015 4016 4017 4018 4019 4020 4021 4022 4023 4024 4025 4026
4032 4033 4034 4035 4036 4037 4038 4039 4040 4041 4042 4043 4044 4045 4051
4052 4053 4054 4055 4056 4057 4058 4059 4060 4061 4062 4063 4064 4070 4071
4072 4073 4074 4075 4076 4077 4078 4079 4080 4086 4087 4088 4089 4090 4091
4092 4093 4094 4095 4096 4097 4098 4099 4105 4106 4107 4108 4109 4110 4111
4117 4118 4119 4120 4121 4127 4128 4129 4130 4131 4132 4133 4134 4135 4141
4142 4143 4144 4145 4146 4147 4148 4149 4150 4151 4152 4153 4154 4155 4156
4157 4163 4164 4165 4166 4167 4168 4169 4170 4171 4172 4173 4174 4175 4176
4177 4178 4179 4180 4181 4187 4188 4189 4190 4191 4192 4193 4194 4195 4196
4197 4198 4199 4200 4206 4207 4213 4214 4215 4216 4217 4218 4224 4225 4226
4227 4228 4229 4230 4231 4232 4233 4239 4240 4241 4242 4243 4244 4245 4246
4247 4248 4254 4255 4256 4257 4258 4259 4260 4261 4262 4263 4264 4265 4271
4272 4273 4274 4275 4276 4277 4278 4279 4280 4286 4287 4293 4294 4295 4296
4297 4298 4299 4300 4301 4302 4303 4304 4305 4306 4307 4308 4314 4315 4319
4320 4321 4322 4323 4324 4325 4326 4327 4329 4335 4336 4337 4338 4339 4340
4341 4342 4343 4344 4345 4346 4347 4348 4354 4355 4356 4357 4358 4359 4360
4361 4362 4363 4364 4365 4366 4367 4368 4369 4370 4376 4377 4378 4379 4380
4386 4387 4388 4389 4390 4391 4392 4393 4394 4395 4396 4397 4401 4402 4403
4404 4405 4406 4407 4408 4409 4411 4417 4418 4419 4420 4421 4422 4423 4424
4425 4426 4427 4428 4429 4430 4431 4437 4438 4439 4440 4441 4442 4443 4444
4445 4446 4447 4448 4449 4450 4451 4457 4458 4459 4460 4461 4462 4463 4464
4465 4466 4472 4473 4474 4475 4476 4477 4483 4484 4485 4486 4487 4488 4489
4490 4491 4492 4493 4499 4500 4501 4502 4503 4504 4505 4506 4507 4513 4514
4515 4516 4517 4518 4519 4520 4521 4522 4523 4524 4525 4526 4527 4528 4529
4530 4531 4537 4538 4539 4540 4541 4542 4543 4544 4545 4546 4552 4553 4554
4555 4556 4557 4558 4559 4560 4566 4567 4568 4569 4570 4571 4572 4573 4574
4575 4576 4577 4578 4579 4585 4586 4587 4588 4589 4590 4591 4592 4593 4594
4595 4596 4602 4603 4604 4605 4606 4607 4608 4609 4610 4611 4612 4613 4619
4620 4621 4622 4623 4624 4625 4626 4627 4628 4629 4630 4636 4637 4638 4639
4640 4641 4642 4643 4644 4648 4649 4650 4651 4652 4653 4654 4655 4656 4658
4662 4663 4664 4665 4666 4667 4668 4669 4670 4672 4678 4679 4680 4681 4682
4683 4684 4685 4686 4687 4688 4689 4690 4691 4692 4693 4694 4700 4701 4702
4703 4704 4705 4706 4707 4708 4709 4710 4711 4712 4713 4719 4720 4721 4722
4723 4724 4725 4726 4727
[ SideChain-H ]
  41   44   47   58   61   64   67   69   70   73   82   85   88   91   94
 104  107  110  113  116  126  129  132  135  137  138  141  147  150  153
 164  167  170  171  172  179  182  183  184  191  194  195  197  199  201
 203  211  214  217  220  223  233  236  237  239  241  243  245  260  263
 266  269  272  282  284  288  291  301  304  306  310  327  330  333  334
 335  349  352  360  363  364  366  368  370  372  380  383  391  393  397
 405  407  411  421  423  427  437  440  442  446  456  466  469  472  475
 477  478  481  490  493  496  497  498  505  508  510  514  524  534  536
 540  548  551  559  562  565  568  570  571  574  583  586  589  590  591
 598  601  602  604  606  607  609  611  619  629  631  635  638  648  651
 654  657  660  670  672  676  679  689  692  694  698  708  711  714  715
 716  723  726  729  732  735  745  748  751  754  756  757  760  769  772
 773  774  776  778  786  788  792  795  805  807  811  814  824  827  830
 833  836  846  849  852  853  854  861  864  865  866  875  878  881  884
 887  897  899  903  910  913  916  927  930  931  933  935  936  938  940
 948  950  954  964  966  970  978  981  984  987  989  990  993 1002 1005
1008 1009 1010 1017 1020 1023 1026 1028 1029 1032 1041 1044 1045 1046 1053
1055 1059 1069 1072 1075 1076 1086 1089 1097 1100 1103 1106 1108 1109 1112
1121 1124 1126 1130 1140 1143 1144 1145 1152 1155 1156 1157 1159 1161 1166
1169 1172 1183 1186 1187 1189 1191 1193 1195 1203 1206 1207 1209 1211 1213
1215 1223 1225 1229 1239 1242 1245 1248 1251 1261 1264 1266 1270 1280 1283
1284 1286 1288 1289 1291 1293 1301 1304 1305 1307 1309 1311 1313 1321 1323
1327 1335 1338 1339 1341 1343 1345 1347 1355 1358 1361 1362 1363 1372 1375
1376 1377 1384 1387 1388 1389 1396 1399 1402 1403 1404 1411 1414 1417 1420
1423 1433 1436 1438 1442 1452 1455 1456 1458 1460 1461 1463 1465 1473 1476
1477 1479 1481 1483 1485 1500 1503 1505 1509 1519 1522 1530 1533 1534 1536
1538 1539 1541 1543 1551 1561 1564 1567 1570 1573 1583 1586 1587 1588 1604
1607 1610 1611 1612 1619 1622 1624 1628 1638 1641 1643 1647 1657 1660 1663
1666 1669 1679 1682 1683 1685 1687 1688 1690 1692 1700 1702 1706 1709 1719
1722 1725 1728 1730 1731 1734 1743 1746 1749 1752 1755 1765 1767 1771 1774
1791 1794 1802 1805 1806 1808 1810 1812 1814 1822 1825 1826 1827 1834 1837
1840 1841 1842 1849 1851 1855 1863 1866 1874 1876 1880 1888 1891 1894 1897
1899 1900 1903 1912 1915 1916 1918 1920 1922 1924 1932 1935 1936 1938 1940
1941 1943 1945 1953 1955 1959 1967 1977 1980 1983 1984 1985 1992 1994 1998
2001 2011 2013 2017 2027 2030 2038 2048 2051 2053 2057 2067 2070 2073 2074
2075 2082 2085 2086 2088 2090 2091 2093 2095 2103 2106 2108 2112 2122 2125
2126 2127 2129 2131 2146 2149 2152 2155 2158 2175 2177 2181 2184 2194 2196
2200 2203 2213 2216 2217 2218 2220 2222 2230 2233 2236 2239 2241 2242 2245
2254 2257 2258 2259 2266 2269 2271 2275 2285 2288 2291 2294 2297 2304 2307
2310 2321 2324 2327 2328 2329 2336 2339 2340 2341 2350 2352 2356 2359 2369
2372 2374 2378 2388 2391 2393 2397 2407 2410 2411 2412 2421 2424 2427 2428
2429 2436 2439 2440 2441 2448 2451 2454 2455 2465 2468 2469 2471 2473 2474
2482 2484 2488 2491 2501 2504 2507 2508 2509 2518 2520 2524 2527 2537 2539
2543 2551 2554 2555 2556 2563 2566 2567 2569 2571 2573 2575 2590 2592 2596
2604 2614 2617 2620 2623 2626 2636 2638 2642 2652 2655 2657 2661 2671 2674
2679 2682 2685 2696 2699 2702 2703 2704 2711 2714 2722 2725 2728 2731 2734
2744 2747 2750 2751 2752 2761 2771 2774 2777 2780 2782 2783 2786 2795 2805
2808 2809 2810 2819 2822 2830 2833 2834 2836 2838 2840 2842 2850 2852 2856
2873 2875 2879 2887 2897 2900 2903 2904 2905 2914 2917 2918 2920 2922 2923
2925 2927 2935 2937 2941 2951 2954 2959 2962 2965 2976 2979 2982 2983 2984
2991 2994 2996 3000 3010 3013 3015 3019 3029 3031 3035 3043 3046 3049 3050
3051 3058 3061 3064 3067 3070 3080 3083 3091 3101 3104 3112 3115 3118 3121
3124 3134 3137 3145 3148 3156 3159 3160 3161 3168 3171 3173 3177 3187 3190
3191 3193 3195 3196 3198 3200 3202 3204 3211 3221 3224 3226 3230 3247 3250
3258 3260 3264 3267 3277 3279 3283 3286 3296 3299 3300 3302 3304 3305 3307
3309 3317 3320 3323 3324 3325 3334 3337 3339 3343 3353 3355 3359 3369 3386
3389 3391 3395 3402 3405 3408 3416 3419 3422 3433 3436 3437 3439 3441 3443
3445 3453 3456 3459 3462 3464 3465 3468 3477 3494 3497 3498 3499 3508 3511
3514 3515 3516 3523 3526 3527 3529 3531 3532 3534 3536 3544 3547 3549 3553
3563 3565 3569 3572 3582 3585 3586 3588 3590 3592 3594 3602 3605 3608 3609
3610 3619 3622 3625 3628 3631 3641 3643 3647 3650 3660 3662 3666 3669 3679
3682 3685 3688 3691 3701 3704 3706 3710 3720 3723 3726 3727 3728 3735 3738
3739 3741 3743 3744 3746 3748 3756 3759 3760 3761 3768 3771 3772 3774 3776
3778 3780 3785 3788 3791 3802 3805 3808 3809 3810 3817 3820 3823 3826 3829
3839 3842 3843 3845 3847 3849 3851 3859 3862 3863 3865 3867 3869 3871 3876
3879 3882 3893 3896 3899 3902 3905 3915 3925 3928 3931 3934 3936 3937 3940
3949 3952 3953 3954 3961 3964 3966 3970 3980 3982 3986 3996 3999 4002 4003
4004 4011 4014 4017 4020 4023 4033 4036 4038 4042 4052 4055 4057 4061 4071
4073 4077 4087 4090 4092 4096 4106 4109 4110 4111 4118 4128 4130 4134 4142
4145 4148 4151 4154 4164 4167 4170 4173 4175 4176 4179 4188 4191 4193 4197
4214 4217 4225 4228 4231 4232 4233 4240 4243 4246 4247 4248 4255 4258 4261
4262 4272 4275 4278 4279 4280 4294 4297 4298 4300 4302 4303 4305 4307 4319
4322 4325 4336 4339 4341 4345 4355 4358 4361 4364 4367 4377 4387 4390 4391
4392 4394 4396 4401 4404 4407 4418 4421 4422 4424 4426 4428 4430 4438 4441
4442 4444 4446 4448 4450 4458 4461 4464 4465 4466 4473 4476 4484 4486 4490
4500 4502 4506 4514 4517 4518 4520 4522 4523 4525 4527 4529 4531 4538 4541
4544 4545 4546 4553 4556 4557 4558 4567 4570 4572 4576 4586 4589 4590 4591
4593 4595 4603 4606 4609 4610 4611 4620 4623 4626 4627 4628 4637 4639 4643
4648 4651 4654 4662 4665 4668 4679 4682 4685 4688 4691 4701 4704 4706 4710
4720 4722 4726
[ Prot-Masses ]
  38   39   40   41   42   43   44   45   46   47   48   49   50   51   52
  53   54   55   56   57   58   59   60   61   62   63   64   65   66   67
  68   69   70   71   72   73   74   75   76   77   78   79   80   81   82
  83   84   85   86   87   88   89   90   91   92   93   94   95   96   97
  98   99  100  101  102  103  104  105  106  107  108  109  110  111  112
 113  114  115  116  117  118  119  120  121  122  123  124  125  126  127
 128  129  130  131  132  133  134  135  136  137  138  139  140  141  142
 143  144  145  146  147  148  149  150  151  152  153  154  155  156  157
 158  159  160  161  162  163  164  165  166  167  168  169  170  171  172
 173  174  175  176  177  178  179  180  181  182  183  184  185  186  187
 188  189  190  191  192  193  194  195  196  197  198  199  200  201  202
 203  204  205  206  207  208  209  210  211  212  213  214  215  216  217
 218  219  220  221  222  223  224  225  226  227  228  229  230  231  232
 233  234  235  236  237  238  239  240  241  242  243  244  245  246  247
 248  249  250  251  252  253  254  255  256  257  258  259  260  261  262
 263  264  265  266  267  268  269  270  271  272  273  274  275  276  277
 278  279  280  281  282  283  284  285  286  287  288  289  290  291  292
 293  294  295  296  297  298  299  300  301  302  303  304  305  306  307
 308  309  310  311  312  313  314  315  316  317  318  319  320  321  322
 323  324  325  326  327  328  329  330  331  332  333  334  335  336  337
 338  339  340  341  342  343  344  345  346  347  348  349  350  351  352
 353  354  355  356  357  358  359  360  361  362  363  364  365  366  367
 368  369  370  371  372  373  374  375  376  377  378  379  380  381  382
 383  384  385  386  387  388  389  390  391  392  393  394  395  396  397
 398  399  400  401  402  403  404  405  406  407  408  409  410  411  412
 413  414  415  416  417  418  419  420  421  422  423  424  425  426  427
 428  429  430  431  432  433  434  435  436  437  438  439  440  441  442
 443  444  445  446  447  448  449  450  451  452  453  454  455  456  457
 458  459  460  461  462  463  464  465  466  467  468  469  470  471  472
 473  474  475  476  477  478  479  480  481  482  483  484  485  486  487
 488  489  490  491  492  493  494  495  496  497  498  499  500  501  502
 503  504  505  506  507  508  509  510  511  512  513  514  515  516  517
 518  519  520  521  522  523  524  525  526  527  528  529  530  531  532
 533  534  535  536  537  538  539  540  541  542  543  544  545  546  547
 548  549  550  551  552  553  554  555  556  557  558  559  560  561  562
 563  564  565  566  567  568  569  570  571  572  573  574  575  576  577
 578  579  580  581  582  583  584  585  586  587  588  589  590  591  592
 593  594  595  596  597  598  599  600  601  602  603  604  605  606  607
 608  609  610  611  612  613  614  615  616  617  618  619  620  621  622
 623  624  625  626  627  628  629  630  631  632  633  634  635  636  637
 638  639  640  641  642  643  644  645  646  647  648  649  650  651  652
 653  654  655  656  657  658  659  660  661  662  663  664  665  666  667
 668  669  670  671  672  673  674  675  676  677  678  679  680  681  682
 683  684  685  686  687  688  689  690  691  692  693  694  695  696  697
 698  699  700  701  702  703  704  705  706  707  708  709  710  711  712
 713  714  715  716  717  718  719  720  721  722  723  724  725  726  727
 728  729  730  731  732  733  734  735  736  737  738  739  740  741  742
 743  744  745  746  747  748  749  750  751  752  753  754  755  756  757
 758  759  760  761  762  763  764  765  766  767  768  769  770  771  772
 773  774  775  776  777  778  779  780  781  782  783  784  785  786  787
 788  789  790  791  792  793  794  795  796  797  798  799  800  801  802
 803  804  805  806  807  808  809  810  811  812  813  814  815  816  817
 818  819  820  821  822  823  824  825  826  827  828  829  830  831  832
 833  834  835  836  837  838  839  840  841  842  843  844  845  846  847
 848  849  850  851  852  853  854  855  856  857  858  859  860  861  862
 863  864  865  866  867  868  869  870  871  872  873  874  875  876  877
 878  879  880  881  882  883  884  885  886  887  888  889  890  891  892
 893  894  895  896  897  898  899  900  901  902  903  904  905  906  907
 908  909  910  911  912  913  914  915  916  917  918  919  920  921  922
 923  924  925  926  927  928  929  930  931  932  933  934  935  936  937
 938  939  940  941  942  943  944  945  946  947  948  949  950  951  952
 953  954  955  956  957  958  959  960  961  962  963  964  965  966  967
 968  969  970  971  972  973  974  975  976  977  978  979  980  981  982
 983  984  985  986  987  988  989  990  991  992  993  994  995  996  997
 998  999 1000 1001 1002 1003 1004 1005 1006 1007 1008 1009 1010 1011 1012
1013 1014 1015 1016 1017 1018 1019 1020 1021 1022 1023 1024 1025 1026 1027
1028 1029 1030 1031 1032 1033 1034 1035 1036 1037 1038 1039 1040 1041 1042
1043 1044 1045 1046 1047 1048 1049 1050 1051 1052 1053 1054 1055 1056 1057
1058 1059 1060 1061 1062 1063 1064 1065 1066 1067 1068 1069 1070 1071 1072
1073 1074 1075 1076 1077 1078 1079 1080 1081 1082 1083 1084 1085 1086 1087
1088 1089 1090 1091 1092 1093 1094 1095 1096 1097 1098 1099 1100 1101 1102
1103 1104 1105 1106 1107 1108 1109 1110 1111 1112 1113 1114 1115 1116 1117
1118 1119 1120 1121 1122 1123 1124 1125 1126 1127 1128 1129 1130 1131 1132
1133 1134 1135 1136 1137 1138 1139 1140 1141 1142 1143 1144 1145 1146 1147
1148 1149 1150 1151 1152 1153 1154 1155 1156 1157 1158 1159 1160 1161 1162
1163 1164 1165 1166 1167 1168 1169 1170 1171 1172 1173 1174 1175 1176 1177
1178 1179 1180 1181 1182 1183 1184 1185 1186 1187 1188 1189 1190 1191 1192
1193 1194 1195 1196 1197 1198 1199 1200 1201 1202 1203 1204 1205 1206 1207
1208 1209 1210 1211 1212 1213 1214 1215 1216 1217 1218 1219 1220 1221 1222
1223 1224 1225 1226 1227 1228 1229 1230 1231 1232 1233 1234 1235 1236 1237
1238 1239 1240 1241 1242 1243 1244 1245 1246 1247 1248 1249 1250 1251 1252
1253 1254 1255 1256 1257 1258 1259 1260 1261 1262 1263 1264 1265 1266 1267
1268 1269 1270 1271 1272 1273 1274 1275 1276 1277 1278 1279 1280 1281 1282
1283 1284 1285 1286 1287 1288 1289 1290 1291 1292 1293 1294 1295 1296 1297
1298 1299 1300 1301 1302 1303 1304 1305 1306 1307 1308 1309 1310 1311 1312
1313 1314 1315 1316 1317 1318 1319 1320 1321 1322 1323 1324 1325 1326 1327
1328 1329 1330 1331 1332 1333 1334 1335 1336 1337 1338 1339 1340 1341 1342
1343 1344 1345 1346 1347 1348 1349 1350 1351 1352 1353 1354 1355 1356 1357
1358 1359 1360 1361 1362 1363 1364 1365 1366 1367 1368 1369 1370 1371 1372
1373 1374 1375 1376 1377 1378 1379 1380 1381 1382 1383 1384 1385 1386 1387
1388 1389 1390 1391 1392 1393 1394 1395 1396 1397 1398 1399 1400 1401 1402
1403 1404 1405 1406 1407 1408 1409 1410 1411 1412 1413 1414 1415 1416 1417
1418 1419 1420 1421 1422 1423 1424 1425 1426 1427 1428 1429 1430 1431 1432
1433 1434 1435 1436 1437 1438 1439 1440 1441 1442 1443 1444 1445 1446 1447
1448 1449 1450 1451 1452 1453 1454 1455 1456 1457 1458 1459 1460 1461 1462
1463 1464 1465 1466 1467 1468 1469 1470 1471 1472 1473 1474 1475 1476 1477
1478 1479 1480 1481 1482 1483 1484 1485 1486 1487 1488 1489 1490 1491 1492
1493 1494 1495 1496 1497 1498 1499 1500 1501 1502 1503 1504 1505 1506 1507
1508 1509 1510 1511 1512 1513 1514 1515 1516 1517 1518 1519 1520 1521 1522
1523 1524 1525 1526 1527 1528 1529 1530 1531 1532 1533 1534 1535 1536 1537
1538 1539 1540 1541 1542 1543 1544 1545 1546 1547 1548 1549 1550 1551 1552
1553 1554 1555 1556 1557 1558 1559 1560 1561 1562 1563 1564 1565 1566 1567
1568 1569 1570 1571 1572 1573 1574 1575 1576 1577 1578 1579 1580 1581 1582
1583 1584 1585 1586 1587 1588 1589 1590 1591 1592 1593 1594 1595 1596 1597
1598 1599 1600 1601 1602 1603 1604 1605 1606 1607 1608 1609 1610 1611 1612
1613 1614 1615 1616 1617 1618 1619 1620 1621 1622 1623 1624 1625 1626 1627
1628 1629 1630 1631 1632 1633 1634 1635 1636 1637 1638 1639 1640 1641 1642
1643 1644 1645 1646 1647 1648 1649 1650 1651 1652 1653 1654 1655 1656 1657
1658 1659 1660 1661 1662 1663 1664 1665 1666 1667 1668 1669 1670 1671 1672
1673 1674 1675 1676 1677 1678 1679 1680 1681 1682 1683 1684 1685 1686 1687
1688 1689 1690 1691 1692 1693 1694 1695 1696 1697 1698 1699 1700 1701 1702
1703 1704 1705 1706 1707 1708 1709 1710 1711 1712 1713 1714 1715 1716 1717
1718 1719 1720 1721 1722 1723 1724 1725 1726 1727 1728 1729 1730 1731 1732
1733 1734 1735 1736 1737 1738 1739 1740 1741 1742 1743 1744 1745 1746 1747
1748 1749 1750 1751 1752 1753 1754 1755 1756 1757 1758 1759 1760 1761 1762
1763 1764 1765 1766 1767 1768 1769 1770 1771 1772 1773 1774 1775 1776 1777
1778 1779 1780 1781 1782 1783 1784 1785 1786 1787 1788 1789 1790 1791 1792
1793 1794 1795 1796 1797 1798 1799 1800 1801 1802 1803 1804 1805 1806 1807
1808 1809 1810 1811 1812 1813 1814 1815 1816 1817 1818 1819 1820 1821 1822
1823 1824 1825 1826 1827 1828 1829 1830 1831 1832 1833 1834 1835 1836 1837
1838 1839 1840 1841 1842 1843 1844 1845 1846 1847 1848 1849 1850 1851 1852
1853 1854 1855 1856 1857 1858 1859 1860 1861 1862 1863 1864 1865 1866 1867
1868 1869 1870 1871 1872 1873 1874 1875 1876 1877 1878 1879 1880 1881 1882
1883 1884 1885 1886 1887 1888 1889 1890 1891 1892 1893 1894 1895 1896 1897
1898 1899 1900 1901 1902 1903 1904 1905 1906 1907 1908 1909 1910 1911 1912
1913 1914 1915 1916 1917 1918 1919 1920 1921 1922 1923 1924 1925 1926 1927
1928 1929 1930 1931 1932 1933 1934 1935 1936 1937 1938 1939 1940 1941 1942
1943 1944 1945 1946 1947 1948 1949 1950 1951 1952 1953 1954 1955 1956 1957
1958 1959 1960 1961 1962 1963 1964 1965 1966 1967 1968 1969 1970 1971 1972
1973 1974 1975 1976 1977 1978 1979 1980 1981 1982 1983 1984 1985 1986 1987
1988 1989 1990 1991 1992 1993 1994 1995 1996 1997 1998 1999 2000 2001 2002
2003 2004 2005 2006 2007 2008 2009 2010 2011 2012 2013 2014 2015 2016 2017
2018 2019 2020 2021 2022 2023 2024 2025 2026 2027 2028 2029 2030 2031 2032
2033 2034 2035 2036 2037 2038 2039 2040 2041 2042 2043 2044 2045 2046 2047
2048 2049 2050 2051 2052 2053 2054 2055 2056 2057 2058 2059 2060 2061 2062
2063 2064 2065 2066 2067 2068 2069 2070 2071 2072 2073 2074 2075 2076 2077
2078 2079 2080 2081 2082 2083 2084 2085 2086 2087 2088 2089 2090 2091 2092
2093 2094 2095 2096 2097 2098 2099 2100 2101 2102 2103 2104 2105 2106 2107
2108 2109 2110 2111 2112 2113 2114 2115 2116 2117 2118 2119 2120 2121 2122
2123 2124 2125 2126 2127 2128 2129 2130 2131 2132 2133 2134 2135 2136 2137
2138 2139 2140 2141 2142 2143 2144 2145 2146 2147 2148 2149 2150 2151 2152
2153 2154 2155 2156 2157 2158 2159 2160 2161 2162 2163 2164 2165 2166 2167
2168 2169 2170 2171 2172 2173 2174 2175 2176 2177 2178 2179 2180 2181 2182
2183 2184 2185 2186 2187 2188 2189 2190 2191 2192 2193 2194 2195 2196 2197
2198 2199 2200 2201 2202 2203 2204 2205 2206 2207 2208 2209 2210 2211 2212
2213 2214 2215 2216 2217 2218 2219 2220 2221 2222 2223 2224 2225 2226 2227
2228 2229 2230 2231 2232 2233 2234 2235 2236 2237 2238 2239 2240 2241 2242
2243 2244 2245 2246 2247 2248 2249 2250 2251 2252 2253 2254 2255 2256 2257
2258 2259 2260 2261 2262 2263 2264 2265 2266 2267 2268 2269 2270 2271 2272
2273 2274 2275 2276 2277 2278 2279 2280 2281 2282 2283 2284 2285 2286 2287
2288 2289 2290 2291 2292 2293 2294 2295 2296 2297 2298 2299 2300 2301 2302
2303 2304 2305 2306 2307 2308 2309 2310 2311 2312 2313 2314 2315 2316 2317
2318 2319 2320 2321 2322 2323 2324 2325 2326 2327 2328 2329 2330 2331 2332
2333 2334 2335 2336 2337 2338 2339 2340 2341 2342 2343 2344 2345 2346 2347
2348 2349 2350 2351 2352 2353 2354 2355 2356 2357 2358 2359 2360 2361 2362
2363 2364 2365 2366 2367 2368 2369 2370 2371 2372 2373 2374 2375 2376 2377
2378 2379 2380 2381 2382 2383 2384 2385 2386 2387 2388 2389 2390 2391 2392
2393 2394 2395 2396 2397 2398 2399 2400 2401 2402 2403 2404 2405 2406 2407
2408 2409 2410 2411 2412 2413 2414 2415 2416 2417 2418 2419 2420 2421 2422
2423 2424 2425 2426 2427 2428 2429 2430 2431 2432 2433 2434 2435 2436 2437
2438 2439 2440 2441 2442 2443 2444 2445 2446 2447 2448 2449 2450 2451 2452
2453 2454 2455 2456 2457 2458 2459 2460 2461 2462 2463 2464 2465 2466 2467
2468 2469 2470 2471 2472 2473 2474 2475 2476 2477 2478 2479 2480 2481 2482
2483 2484 2485 2486 2487 2488 2489 2490 2491 2492 2493 2494 2495 2496 2497
2498 2499 2500 2501 2502 2503 2504 2505 2506 2507 2508 2509 2510 2511 2512
2513 2514 2515 2516 2517 2518 2519 2520 2521 2522 2523 2524 2525 2526 2527
2528 2529 2530 2531 2532 2533 2534 2535 2536 2537 2538 2539 2540 2541 2542
2543 2544 2545 2546 2547 2548 2549 2550 2551 2552 2553 2554 2555 2556 2557
2558 2559 2560 2561 2562 2563 2564 2565 2566 2567 2568 2569 2570 2571 2572
2573 2574 2575 2576 2577 2578 2579 2580 2581 2582 2583 2584 2585 2586 2587
2588 2589 2590 2591 2592 2593 2594 2595 2596 2597 2598 2599 2600 2601 2602
2603 2604 2605 2606 2607 2608 2609 2610 2611 2612 2613 2614 2615 2616 2617
2618 2619 2620 2621 2622 2623 2624 2625 2626 2627 2628 2629 2630 2631 2632
2633 2634 2635 2636 2637 2638 2639 2640 2641 2642 2643 2644 2645 2646 2647
2648 2649 2650 2651 2652 2653 2654 2655 2656 2657 2658 2659 2660 2661 2662
2663 2664 2665 2666 2667 2668 2669 2670 2671 2672 2673 2674 2675 2676 2677
2678 2679 2680 2681 2682 2683 2684 2685 2686 2687 2688 2689 2690 2691 2692
2693 2694 2695 2696 2697 2698 2699 2700 2701 2702 2703 2704 2705 2706 2707
2708 2709 2710 2711 2712 2713 2714 2715 2716 2717 2718 2719 2720 2721 2722
2723 2724 2725 2726 2727 2728 2729 2730 2731 2732 2733 2734 2735 2736 2737
2738 2739 2740 2741 2742 2743 2744 2745 2746 2747 2748 2749 2750 2751 2752
2753 2754 2755 2756 2757 2758 2759 2760 2761 2762 2763 2764 2765 2766 2767
2768 2769 2770 2771 2772 2773 2774 2775 2776 2777 2778 2779 2780 2781 2782
2783 2784 2785 2786 2787 2788 2789 2790 2791 2792 2793 2794 2795 2796 2797
2798 2799 2800 2801 2802 2803 2804 2805 2806 2807 2808 2809 2810 2811 2812
2813 2814 2815 2816 2817 2818 2819 2820 2821 2822 2823 2824 2825 2826 2827
2828 2829 2830 2831 2832 2833 2834 2835 2836 2837 2838 2839 2840 2841 2842
2843 2844 2845 2846 2847 2848 2849 2850 2851 2852 2853 2854 2855 2856 2857
2858 2859 2860 2861 2862 2863 2864 2865 2866 2867 2868 2869 2870 2871 2872
2873 2874 2875 2876 2877 2878 2879 2880 2881 2882 2883 2884 2885 2886 2887
2888 2889 2890 2891 2892 2893 2894 2895 2896 2897 2898 2899 2900 2901 2902
2903 2904 2905 2906 2907 2908 2909 2910 2911 2912 2913 2914 2915 2916 2917
2918 2919 2920 2921 2922 2923 2924 2925 2926 2927 2928 2929 2930 2931 2932
2933 2934 2935 2936 2937 2938 2939 2940 2941 2942 2943 2944 2945 2946 2947
2948 2949 2950 2951 2952 2953 2954 2955 2956 2957 2958 2959 2960 2961 2962
2963 2964 2965 2966 2967 2968 2969 2970 2971 2972 2973 2974 2975 2976 2977
2978 2979 2980 2981 2982 2983 2984 2985 2986 2987 2988 2989 2990 2991 2992
2993 2994 2995 2996 2997 2998 2999 3000 3001 3002 3003 3004 3005 3006 3007
3008 3009 3010 3011 3012 3013 3014 3015 3016 3017 3018 3019 3020 3021 3022
3023 3024 3025 3026 3027 3028 3029 3030 3031 3032 3033 3034 3035 3036 3037
3038 3039 3040 3041 3042 3043 3044 3045 3046 3047 3048 3049 3050 3051 3052
3053 3054 3055 3056 3057 3058 3059 3060 3061 3062 3063 3064 3065 3066 3067
3068 3069 3070 3071 3072 3073 3074 3075 3076 3077 3078 3079 3080 3081 3082
3083 3084 3085 3086 3087 3088 3089 3090 3091 3092 3093 3094 3095 3096 3097
3098 3099 3100 3101 3102 3103 3104 3105 3106 3107 3108 3109 3110 3111 3112
3113 3114 3115 3116 3117 3118 3119 3120 3121 3122 3123 3124 3125 3126 3127
3128 3129 3130 3131 3132 3133 3134 3135 3136 3137 3138 3139 3140 3141 3142
3143 3144 3145 3146 3147 3148 3149 3150 3151 3152 3153 3154 3155 3156 3157
3158 3159 3160 3161 3162 3163 3164 3165 3166 3167 3168 3169 3170 3171 3172
3173 3174 3175 3176 3177 3178 3179 3180 3181 3182 3183 3184 3185 3186 3187
3188 3189 3190 3191 3192 3193 3194 3195 3196 3197 3198 3199 3200 3201 3202
3203 3204 3205 3206 3207 3208 3209 3210 3211 3212 3213 3214 3215 3216 3217
3218 3219 3220 3221 3222 3223 3224 3225 3226 3227 3228 3229 3230 3231 3232
3233 3234 3235 3236 3237 3238 3239 3240 3241 3242 3243 3244 3245 3246 3247
3248 3249 3250 3251 3252 3253 3254 3255 3256 3257 3258 3259 3260 3261 3262
3263 3264 3265 3266 3267 3268 3269 3270 3271 3272 3273 3274 3275 3276 3277
3278 3279 3280 3281 3282 3283 3284 3285 3286 3287 3288 3289 3290 3291 3292
3293 3294 3295 3296 3297 3298 3299 3300 3301 3302 3303 3304 3305 3306 3307
3308 3309 3310 3311 3312 3313 3314 3315 3316 3317 3318 3319 3320 3321 3322
3323 3324 3325 3326 3327 3328 3329 3330 3331 3332 3333 3334 3335 3336 3337
3338 3339 3340 3341 3342 3343 3344 3345 3346 3347 3348 3349 3350 3351 3352
3353 3354 3355 3356 3357 3358 3359 3360 3361 3362 3363 3364 3365 3366 3367
3368 3369 3370 3371 3372 3373 3374 3375 3376 3377 3378 3379 3380 3381 3382
3383 3384 3385 3386 3387 3388 3389 3390 3391 3392 3393 3394 3395 3396 3397
3398 3399 3400 3401 3402 3403 3404 3405 3406 3407 3408 3409 3410 3411 3412
3413 3414 3415 3416 3417 3418 3419 3420 3421 3422 3423 3424 3425 3426 3427
3428 3429 3430 3431 3432 3433 3434 3435 3436 3437 3438 3439 3440 3441 3442
3443 3444 3445 3446 3447 3448 3449 3450 3451 3452 3453 3454 3455 3456 3457
3458 3459 3460 3461 3462 3463 3464 3465 3466 3467 3468 3469 3470 3471 3472
3473 3474 3475 3476 3477 3478 3479 3480 3481 3482 3483 3484 3485 3486 3487
3488 3489 3490 3491 3492 3493 3494 3495 3496 3497 3498 3499 3500 3501 3502
3503 3504 3505 3506 3507 3508 3509 3510 3511 3512 3513 3514 3515 3516 3517
3518 3519 3520 3521 3522 3523 3524 3525 3526 3527 3528 3529 3530 3531 3532
3533 3534 3535 3536 3537 3538 3539 3540 3541 3542 3543 3544 3545 3546 3547
3548 3549 3550 3551 3552 3553 3554 3555 3556 3557 3558 3559 3560 3561 3562
3563 3564 3565 3566 3567 3568 3569 3570 3571 3572 3573 3574 3575 3576 3577
3578 3579 3580 3581 3582 3583 3584 3585 3586 3587 3588 3589 3590 3591 3592
3593 3594 3595 3596 3597 3598 3599 3600 3601 3602 3603 3604 3605 3606 3607
3608 3609 3610 3611 3612 3613 3614 3615 3616 3617 3618 3619 3620 3621 3622
3623 3624 3625 3626 3627 3628 3629 3630 3631 3632 3633 3634 3635 3636 3637
3638 3639 3640 3641 3642 3643 3644 3645 3646 3647 3648 3649 3650 3651 3652
3653 3654 3655 3656 3657 3658 3659 3660 3661 3662 3663 3664 3665 3666 3667
3668 3669 3670 3671 3672 3673 3674 3675 3676 3677 3678 3679 3680 3681 3682
3683 3684 3685 3686 3687 3688 3689 3690 3691 3692 3693 3694 3695 3696 3697
3698 3699 3700 3701 3702 3703 3704 3705 3706 3707 3708 3709 3710 3711 3712
3713 3714 3715 3716 3717 3718 3719 3720 3721 3722 3723 3724 3725 3726 3727
3728 3729 3730 3731 3732 3733 3734 3735 3736 3737 3738 3739 3740 3741 3742
3743 3744 3745 3746 3747 3748 3749 3750 3751 3752 3753 3754 3755 3756 3757
3758 3759 3760 3761 3762 3763 3764 3765 3766 3767 3768 3769 3770 3771 3772
3773 3774 3775 3776 3777 3778 3779 3780 3781 3782 3783 3784 3785 3786 3787
3788 3789 3790 3791 3792 3793 3794 3795 3796 3797 3798 3799 3800 3801 3802
3803 3804 3805 3806 3807 3808 3809 3810 3811 3812 3813 3814 3815 3816 3817
3818 3819 3820 3821 3822 3823 3824 3825 3826 3827 3828 3829 3830 3831 3832
3833 3834 3835 3836 3837 3838 3839 3840 3841 3842 3843 3844 3845 3846 3847
3848 3849 3850 3851 3852 3853 3854 3855 3856 3857 3858 3859 3860 3861 3862
3863 3864 3865 3866 3867 3868 3869 3870 3871 3872 3873 3874 3875 3876 3877
3878 3879 3880 3881 3882 3883 3884 3885 3886 3887 3888 3889 3890 3891 3892
3893 3894 3895 3896 3897 3898 3899 3900 3901 3902 3903 3904 3905 3906 3907
3908 3909 3910 3911 3912 3913 3914 3915 3916 3917 3918 3919 3920 3921 3922
3923 3924 3925 3926 3927 3928 3929 3930 3931 3932 3933 3934 3935 3936 3937
3938 3939 3940 3941 3942 3943 3944 3945 3946 3947 3948 3949 3950 3951 3952
3953 3954 3955 3956 3957 3958 3959 3960 3961 3962 3963 3964 3965 3966 3967
3968 3969 3970 3971 3972 3973 3974 3975 3976 3977 3978 3979 3980 3981 3982
3983 3984 3985 3986 3987 3988 3989 3990 3991 3992 3993 3994 3995 3996 3997
3998 3999 4000 4001 4002 4003 4004 4005 4006 4007 4008 4009 4010 4011 4012
4013 4014 4015 4016 4017 4018 4019 4020 4021 4022 4023 4024 4025 4026 4027
4028 4029 4030 4031 4032 4033 4034 4035 4036 4037 4038 4039 4040 4041 4042
4043 4044 4045 4046 4047 4048 4049 4050 4051 4052 4053 4054 4055 4056 4057
4058 4059 4060 4061 4062 4063 4064 4065 4066 4067 4068 4069 4070 4071 4072
4073 4074 4075 4076 4077 4078 4079 4080 4081 4082 4083 4084 4085 4086 4087
4088 4089 4090 4091 4092 4093 4094 4095 4096 4097 4098 4099 4100 4101 4102
4103 4104 4105 4106 4107 4108 4109 4110 4111 4112 4113 4114 4115 4116 4117
4118 4119 4120 4121 4122 4123 4124 4125 4126 4127 4128 4129 4130 4131 4132
4133 4134 4135 4136 4137 4138 4139 4140 4141 4142 4143 4144 4145 4146 4147
4148 4149 4150 4151 4152 4153 4154 4155 4156 4157 4158 4159 4160 4161 4162
4163 4164 4165 4166 4167 4168 4169 4170 4171 4172 4173 4174 4175 4176 4177
4178 4179 4180 4181 4182 4183 4184 4185 4186 4187 4188 4189 4190 4191 4192
4193 4194 4195 4196 4197 4198 4199 4200 4201 4202 4203 4204 4205 4206 4207
4208 4209 4210 4211 4212 4213 4214 4215 4216 4217 4218 4219 4220 4221 4222
4223 4224 4225 4226 4227 4228 4229 4230 4231 4232 4233 4234 4235 4236 4237
4238 4239 4240 4241 4242 4243 4244 4245 4246 4247 4248 4249 4250 4251 4252
4253 4254 4255 4256 4257 4258 4259 4260 4261 4262 4263 4264 4265 4266 4267
4268 4269 4270 4271 4272 4273 4274 4275 4276 4277 4278 4279 4280 4281 4282
4283 4284 4285 4286 4287 4288 4289 4290 4291 4292 4293 4294 4295 4296 4297
4298 4299 4300 4301 4302 4303 4304 4305 4306 4307 4308 4309 4310 4311 4312
4313 4314 4315 4316 4317 4318 4319 4320 4321 4322 4323 4324 4325 4326 4327
4328 4329 4330 4331 4332 4333 4334 4335 4336 4337 4338 4339 4340 4341 4342
4343 4344 4345 4346 4347 4348 4349 4350 4351 4352 4353 4354 4355 4356 4357
4358 4359 4360 4361 4362 4363 4364 4365 4366 4367 4368 4369 4370 4371 4372
4373 4374 4375 4376 4377 4378 4379 4380 4381 4382 4383 4384 4385 4386 4387
4388 4389 4390 4391 4392 4393 4394 4395 4396 4397 4398 4399 4400 4401 4402
4403 4404 4405 4406 4407 4408 4409 4410 4411 4412 4413 4414 4415 4416 4417
4418 4419 4420 4421 4422 4423 4424 4425 4426 4427 4428 4429 4430 4431 4432
4433 4434 4435 4436 4437 4438 4439 4440 4441 4442 4443 4444 4445 4446 4447
4448 4449 4450 4451 4452 4453 4454 4455 4456 4457 4458 4459 4460 4461 4462
4463 4464 4465 4466 4467 4468 4469 4470 4471 4472 4473 4474 4475 4476 4477
4478 4479 4480 4481 4482 4483 4484 4485 4486 4487 4488 4489 4490 4491 4492
4493 4494 4495 4496 4497 4498 4499 4500 4501 4502 4503 4504 4505 4506 4507
4508 4509 4510 4511 4512 4513 4514 4515 4516 4517 4518 4519 4520 4521 4522
4523 4524 4525 4526 4527 4528 4529 4530 4531 4532 4533 4534 4535 4536 4537
4538 4539 4540 4541 4542 4543 4544 4545 4546 4547 4548 4549 4550 4551 4552
4553 4554 4555 4556 4557 4558 4559 4560 4561 4562 4563 4564 4565 4566 4567
4568 4569 4570 4571 4572 4573 4574 4575 4576 4577 4578 4579 4580 4581 4582
4583 4584 4585 4586 4587 4588 4589 4590 4591 4592 4593 4594 4595 4596 4597
4598 4599 4600 4601 4602 4603 4604 4605 4606 4607 4608 4609 4610 4611 4612
4613 4614 4615 4616 4617 4618 4619 4620 4621 4622 4623 4624 4625 4626 4627
4628 4629 4630 4631 4632 4633 4634 4635 4636 4637 4638 4639 4640 4641 4642
4643 4644 4645 4646 4647 4648 4649 4650 4651 4652 4653 4654 4655 4656 4657
4658 4659 4660 4661 4662 4663 4664 4665 4666 4667 4668 4669 4670 4671 4672
4673 4674 4675 4676 4677 4678 4679 4680 4681 4682 4683 4684 4685 4686 4687
4688 4689 4690 4691 4692 4693 4694 4695 4696 4697 4698 4699 4700 4701 4702
4703 4704 4705 4706 4707 4708 4709 4710 4711 4712 4713 4714 4715 4716 4717
4718 4719 4720 4721 4722 4723 4724 4725 4726 4727 4728 4729 4730
[ non-Protein ]
   1    2    3    4    5    6    7    8    9   10   11   12   13   14   15
  16   17   18   19   20   21   22   23   24   25   26   27   28   29   30
  31   32   33   34   35   36   37
[ RECEPTOR ]
  38   39   40   41   42   43   44   45   46   47   48   49   50   51   52
  53   54   55   56   57   58   59   60   61   62   63   64   65   66   67
  68   69   70   71   72   73   74   75   76   77   78   79   80   81   82
  83   84   85   86   87   88   89   90   91   92   93   94   95   96   97
  98   99  100  101  102  103  104  105  106  107  108  109  110  111  112
 113  114  115  116  117  118  119  120  121  122  123  124  125  126  127
 128  129  130  131  132  133  134  135  136  137  138  139  140  141  142
 143  144  145  146  147  148  149  150  151  152  153  154  155  156  157
 158  159  160  161  162  163  164  165  166  167  168  169  170  171  172
 173  174  175  176  177  178  179  180  181  182  183  184  185  186  187
 188  189  190  191  192  193  194  195  196  197  198  199  200  201  202
 203  204  205  206  207  208  209  210  211  212  213  214  215  216  217
 218  219  220  221  222  223  224  225  226  227  228  229  230  231  232
 233  234  235  236  237  238  239  240  241  242  243  244  245  246  247
 248  249  250  251  252  253  254  255  256  257  258  259  260  261  262
 263  264  265  266  267  268  269  270  271  272  273  274  275  276  277
 278  279  280  281  282  283  284  285  286  287  288  289  290  291  292
 293  294  295  296  297  298  299  300  301  302  303  304  305  306  307
 308  309  310  311  312  313  314  315  316  317  318  319  320  321  322
 323  324  325  326  327  328  329  330  331  332  333  334  335  336  337
 338  339  340  341  342  343  344  345  346  347  348  349  350  351  352
 353  354  355  356  357  358  359  360  361  362  363  364  365  366  367
 368  369  370  371  372  373  374  375  376  377  378  379  380  381  382
 383  384  385  386  387  388  389  390  391  392  393  394  395  396  397
 398  399  400  401  402  403  404  405  406  407  408  409  410  411  412
 413  414  415  416  417  418  419  420  421  422  423  424  425  426  427
 428  429  430  431  432  433  434  435  436  437  438  439  440  441  442
 443  444  445  446  447  448  449  450  451  452  453  454  455  456  457
 458  459  460  461  462  463  464  465  466  467  468  469  470  471  472
 473  474  475  476  477  478  479  480  481  482  483  484  485  486  487
 488  489  490  491  492  493  494  495  496  497  498  499  500  501  502
 503  504  505  506  507  508  509  510  511  512  513  514  515  516  517
 518  519  520  521  522  523  524  525  526  527  528  529  530  531  532
 533  534  535  536  537  538  539  540  541  542  543  544  545  546  547
 548  549  550  551  552  553  554  555  556  557  558  559  560  561  562
 563  564  565  566  567  568  569  570  571  572  573  574  575  576  577
 578  579  580  581  582  583  584  585  586  587  588  589  590  591  592
 593  594  595  596  597  598  599  600  601  602  603  604  605  606  607
 608  609  610  611  612  613  614  615  616  617  618  619  620  621  622
 623  624  625  626  627  628  629  630  631  632  633  634  635  636  637
 638  639  640  641  642  643  644  645  646  647  648  649  650  651  652
 653  654  655  656  657  658  659  660  661  662  663  664  665  666  667
 668  669  670  671  672  673  674  675  676  677  678  679  680  681  682
 683  684  685  686  687  688  689  690  691  692  693  694  695  696  697
 698  699  700  701  702  703  704  705  706  707  708  709  710  711  712
 713  714  715  716  717  718  719  720  721  722  723  724  725  726  727
 728  729  730  731  732  733  734  735  736  737  738  739  740  741  742
 743  744  745  746  747  748  749  750  751  752  753  754  755  756  757
 758  759  760  761  762  763  764  765  766  767  768  769  770  771  772
 773  774  775  776  777  778  779  780  781  782  783  784  785  786  787
 788  789  790  791  792  793  794  795  796  797  798  799  800  801  802
 803  804  805  806  807  808  809  810  811  812  813  814  815  816  817
 818  819  820  821  822  823  824  825  826  827  828  829  830  831  832
 833  834  835  836  837  838  839  840  841  842  843  844  845  846  847
 848  849  850  851  852  853  854  855  856  857  858  859  860  861  862
 863  864  865  866  867  868  869  870  871  872  873  874  875  876  877
 878  879  880  881  882  883  884  885  886  887  888  889  890  891  892
 893  894  895  896  897  898  899  900  901  902  903  904  905  906  907
 908  909  910  911  912  913  914  915  916  917  918  919  920  921  922
 923  924  925  926  927  928  929  930  931  932  933  934  935  936  937
 938  939  940  941  942  943  944  945  946  947  948  949  950  951  952
 953  954  955  956  957  958  959  960  961  962  963  964  965  966  967
 968  969  970  971  972  973  974  975  976  977  978  979  980  981  982
 983  984  985  986  987  988  989  990  991  992  993  994  995  996  997
 998  999 1000 1001 1002 1003 1004 1005 1006 1007 1008 1009 1010 1011 1012
1013 1014 1015 1016 1017 1018 1019 1020 1021 1022 1023 1024 1025 1026 1027
1028 1029 1030 1031 1032 1033 1034 1035 1036 1037 1038 1039 1040 1041 1042
1043 1044 1045 1046 1047 1048 1049 1050 1051 1052 1053 1054 1055 1056 1057
1058 1059 1060 1061 1062 1063 1064 1065 1066 1067 1068 1069 1070 1071 1072
1073 1074 1075 1076 1077 1078 1079 1080 1081 1082 1083 1084 1085 1086 1087
1088 1089 1090 1091 1092 1093 1094 1095 1096 1097 1098 1099 1100 1101 1102
1103 1104 1105 1106 1107 1108 1109 1110 1111 1112 1113 1114 1115 1116 1117
1118 1119 1120 1121 1122 1123 1124 1125 1126 1127 1128 1129 1130 1131 1132
1133 1134 1135 1136 1137 1138 1139 1140 1141 1142 1143 1144 1145 1146 1147
1148 1149 1150 1151 1152 1153 1154 1155 1156 1157 1158 1159 1160 1161 1162
1163 1164 1165 1166 1167 1168 1169 1170 1171 1172 1173 1174 1175 1176 1177
1178 1179 1180 1181 1182 1183 1184 1185 1186 1187 1188 1189 1190 1191 1192
1193 1194 1195 1196 1197 1198 1199 1200 1201 1202 1203 1204 1205 1206 1207
1208 1209 1210 1211 1212 1213 1214 1215 1216 1217 1218 1219 1220 1221 1222
1223 1224 1225 1226 1227 1228 1229 1230 1231 1232 1233 1234 1235 1236 1237
1238 1239 1240 1241 1242 1243 1244 1245 1246 1247 1248 1249 1250 1251 1252
1253 1254 1255 1256 1257 1258 1259 1260 1261 1262 1263 1264 1265 1266 1267
1268 1269 1270 1271 1272 1273 1274 1275 1276 1277 1278 1279 1280 1281 1282
1283 1284 1285 1286 1287 1288 1289 1290 1291 1292 1293 1294 1295 1296 1297
1298 1299 1300 1301 1302 1303 1304 1305 1306 1307 1308 1309 1310 1311 1312
1313 1314 1315 1316 1317 1318 1319 1320 1321 1322 1323 1324 1325 1326 1327
1328 1329 1330 1331 1332 1333 1334 1335 1336 1337 1338 1339 1340 1341 1342
1343 1344 1345 1346 1347 1348 1349 1350 1351 1352 1353 1354 1355 1356 1357
1358 1359 1360 1361 1362 1363 1364 1365 1366 1367 1368 1369 1370 1371 1372
1373 1374 1375 1376 1377 1378 1379 1380 1381 1382 1383 1384 1385 1386 1387
1388 1389 1390 1391 1392 1393 1394 1395 1396 1397 1398 1399 1400 1401 1402
1403 1404 1405 1406 1407 1408 1409 1410 1411 1412 1413 1414 1415 1416 1417
1418 1419 1420 1421 1422 1423 1424 1425 1426 1427 1428 1429 1430 1431 1432
1433 1434 1435 1436 1437 1438 1439 1440 1441 1442 1443 1444 1445 1446 1447
1448 1449 1450 1451 1452 1453 1454 1455 1456 1457 1458 1459 1460 1461 1462
1463 1464 1465 1466 1467 1468 1469 1470 1471 1472 1473 1474 1475 1476 1477
1478 1479 1480 1481 1482 1483 1484 1485 1486 1487 1488 1489 1490 1491 1492
1493 1494 1495 1496 1497 1498 1499 1500 1501 1502 1503 1504 1505 1506 1507
1508 1509 1510 1511 1512 1513 1514 1515 1516 1517 1518 1519 1520 1521 1522
1523 1524 1525 1526 1527 1528 1529 1530 1531 1532 1533 1534 1535 1536 1537
1538 1539 1540 1541 1542 1543 1544 1545 1546 1547 1548 1549 1550 1551 1552
1553 1554 1555 1556 1557 1558 1559 1560 1561 1562 1563 1564 1565 1566 1567
1568 1569 1570 1571 1572 1573 1574 1575 1576 1577 1578 1579 1580 1581 1582
1583 1584 1585 1586 1587 1588 1589 1590 1591 1592 1593 1594 1595 1596 1597
1598 1599 1600 1601 1602 1603 1604 1605 1606 1607 1608 1609 1610 1611 1612
1613 1614 1615 1616 1617 1618 1619 1620 1621 1622 1623 1624 1625 1626 1627
1628 1629 1630 1631 1632 1633 1634 1635 1636 1637 1638 1639 1640 1641 1642
1643 1644 1645 1646 1647 1648 1649 1650 1651 1652 1653 1654 1655 1656 1657
1658 1659 1660 1661 1662 1663 1664 1665 1666 1667 1668 1669 1670 1671 1672
1673 1674 1675 1676 1677 1678 1679 1680 1681 1682 1683 1684 1685 1686 1687
1688 1689 1690 1691 1692 1693 1694 1695 1696 1697 1698 1699 1700 1701 1702
1703 1704 1705 1706 1707 1708 1709 1710 1711 1712 1713 1714 1715 1716 1717
1718 1719 1720 1721 1722 1723 1724 1725 1726 1727 1728 1729 1730 1731 1732
1733 1734 1735 1736 1737 1738 1739 1740 1741 1742 1743 1744 1745 1746 1747
1748 1749 1750 1751 1752 1753 1754 1755 1756 1757 1758 1759 1760 1761 1762
1763 1764 1765 1766 1767 1768 1769 1770 1771 1772 1773 1774 1775 1776 1777
1778 1779 1780 1781 1782 1783 1784 1785 1786 1787 1788 1789 1790 1791 1792
1793 1794 1795 1796 1797 1798 1799 1800 1801 1802 1803 1804 1805 1806 1807
1808 1809 1810 1811 1812 1813 1814 1815 1816 1817 1818 1819 1820 1821 1822
1823 1824 1825 1826 1827 1828 1829 1830 1831 1832 1833 1834 1835 1836 1837
1838 1839 1840 1841 1842 1843 1844 1845 1846 1847 1848 1849 1850 1851 1852
1853 1854 1855 1856 1857 1858 1859 1860 1861 1862 1863 1864 1865 1866 1867
1868 1869 1870 1871 1872 1873 1874 1875 1876 1877 1878 1879 1880 1881 1882
1883 1884 1885 1886 1887 1888 1889 1890 1891 1892 1893 1894 1895 1896 1897
1898 1899 1900 1901 1902 1903 1904 1905 1906 1907 1908 1909 1910 1911 1912
1913 1914 1915 1916 1917 1918 1919 1920 1921 1922 1923 1924 1925 1926 1927
1928 1929 1930 1931 1932 1933 1934 1935 1936 1937 1938 1939 1940 1941 1942
1943 1944 1945 1946 1947 1948 1949 1950 1951 1952 1953 1954 1955 1956 1957
1958 1959 1960 1961 1962 1963 1964 1965 1966 1967 1968 1969 1970 1971 1972
1973 1974 1975 1976 1977 1978 1979 1980 1981 1982 1983 1984 1985 1986 1987
1988 1989 1990 1991 1992 1993 1994 1995 1996 1997 1998 1999 2000 2001 2002
2003 2004 2005 2006 2007 2008 2009 2010 2011 2012 2013 2014 2015 2016 2017
2018 2019 2020 2021 2022 2023 2024 2025 2026 2027 2028 2029 2030 2031 2032
2033 2034 2035 2036 2037 2038 2039 2040 2041 2042 2043 2044 2045 2046 2047
2048 2049 2050 2051 2052 2053 2054 2055 2056 2057 2058 2059 2060 2061 2062
2063 2064 2065 2066 2067 2068 2069 2070 2071 2072 2073 2074 2075 2076 2077
2078 2079 2080 2081 2082 2083 2084 2085 2086 2087 2088 2089 2090 2091 2092
2093 2094 2095 2096 2097 2098 2099 2100 2101 2102 2103 2104 2105 2106 2107
2108 2109 2110 2111 2112 2113 2114 2115 2116 2117 2118 2119 2120 2121 2122
2123 2124 2125 2126 2127 2128 2129 2130 2131 2132 2133 2134 2135 2136 2137
2138 2139 2140 2141 2142 2143 2144 2145 2146 2147 2148 2149 2150 2151 2152
2153 2154 2155 2156 2157 2158 2159 2160 2161 2162 2163 2164 2165 2166 2167
2168 2169 2170 2171 2172 2173 2174 2175 2176 2177 2178 2179 2180 2181 2182
2183 2184 2185 2186 2187 2188 2189 2190 2191 2192 2193 2194 2195 2196 2197
2198 2199 2200 2201 2202 2203 2204 2205 2206 2207 2208 2209 2210 2211 2212
2213 2214 2215 2216 2217 2218 2219 2220 2221 2222 2223 2224 2225 2226 2227
2228 2229 2230 2231 2232 2233 2234 2235 2236 2237 2238 2239 2240 2241 2242
2243 2244 2245 2246 2247 2248 2249 2250 2251 2252 2253 2254 2255 2256 2257
2258 2259 2260 2261 2262 2263 2264 2265 2266 2267 2268 2269 2270 2271 2272
2273 2274 2275 2276 2277 2278 2279 2280 2281 2282 2283 2284 2285 2286 2287
2288 2289 2290 2291 2292 2293 2294 2295 2296 2297 2298 2299 2300 2301 2302
2303 2304 2305 2306 2307 2308 2309 2310 2311 2312 2313 2314 2315 2316 2317
2318 2319 2320 2321 2322 2323 2324 2325 2326 2327 2328 2329 2330 2331 2332
2333 2334 2335 2336 2337 2338 2339 2340 2341 2342 2343 2344 2345 2346 2347
2348 2349 2350 2351 2352 2353 2354 2355 2356 2357 2358 2359 2360 2361 2362
2363 2364 2365 2366 2367 2368 2369 2370 2371 2372 2373 2374 2375 2376 2377
2378 2379 2380 2381 2382 2383 2384 2385 2386 2387 2388 2389 2390 2391 2392
2393 2394 2395 2396 2397 2398 2399 2400 2401 2402 2403 2404 2405 2406 2407
2408 2409 2410 2411 2412 2413 2414 2415 2416 2417 2418 2419 2420 2421 2422
2423 2424 2425 2426 2427 2428 2429 2430 2431 2432 2433 2434 2435 2436 2437
2438 2439 2440 2441 2442 2443 2444 2445 2446 2447 2448 2449 2450 2451 2452
2453 2454 2455 2456 2457 2458 2459 2460 2461 2462 2463 2464 2465 2466 2467
2468 2469 2470 2471 2472 2473 2474 2475 2476 2477 2478 2479 2480 2481 2482
2483 2484 2485 2486 2487 2488 2489 2490 2491 2492 2493 2494 2495 2496 2497
2498 2499 2500 2501 2502 2503 2504 2505 2506 2507 2508 2509 2510 2511 2512
2513 2514 2515 2516 2517 2518 2519 2520 2521 2522 2523 2524 2525 2526 2527
2528 2529 2530 2531 2532 2533 2534 2535 2536 2537 2538 2539 2540 2541 2542
2543 2544 2545 2546 2547 2548 2549 2550 2551 2552 2553 2554 2555 2556 2557
2558 2559 2560 2561 2562 2563 2564 2565 2566 2567 2568 2569 2570 2571 2572
2573 2574 2575 2576 2577 2578 2579 2580 2581 2582 2583 2584 2585 2586 2587
2588 2589 2590 2591 2592 2593 2594 2595 2596 2597 2598 2599 2600 2601 2602
2603 2604 2605 2606 2607 2608 2609 2610 2611 2612 2613 2614 2615 2616 2617
2618 2619 2620 2621 2622 2623 2624 2625 2626 2627 2628 2629 2630 2631 2632
2633 2634 2635 2636 2637 2638 2639 2640 2641 2642 2643 2644 2645 2646 2647
2648 2649 2650 2651 2652 2653 2654 2655 2656 2657 2658 2659 2660 2661 2662
2663 2664 2665 2666 2667 2668 2669 2670 2671 2672 2673 2674 2675 2676 2677
2678 2679 2680 2681 2682 2683 2684 2685 2686 2687 2688 2689 2690 2691 2692
2693 2694 2695 2696 2697 2698 2699 2700 2701 2702 2703 2704 2705 2706 2707
2708 2709 2710 2711 2712 2713 2714 2715 2716 2717 2718 2719 2720 2721 2722
2723 2724 2725 2726 2727 2728 2729 2730 2731 2732 2733 2734 2735 2736 2737
2738 2739 2740 2741 2742 2743 2744 2745 2746 2747 2748 2749 2750 2751 2752
2753 2754 2755 2756 2757 2758 2759 2760 2761 2762 2763 2764 2765 2766 2767
2768 2769 2770 2771 2772 2773 2774 2775 2776 2777 2778 2779 2780 2781 2782
2783 2784 2785 2786 2787 2788 2789 2790 2791 2792 2793 2794 2795 2796 2797
2798 2799 2800 2801 2802 2803 2804 2805 2806 2807 2808 2809 2810 2811 2812
2813 2814 2815 2816 2817 2818 2819 2820 2821 2822 2823 2824 2825 2826 2827
2828 2829 2830 2831 2832 2833 2834 2835 2836 2837 2838 2839 2840 2841 2842
2843 2844 2845 2846 2847 2848 2849 2850 2851 2852 2853 2854 2855 2856 2857
2858 2859 2860 2861 2862 2863 2864 2865 2866 2867 2868 2869 2870 2871 2872
2873 2874 2875 2876 2877 2878 2879 2880 2881 2882 2883 2884 2885 2886 2887
2888 2889 2890 2891 2892 2893 2894 2895 2896 2897 2898 2899 2900 2901 2902
2903 2904 2905 2906 2907 2908 2909 2910 2911 2912 2913 2914 2915 2916 2917
2918 2919 2920 2921 2922 2923 2924 2925 2926 2927 2928 2929 2930 2931 2932
2933 2934 2935 2936 2937 2938 2939 2940 2941 2942 2943 2944 2945 2946 2947
2948 2949 2950 2951 2952 2953 2954 2955 2956 2957 2958 2959 2960 2961 2962
2963 2964 2965 2966 2967 2968 2969 2970 2971 2972 2973 2974 2975 2976 2977
2978 2979 2980 2981 2982 2983 2984 2985 2986 2987 2988 2989 2990 2991 2992
2993 2994 2995 2996 2997 2998 2999 3000 3001 3002 3003 3004 3005 3006 3007
3008 3009 3010 3011 3012 3013 3014 3015 3016 3017 3018 3019 3020 3021 3022
3023 3024 3025 3026 3027 3028 3029 3030 3031 3032 3033 3034 3035 3036 3037
3038 3039 3040 3041 3042 3043 3044 3045 3046 3047 3048 3049 3050 3051 3052
3053 3054 3055 3056 3057 3058 3059 3060 3061 3062 3063 3064 3065 3066 3067
3068 3069 3070 3071 3072 3073 3074 3075 3076 3077 3078 3079 3080 3081 3082
3083 3084 3085 3086 3087 3088 3089 3090 3091 3092 3093 3094 3095 3096 3097
3098 3099 3100 3101 3102 3103 3104 3105 3106 3107 3108 3109 3110 3111 3112
3113 3114 3115 3116 3117 3118 3119 3120 3121 3122 3123 3124 3125 3126 3127
3128 3129 3130 3131 3132 3133 3134 3135 3136 3137 3138 3139 3140 3141 3142
3143 3144 3145 3146 3147 3148 3149 3150 3151 3152 3153 3154 3155 3156 3157
3158 3159 3160 3161 3162 3163 3164 3165 3166 3167 3168 3169 3170 3171 3172
3173 3174 3175 3176 3177 3178 3179 3180 3181 3182 3183 3184 3185 3186 3187
3188 3189 3190 3191 3192 3193 3194 3195 3196 3197 3198 3199 3200 3201 3202
3203 3204 3205 3206 3207 3208 3209 3210 3211 3212 3213 3214 3215 3216 3217
3218 3219 3220 3221 3222 3223 3224 3225 3226 3227 3228 3229 3230 3231 3232
3233 3234 3235 3236 3237 3238 3239 3240 3241 3242 3243 3244 3245 3246 3247
3248 3249 3250 3251 3252 3253 3254 3255 3256 3257 3258 3259 3260 3261 3262
3263 3264 3265 3266 3267 3268 3269 3270 3271 3272 3273 3274 3275 3276 3277
3278 3279 3280 3281 3282 3283 3284 3285 3286 3287 3288 3289 3290 3291 3292
3293 3294 3295 3296 3297 3298 3299 3300 3301 3302 3303 3304 3305 3306 3307
3308 3309 3310 3311 3312 3313 3314 3315 3316 3317 3318 3319 3320 3321 3322
3323 3324 3325 3326 3327 3328 3329 3330 3331 3332 3333 3334 3335 3336 3337
3338 3339 3340 3341 3342 3343 3344 3345 3346 3347 3348 3349 3350 3351 3352
3353 3354 3355 3356 3357 3358 3359 3360 3361 3362 3363 3364 3365 3366 3367
3368 3369 3370 3371 3372 3373 3374 3375 3376 3377 3378 3379 3380 3381 3382
3383 3384 3385 3386 3387 3388 3389 3390 3391 3392 3393 3394 3395 3396 3397
3398 3399 3400 3401 3402 3403 3404 3405 3406 3407 3408 3409 3410 3411 3412
3413 3414 3415 3416 3417 3418 3419 3420 3421 3422 3423 3424 3425 3426 3427
3428 3429 3430 3431 3432 3433 3434 3435 3436 3437 3438 3439 3440 3441 3442
3443 3444 3445 3446 3447 3448 3449 3450 3451 3452 3453 3454 3455 3456 3457
3458 3459 3460 3461 3462 3463 3464 3465 3466 3467 3468 3469 3470 3471 3472
3473 3474 3475 3476 3477 3478 3479 3480 3481 3482 3483 3484 3485 3486 3487
3488 3489 3490 3491 3492 3493 3494 3495 3496 3497 3498 3499 3500 3501 3502
3503 3504 3505 3506 3507 3508 3509 3510 3511 3512 3513 3514 3515 3516 3517
3518 3519 3520 3521 3522 3523 3524 3525 3526 3527 3528 3529 3530 3531 3532
3533 3534 3535 3536 3537 3538 3539 3540 3541 3542 3543 3544 3545 3546 3547
3548 3549 3550 3551 3552 3553 3554 3555 3556 3557 3558 3559 3560 3561 3562
3563 3564 3565 3566 3567 3568 3569 3570 3571 3572 3573 3574 3575 3576 3577
3578 3579 3580 3581 3582 3583 3584 3585 3586 3587 3588 3589 3590 3591 3592
3593 3594 3595 3596 3597 3598 3599 3600 3601 3602 3603 3604 3605 3606 3607
3608 3609 3610 3611 3612 3613 3614 3615 3616 3617 3618 3619 3620 3621 3622
3623 3624 3625 3626 3627 3628 3629 3630 3631 3632 3633 3634 3635 3636 3637
3638 3639 3640 3641 3642 3643 3644 3645 3646 3647 3648 3649 3650 3651 3652
3653 3654 3655 3656 3657 3658 3659 3660 3661 3662 3663 3664 3665 3666 3667
3668 3669 3670 3671 3672 3673 3674 3675 3676 3677 3678 3679 3680 3681 3682
3683 3684 3685 3686 3687 3688 3689 3690 3691 3692 3693 3694 3695 3696 3697
3698 3699 3700 3701 3702 3703 3704 3705 3706 3707 3708 3709 3710 3711 3712
3713 3714 3715 3716 3717 3718 3719 3720 3721 3722 3723 3724 3725 3726 3727
3728 3729 3730 3731 3732 3733 3734 3735 3736 3737 3738 3739 3740 3741 3742
3743 3744 3745 3746 3747 3748 3749 3750 3751 3752 3753 3754 3755 3756 3757
3758 3759 3760 3761 3762 3763 3764 3765 3766 3767 3768 3769 3770 3771 3772
3773 3774 3775 3776 3777 3778 3779 3780 3781 3782 3783 3784 3785 3786 3787
3788 3789 3790 3791 3792 3793 3794 3795 3796 3797 3798 3799 3800 3801 3802
3803 3804 3805 3806 3807 3808 3809 3810 3811 3812 3813 3814 3815 3816 3817
3818 3819 3820 3821 3822 3823 3824 3825 3826 3827 3828 3829 3830 3831 3832
3833 3834 3835 3836 3837 3838 3839 3840 3841 3842 3843 3844 3845 3846 3847
3848 3849 3850 3851 3852 3853 3854 3855 3856 3857 3858 3859 3860 3861 3862
3863 3864 3865 3866 3867 3868 3869 3870 3871 3872 3873 3874 3875 3876 3877
3878 3879 3880 3881 3882 3883 3884 3885 3886 3887 3888 3889 3890 3891 3892
3893 3894 3895 3896 3897 3898 3899 3900 3901 3902 3903 3904 3905 3906 3907
3908 3909 3910 3911 3912 3913 3914 3915 3916 3917 3918 3919 3920 3921 3922
3923 3924 3925 3926 3927 3928 3929 3930 3931 3932 3933 3934 3935 3936 3937
3938 3939 3940 3941 3942 3943 3944 3945 3946 3947 3948 3949 3950 3951 3952
3953 3954 3955 3956 3957 3958 3959 3960 3961 3962 3963 3964 3965 3966 3967
3968 3969 3970 3971 3972 3973 3974 3975 3976 3977 3978 3979 3980 3981 3982
3983 3984 3985 3986 3987 3988 3989 3990 3991 3992 3993 3994 3995 3996 3997
3998 3999 4000 4001 4002 4003 4004 4005 4006 4007 4008 4009 4010 4011 4012
4013 4014 4015 4016 4017 4018 4019 4020 4021 4022 4023 4024 4025 4026 4027
4028 4029 4030 4031 4032 4033 4034 4035 4036 4037 4038 4039 4040 4041 4042
4043 4044 4045 4046 4047 4048 4049 4050 4051 4052 4053 4054 4055 4056 4057
4058 4059 4060 4061 4062 4063 4064 4065 4066 4067 4068 4069 4070 4071 4072
4073 4074 4075 4076 4077 4078 4079 4080 4081 4082 4083 4084 4085 4086 4087
4088 4089 4090 4091 4092 4093 4094 4095 4096 4097 4098 4099 4100 4101 4102
4103 4104 4105 4106 4107 4108 4109 4110 4111 4112 4113 4114 4115 4116 4117
4118 4119 4120 4121 4122 4123 4124 4125 4126 4127 4128 4129 4130 4131 4132
4133 4134 4135 4136 4137 4138 4139 4140 4141 4142 4143 4144 4145 4146 4147
4148 4149 4150 4151 4152 4153 4154 4155 4156 4157 4158 4159 4160 4161 4162
4163 4164 4165 4166 4167 4168 4169 4170 4171 4172 4173 4174 4175 4176 4177
4178 4179 4180 4181 4182 4183 4184 4185 4186 4187 4188 4189 4190 4191 4192
4193 4194 4195 4196 4197 4198 4199 4200 4201 4202 4203 4204 4205 4206 4207
4208 4209 4210 4211 4212 4213 4214 4215 4216 4217 4218 4219 4220 4221 4222
4223 4224 4225 4226 4227 4228 4229 4230 4231 4232 4233 4234 4235 4236 4237
4238 4239 4240 4241 4242 4243 4244 4245 4246 4247 4248 4249 4250 4251 4252
4253 4254 4255 4256 4257 4258 4259 4260 4261 4262 4263 4264 4265 4266 4267
4268 4269 4270 4271 4272 4273 4274 4275 4276 4277 4278 4279 4280 4281 4282
4283 4284 4285 4286 4287 4288 4289 4290 4291 4292 4293 4294 4295 4296 4297
4298 4299 4300 4301 4302 4303 4304 4305 4306 4307 4308 4309 4310 4311 4312
4313 4314 4315 4316 4317 4318 4319 4320 4321 4322 4323 4324 4325 4326 4327
4328 4329 4330 4331 4332 4333 4334 4335 4336 4337 4338 4339 4340 4341 4342
4343 4344 4345 4346 4347 4348 4349 4350 4351 4352 4353 4354 4355 4356 4357
4358 4359 4360 4361 4362 4363 4364 4365 4366 4367 4368 4369 4370 4371 4372
4373 4374 4375 4376 4377 4378 4379 4380 4381 4382 4383 4384 4385 4386 4387
4388 4389 4390 4391 4392 4393 4394 4395 4396 4397 4398 4399 4400 4401 4402
4403 4404 4405 4406 4407 4408 4409 4410 4411 4412 4413 4414 4415 4416 4417
4418 4419 4420 4421 4422 4423 4424 4425 4426 4427 4428 4429 4430 4431 4432
4433 4434 4435 4436 4437 4438 4439 4440 4441 4442 4443 4444 4445 4446 4447
4448 4449 4450 4451 4452 4453 4454 4455 4456 4457 4458 4459 4460 4461 4462
4463 4464 4465 4466 4467 4468 4469 4470 4471 4472 4473 4474 4475 4476 4477
4478 4479 4480 4481 4482 4483 4484 4485 4486 4487 4488 4489 4490 4491 4492
4493 4494 4495 4496 4497 4498 4499 4500 4501 4502 4503 4504 4505 4506 4507
4508 4509 4510 4511 4512 4513 4514 4515 4516 4517 4518 4519 4520 4521 4522
4523 4524 4525 4526 4527 4528 4529 4530 4531 4532 4533 4534 4535 4536 4537
4538 4539 4540 4541 4542 4543 4544 4545 4546 4547 4548 4549 4550 4551 4552
4553 4554 4555 4556 4557 4558 4559 4560 4561 4562 4563 4564 4565 4566 4567
4568 4569 4570 4571 4572 4573 4574 4575 4576 4577 4578 4579 4580 4581 4582
4583 4584 4585 4586 4587 4588 4589 4590 4591 4592 4593 4594 4595 4596 4597
4598 4599 4600 4601 4602 4603 4604 4605 4606 4607 4608 4609 4610 4611 4612
4613 4614 4615 4616 4617 4618 4619 4620 4621 4622 4623 4624 4625 4626 4627
4628 4629 4630 4631 4632 4633 4634 4635 4636 4637 4638 4639 4640 4641 4642
4643 4644 4645 4646 4647 4648 4649 4650 4651 4652 4653 4654 4655 4656 4657
4658 4659 4660 4661 4662 4663 4664 4665 4666 4667 4668 4669 4670 4671 4672
4673 4674 4675 4676 4677 4678 4679 4680 4681 4682 4683 4684 4685 4686 4687
4688 4689 4690 4691 4692 4693 4694 4695 4696 4697 4698 4699 4700 4701 4702
4703 4704 4705 4706 4707 4708 4709 4710 4711 4712 4713 4714 4715 4716 4717
4718 4719 4720 4721 4722 4723 4724 4725 4726 4727 4728 4729 4730
