Cpptraj Generated Restart                                                       
   28  4.0000001E-01
  84.7482758 154.5851898  14.8715487  85.4746780 153.4165649  14.4088001
  84.0205078 153.4194336  14.4565191  85.7187653 152.0157623  13.8338785
  83.3739166 152.3409271  14.0865059  84.2888107 151.5652771  13.8587408
  84.8699265 155.8238831  12.2393532  84.8043823 156.5494080  13.2550163
  84.5209274 155.9365234  14.5580368  84.9976425 157.9736633  13.1420240
  84.5762634 156.9054718  15.4202852  84.9601135 158.8952942  14.2228823
  84.7568665 158.0768433  15.4260893  85.0611038 160.1114197  14.1209059
  84.9805984 158.3728180  12.2109213  86.7565460 151.4571838  13.1056080
  87.7126999 150.4470825  13.0366974  87.4054871 149.1735229  12.4131613
  88.0100403 151.3082581  11.9734449  87.6582489 148.8649445  11.1090403
  88.3091660 151.5798798  10.8120012  87.6518631 149.2268524   9.7208977
  88.0455399 150.4971161  10.3023233  86.7074661 149.3481750   9.3564882
  86.6057510 148.2070770  13.1032515  86.2546692 148.4001465  14.2525206
  85.9759369 147.1485596  12.5105524  86.1509018 147.2105713  11.5559330
