Cpptraj Generated Restart                                                       
 6223  4.0000001E-01
  90.5754166 180.3212891  24.6058025  91.5327148 180.4113922  24.2966747
  90.4847641 179.3614502  24.9068050  90.3591995 180.9022675  25.4031906
  89.5983353 180.5207214  23.4301853  88.6075439 180.3282776  23.8417816
  89.6464844 181.9726562  22.9222469  90.6154938 182.1343689  22.4500408
  88.9135284 182.1382904  22.1326656  89.3686752 183.0339508  23.9828529
  88.3988571 182.8124084  24.4283676  90.0772476 182.9542847  24.8072796
  89.4950562 184.7709045  23.3739662  87.8223114 184.9412384  22.5328503
  87.0297470 185.1801147  23.2420006  87.8639984 185.8047333  21.8689575
  87.5921936 184.0274048  21.9850922  89.6844025 179.4582520  22.3343563
  90.7821198 178.9876556  22.0352764  88.5757523 178.9715118  21.8071384
  87.7189331 179.4615021  22.0213089  88.5059586 178.0077820  20.6707706
  89.0897980 177.1509094  21.0069294  87.0486526 177.4524078  20.4992905
  86.4669952 178.3441162  20.2656002  87.0241394 176.5397644  19.2713280
  87.6432800 175.6605530  19.4495163  85.9786835 176.3325500  19.0429096
  87.3542252 177.1270294  18.4144344  86.6011353 176.7953033  21.7802372
  85.8878479 176.0302887  21.4735355  87.4646378 176.2976990  22.2216663
  85.9580307 177.6277161  22.8788586  85.0462952 177.9683075  22.3881073
  85.7947006 176.9634705  23.7275028  86.6643677 178.4389191  23.0553608
  89.2209244 178.5048218  19.4158878  89.3217545 179.6829681  19.2615833
  89.8585281 177.6457977  18.6266289  89.9265823 176.6888885  18.9425144
  90.4952621 178.0992432  17.3700695  90.0715866 179.0539551  17.0583878
  91.9730377 178.5173492  17.6683903  92.4062271 179.0413971  16.8164444
  91.9049377 179.1455383  18.5565510  92.9490967 177.3553009  17.9481983
  92.5848083 176.2181549  17.8855324  94.1509781 177.6294403  18.4446583
  94.7746124 176.8496857  18.5968418  94.4694443 178.5809937  18.5597076
  90.2691727 177.1543274  16.1820316  90.6662292 177.4049072  15.0423899
  89.5021591 176.0872803  16.3957710  89.1795044 175.9057007  17.3354664
  88.8689117 175.1855469  15.3779440  89.6596375 174.9969025  14.6518126
  88.4019623 173.8853149  16.0301723  89.2370300 173.4269714  16.5599766
  87.5830078 174.0706177  16.7252121  87.8909912 172.8242493  15.0879211
  88.7683105 171.8143311  14.6847076  89.8021011 171.8281860  14.9969587
  88.2810211 170.7390747  13.8581409  88.8678055 169.8819733  13.5624199
  86.9461746 170.7405548  13.4985390  86.4812622 169.9038849  12.9983063
  86.0764465 171.7347260  13.9593134  85.0373077 171.5787354  13.7098026
  86.5530243 172.8400421  14.6366835  85.9231110 173.6746979  14.9067755
  87.6764526 175.9104462  14.6483812  86.8893890 176.6446838  15.2229872
  87.7704620 175.8842468  13.3029528  88.4596786 175.2493134  12.9262085
  86.8708115 176.5323944  12.3284092  86.5706558 177.5198517  12.6790228
  87.5951843 176.6713409  10.9831629  88.4709015 177.3202362  10.9956388
  87.8589935 175.6528778  10.6981354  86.6539612 177.2574310   9.9056158
  85.4100113 177.1538849  10.0157175  87.1573563 177.9537659   9.0215120
  85.6038971 175.6322327  12.2568579  85.6211548 174.5067444  11.7060633
  84.4297256 176.0665283  12.7295399  84.4584656 177.0372162  13.0071201
  83.1292725 175.3070526  12.8339376  83.2081146 174.4602356  13.5156870
  82.0885925 176.1660309  13.5725346  81.0900269 175.7366028  13.4915628
  82.4988480 176.2548676  15.0427732  83.4331970 176.7715912  15.2620916
  81.7060547 176.7244415  15.6250696  82.6087189 175.2150726  15.3507776
  82.1651840 177.4742432  12.9953871  81.5115738 178.0319214  13.4236279
  82.6400375 174.8724213  11.4436321  81.7305145 174.0636902  11.3804092
  83.2459717 175.3323669  10.3259583  84.0327911 175.9495087  10.4679317
  82.9175186 174.8576813   8.9880848  81.8307495 174.8266907   8.9101105
  83.4641495 175.8440857   7.9478698  83.0891266 175.5348969   6.9722376
  83.1539459 176.8389282   8.2675276  84.8389359 175.7272339   8.0044870
  85.1455383 176.2187805   8.7699785  83.3478165 173.4101715   8.6984072
  82.7181320 172.7316742   7.9168854  84.4351273 172.9013519   9.3595247
  84.9705353 173.5871735   9.8724527  85.1194687 171.6335144   8.9315004
  85.4306870 171.7479095   7.8931551  86.4205627 171.5310516   9.6578741
  86.0851974 171.4588318  10.6924839  86.9698486 170.6149292   9.4408617
  87.3458710 172.7926483   9.4688139  86.9003448 173.6881866   9.9019623
  88.6119614 172.5213318  10.2854948  88.9377899 171.5188599  10.0080070
  89.3868179 173.2171326   9.9637012  88.4997940 172.5434265  11.3694839
  87.6437225 173.1101379   8.0408411  86.6879883 173.3550568   7.5774927
  88.3046036 173.9725494   7.9538465  88.1193390 172.2635803   7.5456109
  84.2353287 170.3579102   9.1525955  84.4162292 169.3741608   8.3860435
  83.2867813 170.2124176  10.1194029  83.1378708 170.9364624  11.3369455
  82.3631744 171.6949310  11.2243824  84.0923080 171.4228210  11.5384722
  82.7663193 169.9663391  12.4761229  82.2502060 170.4347992  13.3141432
  83.7014618 169.4498749  12.6926174  81.9017105 169.0155945  11.6293507
  80.9318695 169.5058136  11.5444870  81.6952209 168.0635986  12.1183920
  82.5299759 168.9467468  10.2492170  83.1858902 168.0798187  10.1697254
  81.4667664 168.8029480   9.1483736  81.3154831 167.7546387   8.5335569
  80.7233582 169.9116516   8.9558411  80.8930664 170.7461853   9.4988575
  79.5872879 170.1494446   8.0455303  78.8841553 169.3816681   8.3683634
  78.8768845 171.4866333   8.2068377  78.1559753 171.6579437   7.4074378
  78.3378143 171.6817474   9.6036835  79.2095947 171.7790375  10.2507038
  77.7623672 172.6063538   9.6493635  77.7040787 170.8960571  10.0149755
  79.8114166 172.5981903   8.1062002  80.0016632 172.7117004   7.1721120
  79.9018707 169.8599548   6.4911885  78.9971085 169.5451050   5.7164083
  81.1929092 170.0196838   6.1117730  81.8754120 170.3303223   6.7883773
  81.7448273 169.6206055   4.7968512  80.9506454 169.8431244   4.0842123
  82.9439392 170.5009766   4.4767203  83.2268372 170.4598541   3.4248767
  82.6095276 171.5277252   4.6253152  83.9872818 170.2921448   5.3565540
  84.7614975 170.8208466   5.1499634  82.0143204 168.1224670   4.6671114
  82.1335983 167.6553497   3.5444558  81.8721542 167.3410492   5.7495999
  81.6379318 167.8066711   6.6147275  82.0784378 165.8696594   5.7789974
  82.2704239 165.5740967   6.8104477  80.8135071 165.1530457   5.3649063
  80.5945282 165.2779083   4.3044548  80.9843750 164.1045532   5.6089821
  79.6373520 165.5177765   6.1933703  79.3778534 164.8179016   7.3728757
  78.3565063 165.4993591   7.8832479  77.9074478 165.1756134   8.8105717
  77.9079819 166.4490509   7.0387034  77.0342331 166.9102325   7.2483997
  78.7495117 166.5769653   6.0204706  78.7224503 167.2542725   5.1796875
  83.3132935 165.3385010   4.9757504  83.2683105 164.3274384   4.2882361
  84.4473648 166.0264130   5.1188154  84.4456711 166.8390503   5.7185831
  85.6483078 165.6540985   4.3947325  85.5298462 165.7519379   3.3156130
  86.7546158 166.6119080   4.8507533  86.9705505 166.3883667   5.8955040
  87.6430893 166.4179993   4.2498255  86.4718323 168.1353302   4.6229448
  86.5784149 168.2837524   3.5483716  85.4653702 168.2843018   5.0140138
  87.5226974 169.4474792   5.4873705  88.8778152 169.4534912   4.3101130
  88.4221802 169.4249878   3.3203199  89.5691147 170.2924500   4.3899064
  89.4599075 168.5461426   4.4712548  86.1089172 164.1368256   4.5360856
  86.6713104 163.5450897   3.6073165  85.7854004 163.4759827   5.6593900
  85.2423401 163.9294434   6.3801913  86.0624466 162.0636139   5.8681965
  87.1436462 161.9292755   5.8356647  85.5506821 161.6728516   7.2378612
  85.8035355 160.6627655   7.5601745  86.0001221 162.3054047   8.0033569
  84.0069427 161.6776886   7.4038363  83.4776535 162.8907166   7.8990254
  84.1417923 163.7329102   8.0257311  82.0798187 162.9861298   8.1478977
  81.6999054 163.8981171   8.5842171  81.1820755 161.9530945   7.8225436
  79.8602371 162.0514984   7.8582840  79.6872101 162.9932098   7.9277468
  81.7500763 160.7657776   7.3277760  81.1392441 159.9656677   6.9364953
  83.1519470 160.5751190   7.2040558  83.5722122 159.6854095   6.7588758
  85.4816208 161.0532990   4.8446031  86.0638351 159.9664154   4.6684151
  84.4565659 161.4693451   4.0655303  84.0858307 162.3721771   4.3254886
  83.7626877 160.8284302   2.9676225  83.6738052 159.7547913   3.1335216
  82.4024506 161.5628967   2.9131668  81.9281082 161.6931610   3.8858607
  82.6691971 162.5869751   2.6519678  81.3352280 161.0650940   1.8212277
  81.7441101 161.0237885   0.8116693  80.7250671 159.7249451   2.2184854
  80.2860870 159.7936096   3.2138216  79.9032440 159.5182190   1.5329423
  81.4487534 158.9134216   2.1422367  80.2233047 162.1075439   1.8624958
  80.6382751 163.0959625   1.6652278  79.4196701 161.9272308   1.1485214
  79.7705765 162.2313080   2.8462751  84.5207138 160.8260803   1.6468737
  84.2599945 160.0045319   0.7909535  85.3725433 161.8229370   1.4923067
  85.5311584 162.4294586   2.2841802  86.1755371 162.0032654   0.2827911
  87.1967621 162.1842194   0.6181498  86.1132812 161.1467896  -0.3885388
  85.8450775 163.2167206  -0.5691989  84.6380081 163.5105286  -0.7911400
  86.8662949 163.8777924  -1.0440027  87.7938538 163.6578827  -0.7102553
  86.8384323 165.1303406  -1.8386889  86.1413116 165.8400116  -1.3931718
  88.2822113 165.7231140  -1.8967381  88.1364365 166.7803955  -2.1181622
  88.7223053 165.6035461  -0.9067273  89.1509552 165.1034851  -2.8144307
  90.0112686 165.5220795  -2.7354753  86.3354187 164.8501434  -3.2719839
  86.1590424 163.6935730  -3.6337652  86.1620178 165.8748016  -4.1115661
  86.2048798 166.8454437  -3.8356464  85.9188385 165.7016449  -5.5200272
  85.6243362 166.6829376  -5.8920937  87.2881927 165.2857208  -6.2005754
  88.0480881 165.9414062  -5.7754364  87.6349335 164.2863617  -5.9376121
  87.2448578 165.5018768  -7.7424808  86.7756500 166.5555267  -8.1927319
  87.7853317 164.6318512  -8.4938850  84.6525803 164.8312378  -5.8797841
  84.7067642 163.7610321  -6.5197530  83.5494308 165.2001648  -5.2889495
  83.5965118 165.9670105  -4.6333270  82.2280121 164.6984100  -5.5943480
  82.2787552 163.6364441  -5.8346977  81.3333664 164.8544769  -4.4255309
  81.0265732 165.8897552  -4.2766194  80.3811111 164.3843689  -4.6711049
  81.8288193 164.0896454  -3.1671772  82.0874863 163.0534210  -3.3849390
  82.6844559 164.6053009  -2.7311811  80.6529312 164.0727539  -1.7702701
  79.7338867 162.5904694  -2.2050383  80.3576431 161.7021942  -2.1050038
  78.8473816 162.4583130  -1.5847583  79.2944489 162.7088623  -3.1954801
  81.6343231 165.4418945  -6.7916045  82.0171204 166.5556793  -7.2089186
  80.6258545 164.8236694  -7.4603739  80.3180237 163.9292297  -7.1063738
  79.6528168 165.5465240  -8.2521639  80.2799377 166.1768494  -8.8826561
  78.9733582 164.5083160  -9.1249933  79.7064819 163.9252319  -9.6823463
  78.3744583 163.8594971  -8.4858913  77.9147263 165.1214600 -10.0666666
  77.0640717 165.4213257  -9.4546385  78.2995987 166.0415649 -10.5064383
  77.5310822 164.1261597 -11.2082930  77.2941895 162.9059601 -10.9365416
  77.2882690 164.6056213 -12.3339806  78.6314468 166.4235229  -7.4001703
  78.5352859 166.1651001  -6.1921473  77.9895782 167.4681549  -7.9613433
  78.1319275 167.6915894  -8.9359827  76.9033813 168.1589050  -7.2844052
  76.4658890 167.6266479  -6.4397721  77.4708405 169.4738312  -6.7733941
  78.0368118 170.0294342  -7.5211139  76.6895142 170.1713104  -6.4714789
  78.5189743 169.2088013  -5.6362791  78.1046906 168.5357056  -4.8856659
  79.4499054 168.8454895  -6.0715475  78.8712997 170.5357971  -4.8961806
  77.9626312 171.2118835  -4.2823224  80.0710220 170.9315643  -4.9411492
  75.6754456 168.4982758  -8.0961113  75.8166733 168.6424713  -9.3165874
  74.4904633 168.6680145  -7.4003167  74.5600662 168.7130585  -6.3937254
  73.1765137 169.0712128  -7.9931021  73.3029251 169.1184998  -9.0747137
  72.1477509 167.9477081  -7.8331485  71.9169235 167.9974670  -6.7690330
  71.2377167 168.1840515  -8.3845797  72.5958786 166.5447540  -8.1367807
  72.5528488 166.0271606  -9.4503164  72.1754761 166.6177521 -10.2720146
  72.9514389 164.7198334  -9.7102318  72.8598938 164.3042145 -10.7028427
  73.5973892 164.0285187  -8.6669216  74.0159836 163.0494995  -8.8477077
  73.5473175 164.4881897  -7.3015180  73.9141312 163.9339294  -6.4502597
  73.0401001 165.7212524  -7.0803065  72.9230347 165.9964752  -6.0425444
  72.6207199 170.4389801  -7.4570193  72.3554459 170.6611481  -6.3002791
  72.2816315 171.3061066  -8.3734512  72.4829788 171.0469818  -9.3286572
  71.9256744 172.7365417  -8.1139956  72.2642212 173.0833435  -7.1376672
  72.6543884 173.6999359  -9.0694294  72.2688675 174.6869049  -8.8137665
  73.7326508 173.6584015  -8.9153919  72.5372543 173.3642273 -10.5411081
  73.3574448 172.4712982 -11.2264109  72.9085999 172.5931091 -12.4803877
  73.3071594 172.0128784 -13.2994566  71.7611771 173.3591919 -12.5631895
  71.2561951 173.5616608 -13.4141264  71.4959641 173.8210602 -11.3175154
  70.6749802 174.4600525 -11.0275221  70.4088364 172.9632874  -8.1981220
  69.9561768 173.9910431  -7.7476873  69.5664825 172.0384369  -8.7390614
  69.9715042 171.2526093  -9.2274666  68.1081314 172.1421204  -8.7274132
  67.8452301 173.1957245  -8.8216591  67.7474060 171.7489319  -9.6778784
  67.4870911 171.3245697  -7.6238184  68.0806580 170.3977814  -7.0922241
  66.2671509 171.7061768  -7.2485728  65.9344406 172.4795837  -7.8064880
  65.5012360 171.4654541  -5.9853573  66.0139999 170.7568054  -5.3349724
  65.5474167 172.7782135  -5.1727648  64.9278870 173.5527191  -5.6248875
  65.1199036 172.5002289  -4.2094092  66.9567642 173.3943481  -4.8673072
  67.4823380 173.5774689  -5.8045068  66.7198334 174.2936554  -4.2987766
  67.8349762 172.4732513  -4.0269489  67.3337708 172.0112457  -3.1763952
  68.0329895 171.6482849  -4.7112775  69.2421646 172.9696503  -3.8015966
  69.9025269 172.3304901  -4.2205410  69.6994095 174.0503693  -3.1696801
  68.9999466 174.9913330  -2.5863967  68.0024338 174.8380280  -2.5469422
  69.3949203 175.7290649  -2.0208304  70.9957199 174.3018799  -3.1718395
  71.5581207 173.7580261  -3.8106110  71.4168549 175.0738983  -2.6751177
  64.0586472 171.0010834  -6.1518397  63.1599312 171.7545319  -6.6015592
  63.8213654 169.7208252  -5.8030787  64.5144882 169.1696472  -5.3174143
  62.4950600 169.1380615  -5.7984228  62.0158920 169.3672028  -6.7502599
  62.6772842 167.5488281  -5.6786890  63.3790283 167.3253937  -4.8751168
  61.3964081 166.7829132  -5.4302573  60.7438812 167.0028076  -6.2752175
  61.5147858 165.6993866  -5.4232688  61.0625992 167.0082855  -4.4173951
  63.2120361 167.0393066  -6.8951335  63.4718323 166.1215820  -6.7861090
  61.6551933 169.6618042  -4.6021476  62.1493149 169.6705170  -3.4684653
  60.4508171 170.1404877  -4.8671765  60.1786003 170.2405548  -5.8346386
  59.3394012 170.1991272  -3.8890276  59.6008759 169.4337006  -3.1583827
  59.1494598 171.6235962  -3.2995069  59.1537247 172.2231750  -4.2097826
  58.1405640 171.7563934  -2.9088693  60.1062508 172.0093842  -2.2048216
  61.1267242 172.0697479  -2.5831025  59.7969933 173.4069824  -1.6903979
  58.9757919 173.3722076  -0.9744893  60.6427116 173.8282623  -1.1469070
  59.5429726 174.1191559  -2.4755011  60.1524048 171.0422058  -0.9566106
  60.3036270 170.0056763  -1.2580285  60.9648285 171.4146576  -0.3326309
  59.2072754 171.1992493  -0.4368332  58.0150185 169.7794189  -4.5758929
  57.6819534 170.3339233  -5.6214857  57.2559128 168.8630524  -3.9910583
  57.5121002 168.4675903  -3.0976999  55.8440437 168.5172272  -4.3007731
  55.8029289 168.4208984  -5.3857303  55.6027412 167.1484528  -3.6929083
  55.4868927 167.2333832  -2.6124144  54.6586990 166.8317108  -4.1362629
  56.5149117 166.0006714  -4.0989175  57.6582336 165.5160522  -3.3539021
  58.2457619 164.6972504  -4.1987290  59.1562843 164.1395416  -4.0364871
  57.6065521 164.6114044  -5.3831744  57.8286781 163.9261932  -6.0911593
  56.4769745 165.3606415  -5.3193455  55.6888351 165.4223938  -6.0551662
  54.9168777 169.6367340  -3.8473811  55.2729454 170.4775238  -2.9641221
  53.6902313 169.6781158  -4.4055719  53.5224686 169.0003967  -5.1354008
  52.5821762 170.4726257  -3.8201239  52.7753868 171.5377655  -3.6927180
  51.3568115 170.3141327  -4.7660861  51.1760750 169.2541504  -4.9445996
  50.5061569 170.7199554  -4.2185483  51.4708099 171.0660553  -6.1311264
  51.3232307 172.3186646  -6.0884895  51.5944252 170.4256744  -7.2417178
  52.2228737 169.9035797  -2.4201834  52.1551933 168.6935883  -2.2257907
  51.8282585 170.8325043  -1.5049386  51.9492607 171.7964478  -1.7811542
  51.3925133 170.5250244  -0.1828651  52.2413597 170.0933228   0.3474139
  51.0246964 171.7865906   0.5933992  50.1199532 172.2319946   0.1796937
  50.7426682 171.4762878   1.5995214  52.1735535 172.8391724   0.7136412
  53.3414383 172.3916931   0.8565237  51.8868904 174.0208588   0.6753182
  50.2126427 169.5647430  -0.2310736  49.2183380 169.7377930  -0.9701475
  50.3048096 168.5928955   0.6638129  51.1493454 168.6340942   1.2162333
  49.3524551 167.4575653   0.9854111  49.8971138 166.7713013   1.6338639
  48.0316353 167.8517456   1.6923310  47.5192108 168.5529785   1.0337099
  47.3735619 166.9868927   1.7765735  48.3027039 168.3247528   3.1297979
  48.4882317 167.4356384   3.9988346  48.0298195 169.5145569   3.5088859
  48.9480476 166.5644531  -0.2043977  47.9737167 165.8404541  -0.2249042
  49.6998711 166.6787415  -1.3356907  50.5194244 167.2670135  -1.2871047
  49.6731186 165.6381531  -2.3735621  48.6692314 165.4183197  -2.7368686
  50.3393402 166.0747528  -3.6675830  50.0256767 165.3437958  -4.4128361
  49.9527054 167.0388489  -3.9979565  51.7537651 166.0424500  -3.5990601
  52.0222321 166.7406311  -2.9973476  50.2893715 164.2736359  -1.8315024
  51.2235374 164.2853241  -1.0172989  49.6995583 163.1324921  -2.2798440
  48.8329277 163.2155914  -2.7918446  50.1143951 161.7698364  -2.2432330
  50.4929581 161.5402985  -1.2471887  49.0266571 160.7000275  -2.4289322
  48.2376328 160.7003479  -1.6769073  48.4334259 160.8395691  -3.3326509
  49.7241898 159.0451355  -2.5527697  48.6049194 158.5419922  -3.0809615
  51.2494431 161.5815582  -3.2576082  51.1115799 161.9306335  -4.3815484
  52.2874680 160.9003448  -2.7874124  52.1728477 160.6157074  -1.8251549
  53.5322037 160.5716705  -3.5148213  53.3342018 160.5834045  -4.5866222
  54.5758820 161.6320801  -3.1389742  54.9158821 161.5081635  -2.1107979
  55.4567299 161.3479919  -3.7147379  54.1213417 163.0502014  -3.4171519
  53.2293549 163.3245850  -2.8539665  54.9953041 163.6578064  -3.1823893
  53.7850800 163.2265320  -4.8816018  54.2929153 162.5403290  -5.7834911
  52.9825439 164.1982422  -5.3305349  52.7391052 164.1109161  -6.3068609
  52.6039963 164.8794250  -4.6880398  54.0722923 159.1818695  -3.2317681
  53.7923470 158.5511627  -2.2281587  54.8911781 158.5641632  -4.0844736
  55.0792580 158.9621582  -4.9935036  55.5650749 157.2423706  -3.8786144
  55.3973198 156.9668427  -2.8374438  54.8971939 156.0795746  -4.6549277
  53.8342171 156.1029205  -4.4148417  54.8781281 156.2023163  -6.2296515
  55.9011040 156.4978333  -6.4626899  54.5353394 155.3014526  -6.7385931
  54.2093620 157.0263214  -6.4784031  55.3761330 154.6829071  -4.2758365
  55.2133293 154.5133209  -3.2114885  54.7490768 153.9707184  -4.8122053
  56.4346657 154.5113831  -4.4712720  57.0567551 157.3056946  -3.9403682
  57.5539131 157.8781128  -4.9444857  57.7625084 156.8041534  -2.9313669
  57.3171310 156.2998657  -2.1780772  59.2012100 157.0669708  -2.7081435
  59.6215630 157.3236542  -3.6805196  59.3856010 158.3260040  -1.7980043
  59.1528625 158.1529999  -0.7472903  60.8097305 158.8618011  -1.8834279
  61.1087875 159.3138580  -2.8291020  61.0226784 159.5433502  -1.0598670
  61.4738693 158.0010529  -1.8051636  58.4895859 159.5687103  -2.2577381
  58.7299156 159.7617188  -3.3032463  57.4855728 159.1734009  -2.1034606
  58.6626396 160.8650055  -1.5086406  59.6450119 161.3194427  -1.6371635
  57.9065247 161.5412750  -1.9074395  58.4996605 160.6904755  -0.4451185
  59.9415474 155.8735962  -2.1821811  59.4991608 155.2554474  -1.1909541
  61.1100311 155.4966278  -2.7530591  61.6680870 156.0176086  -3.9938822
  61.7572517 157.1038513  -4.0084109  61.0389404 155.6499176  -4.8044834
  63.0488586 155.3155518  -4.1029234  63.7510681 155.9176025  -3.5262666
  63.4127884 155.1888428  -5.1225338  62.8347969 153.9847260  -3.3444788
  63.7553215 153.4936829  -3.0288861  62.3368797 153.2649994  -3.9942269
  61.9228745 154.4118500  -2.1940036  61.2136040 153.6233521  -1.9424027
  62.7262917 154.7996216  -0.9172316  63.1607285 155.9262390  -0.7757665
  62.9510269 153.8352051  -0.0541604  62.5632401 152.9317627  -0.2855185
  63.6813774 153.9339447   1.2238115  64.0608749 154.9354858   1.4262443
  62.8342018 153.3455048   2.4108593  62.6998558 152.3155975   2.0801690
  63.5184784 153.2730713   3.8301182  63.7546120 154.2756042   4.1868815
  62.8633118 152.8207855   4.5746312  64.3830643 152.6116333   3.7746527
  61.4727058 153.9874725   2.5819299  60.7724648 153.8562012   1.7569882
  61.0566330 153.6206665   3.5202420  61.6106453 155.0559998   2.7472477
  64.9191055 153.0796356   1.0196621  64.8037491 151.9351959   0.5896409
  66.0174332 153.5422211   1.5568390  66.1187363 154.5130615   1.8162446
  67.1740341 152.7242889   1.7103622  67.1327896 152.0972595   0.8197182
  68.4083405 153.5492096   1.7017843  68.3371124 154.3188934   2.4703031
  69.2381210 152.8844757   1.9419796  68.8486099 154.2200317   0.3540316
  68.0424423 154.8333588  -0.0485263  70.0258331 155.1087799   0.6071628
  70.8205795 154.6579742   1.2015058  70.4623184 155.4452362  -0.3332445
  69.7334442 156.0527954   1.0669751  69.3157959 153.2274780  -0.7347627
  68.5220642 152.5225983  -0.9822061  69.6573563 153.6911316  -1.6602125
  70.0976562 152.5714874  -0.3520142  67.0776520 151.9274139   3.0698643
  67.1263275 152.5807495   4.0975699  66.8702087 150.5975037   3.0994637
  66.8973312 149.7510529   1.9333510  67.8695831 149.9211884   1.4708638
  66.0744247 149.9000549   1.2342660  66.9174805 148.3128662   2.5263605
  67.9200897 147.9629364   2.7721636  66.3864670 147.6648102   1.8291061
  66.1421585 148.4871674   3.8301067  66.4389648 147.7508087   4.5769572
  65.0803757 148.3618927   3.6178861  66.3767395 149.9226990   4.2736077
  65.4610825 150.4377594   4.5641074  67.4124298 149.9615479   5.4381266
  67.0037689 149.8538055   6.5916262  68.7407608 150.0818787   5.2038474
  69.0733566 150.1065369   4.2504992  69.6711960 150.2821198   6.3625989
  69.2880859 149.6003723   7.1219025  71.0730820 149.7234955   5.9440260
  71.5721054 150.4074097   5.2574792  71.7464752 149.7477112   6.8008008
  71.0767899 148.2924194   5.4763241  70.8382797 147.8801117   4.1686234
  70.9064331 146.5481262   4.2879796  70.8004227 145.8591766   3.4630513
  70.9023285 146.1540375   5.5727854  71.0627594 145.2128601   5.9022360
  71.0328064 147.2424469   6.3726606  71.2199631 147.3054199   7.4344554
  69.7665176 151.6503296   7.0809588  70.4073792 151.7515717   8.1636667
  69.1324844 152.6511383   6.5409327  68.6614609 152.5098877   5.6587286
  69.0856552 154.0251617   7.1234159  70.0491714 154.3559418   7.5111265
  68.8133774 155.0831604   6.0667644  67.8721924 154.8262787   5.5806847
  68.7347870 156.5359192   6.5529475  69.7266083 156.8632660   6.8647542
  68.5588455 157.2698517   5.7665148  68.0711136 156.7686157   7.3857064
  69.9195023 155.0045013   5.0526567  70.0470428 154.0798340   4.4897895
  69.7599411 155.7868500   4.3106551  70.8216476 155.2215271   5.6246219
  67.9783478 154.1531677   8.3104773  66.8599243 154.6416473   8.1138067
  68.4062729 153.7134247   9.4944897  69.2875519 153.2203217   9.4771976
  67.4734955 153.5183716  10.6553574  66.4421158 153.3574677  10.3415699
  67.7736511 152.2466736  11.4521799  68.6796036 152.4680939  12.0163813
  66.9945602 151.9669647  12.1613216  68.0966873 151.0948944  10.6024570
  67.4977036 151.1144562   9.6920013  69.1599197 151.0981140  10.3623962
  67.6597061 149.5881500  11.3696661  69.0209885 148.5728149  10.7307434
  69.9680939 149.0060272  11.0523405  68.9336624 147.5675201  11.1428699
  69.1351395 148.5631714   9.6467791  67.3594437 154.7705841  11.4967022
  66.4214630 154.7950897  12.3485584  68.2973557 155.7369232  11.4037609
  68.8221359 155.8082886  10.5437498  68.1613541 157.0720825  12.1782112
  68.0897217 156.7570038  13.2192192  69.4150620 157.9923706  12.1112337
  69.2097092 158.8551025  12.7449579  70.6065903 157.2747498  12.7600336
  70.7567596 156.2856293  12.3273649  71.5874176 157.7495575  12.7348423
  70.4048309 157.0910187  13.8153257  69.8483658 158.3761292  10.6571369
  69.0094757 158.8270721  10.1270256  70.6193771 159.1438904  10.5925617
  70.2147751 157.4844513  10.1484537  66.9304276 157.9091034  11.8403549
  66.4249649 157.7703400  10.7345619  66.4510574 158.7697601  12.7111015
  66.7754288 158.8169403  13.6664324  65.4272385 159.7146149  12.3874664
  64.7606659 159.2968903  11.6329508  64.5137405 159.9931030  13.5675478
  64.2938004 158.9970703  13.9518003  65.0327072 160.6470490  14.2683477
  63.2236023 160.6385345  13.0701818  63.3106270 161.5622406  12.4980907
  62.8035088 159.9026947  12.3844929  61.9952850 160.8722229  14.3438358
  62.2558060 159.4019775  15.4673405  63.2061653 159.4063721  16.0011005
  61.4107246 159.3750305  16.1552467  62.2517357 158.4975281  14.8590231
  65.9218597 161.0772400  11.8076410  66.3705215 161.9980927  12.5546007
  66.0473022 161.1797638  10.4923382  65.9711914 160.3626862   9.9035311
  66.3472519 162.4460297   9.8606768  67.3301010 162.7909241  10.1818371
  66.4486084 162.1958771   8.3436852  67.1609268 161.3986969   8.1310511
  65.5041809 161.7741852   7.9996715  66.6489334 163.4317780   7.5481935
  66.0205002 164.2823486   7.8121696  68.1613617 163.8620911   7.5281415
  68.7634888 163.0049744   7.2266545  68.3485336 164.6330872   6.7807369
  68.5268402 164.1746368   8.5063210  66.2804642 163.1028900   6.0715237
  65.2220612 162.8425903   6.0602932  66.6755219 163.8890686   5.4281349
  66.8404541 162.1954651   5.8454566  65.2141800 163.4503937  10.1780138
  64.0100327 163.0894470  10.1993456  65.5085754 164.7169800  10.3943720
  66.5033035 164.8648682  10.3008823  64.6088715 165.9004669  10.3716869
  63.5582428 165.6255493  10.2783680  64.6950073 166.6189728  11.7539253
  65.7436676 166.8297119  11.9636803  63.9794998 167.9698181  11.8705111
  62.9171295 167.7494202  11.9749374  64.3938370 168.4426117  12.7609539
  64.1086960 168.6443329  11.0240841  64.2062607 165.7259216  12.8798800
  64.8291550 164.8371582  12.7789450  64.4464951 166.1434479  13.8576660
  62.7769623 165.2354126  12.9294300  62.5452690 164.7353058  11.9890604
  62.5773430 164.5039215  13.7124834  62.1323891 166.0861053  13.1506834
  64.8603058 166.8928986   9.1890726  66.0498352 166.8900452   8.7581530
  63.8738823 167.5710297   8.5775843  62.4199142 167.4457703   8.7092896
  62.0836601 167.8680725   9.6562252  62.0446167 166.4271240   8.6112146
  61.8608932 168.3435822   7.6093211  60.9879608 168.8708801   7.9941025
  61.5766792 167.6927643   6.7824221  62.8965683 169.4174347   7.2799277
  62.7416344 170.2510376   7.9649100  62.8714104 169.7006836   6.2276745
  64.2265472 168.6475830   7.5734978  64.5081787 168.0652313   6.6962047
  65.3507080 169.5093536   8.0124102  65.6769104 169.6118927   9.1737337
  66.0863419 170.1334534   7.0934486  65.8328934 170.1428833   6.1158109
  67.2644348 171.0064697   7.3533959  67.4646149 171.6053772   6.4649549
  67.0304413 171.6388702   8.2097931  68.5835953 170.2580719   7.6817675
  69.6391525 170.7346802   7.3118243  68.4602280 169.1049347   8.3470249
  67.5166626 168.7953491   8.5312424  69.6122665 168.2823029   8.7648020
  70.3149948 168.8879395   9.3370609  69.0061111 167.1345825   9.6940947
  68.3493729 167.5812683  10.4406013  68.4883499 166.3910980   9.0880823
  70.0842209 166.3460388  10.4404335  70.6337280 165.7462616   9.7148914
  70.8066559 166.9722748  10.9639091  69.5410538 165.3227539  11.4473400
  68.4302292 164.8750153  11.4727678  70.4291000 164.8495178  12.2815037
  70.1431503 164.0820312  12.8725138  71.4101028 165.0187988  12.1109972
  70.3081665 167.7323456   7.5354991  69.6263885 167.2723083   6.6146879
  71.5946198 167.6436768   7.5290723  72.1153946 168.0229645   8.3069105
  72.3922043 166.9069519   6.4808464  71.9081802 167.0666199   5.5173454
  73.7343674 167.6037750   6.3245554  74.2314377 167.5257111   7.2914739
  74.6522675 167.0781097   5.1923027  74.0983963 167.1477203   4.2560973
  75.4891281 167.7696228   5.0945010  75.1005859 166.0904846   5.3005958
  73.5230408 168.9681091   6.0278893  73.5501251 169.4209595   6.8739338
  72.5234985 165.3499451   6.8241220  72.6988907 164.9686890   7.9855618
  72.6341324 164.4319000   5.8065147  72.4056396 164.8251190   4.9047036
  72.7344360 162.9866791   5.8815708  72.8944092 162.7684784   6.9374599
  71.3072357 162.4640961   5.5275006  70.5953217 162.9373169   6.2037764
  71.1791763 162.7450714   4.4821486  71.1775742 160.9084320   5.6568332
  71.9489670 160.3347778   5.1430478  71.1828384 160.4044800   7.0938888
  70.4105377 160.9003906   7.6818910  71.2146988 159.3182220   7.1781578
  72.1460419 160.6588898   7.5361586  69.8785095 160.5405579   5.0926948
  69.9644928 160.7191925   4.0208731  69.7026138 159.4993286   5.3629045
  69.0013428 161.1201019   5.3804526  73.8787918 162.5702820   4.8492861
  73.5422821 162.3916626   3.6684330  75.0733795 162.3811188   5.2962165
  75.4774628 162.7164154   6.6579857  74.9547729 162.1494904   7.4283762
  75.2430038 163.7777252   6.7401853  76.9934464 162.3445740   6.7585969
  76.9994888 161.3808594   7.2678313  77.6019516 163.0415649   7.3348136
  77.4679642 162.2440186   5.3301520  78.2956161 161.5367279   5.2769942
  77.7975998 163.2257385   4.9900312  76.1699066 161.7863617   4.6417174
  76.2031174 162.0250702   3.5786946  75.9593735 160.2781219   4.7063179
  75.6557541 159.7514648   5.7646418  76.0678482 159.5452271   3.5946877
  76.2177734 160.0413971   2.7278354  75.9168396 158.0326691   3.5036824
  75.8743134 157.6347351   4.5175557  74.5456009 157.5192108   2.9260287
  74.4973373 157.7199097   1.8557533  74.5276413 156.4298859   2.9600036
  73.2899551 157.9923401   3.6165662  73.2583542 159.0817261   3.5981803
  72.0987320 157.4593048   2.8625402  72.0077209 156.3746643   2.9206460
  71.2679749 158.0133667   3.2995198  72.1501236 157.7222748   1.8059876
  73.2287827 157.3556824   5.0281882  73.9626770 157.8070984   5.6958160
  72.2444077 157.5127258   5.4691429  73.5231705 156.3081970   4.9632292
  77.0753326 157.4912262   2.6523945  77.3183899 158.0018616   1.5949012
  77.6981049 156.3153229   3.0403693  77.3608093 155.9434814   3.9167609
  78.5367661 155.4236145   2.2695425  78.7634811 155.7714844   1.2617282
  79.9301758 155.2811737   2.9477477  80.3916168 156.2684326   2.9257116
  79.8120804 155.0355835   4.0031357  80.8869247 154.3020477   2.2593532
  80.4418869 153.3136597   2.1447961  81.0548096 154.6140289   1.2285358
  82.3002548 154.1834259   2.8513901  82.5891418 154.8418427   3.8484550
  83.2219467 153.4036102   2.3123221  84.0518265 153.3165436   2.8813725
  83.0418243 152.9263763   1.4405899  77.8239594 154.0441284   2.1234295
  77.5982895 153.3806915   3.1315792  77.3749847 153.5914001   0.9515271
  77.6133041 154.1194916   0.1242291  76.5089340 152.4629974   0.7728580
  76.2367630 152.0140686   1.7281023  75.2518387 152.9664459   0.0263410
  75.6061478 153.3383179  -0.9350516  74.5872955 152.1192474  -0.1431622
  74.4353027 154.0637970   0.6899039  75.1224823 154.8664246   0.9575917
  73.3817596 154.7092590  -0.1462301  72.6199036 153.9978943  -0.4650479
  72.9164581 155.4586487   0.4940834  73.9035721 155.0569916  -1.0377970
  73.7942123 153.5626831   1.9406449  74.4872208 153.4655151   2.7763462
  73.1070633 154.2829132   2.3846982  73.3563004 152.5760193   1.7894579
  77.1483688 151.4189758  -0.1636596  77.5460968 151.6597137  -1.3182331
  77.1830750 150.1826630   0.3591386  76.9010239 150.1358795   1.3278284
  77.9902267 149.1155090  -0.2434005  78.4800110 149.4186096  -1.1687860
  79.2025681 148.8647614   0.5982083  79.7857971 148.0660095   0.1400132
  79.8736420 149.7199860   0.5185303  79.0025711 148.3636627   2.0352459
  78.5157547 149.2372284   3.0563204  78.5007324 150.3013000   2.8721144
  78.2760239 148.8103638   4.3615060  77.8548965 149.5530701   5.0229092
  78.4856796 147.4659729   4.7107844  78.2773514 147.0599213   5.6896195
  78.8919601 146.5424042   3.7006900  78.9245453 145.4969788   3.9698257
  79.1469955 146.9922791   2.4251621  79.3841705 146.2959137   1.6344485
  77.1628418 147.8459930  -0.6038249  77.6238098 147.0919495  -1.4851276
  75.9961700 147.5825043  -0.0530696  75.6304932 148.2041168   0.6540233
  75.1532440 146.4825287  -0.4960733  75.7370453 145.5642090  -0.5591025
  74.0060272 146.2290344   0.4709016  73.4352798 147.1535645   0.5580350
  73.4379196 145.3816376   0.0871314  74.5148544 145.8800964   1.8664562
  74.9742432 144.6232452   2.2908199  75.2568741 144.7541351   3.5924342
  75.6880951 144.0020905   4.2365317  75.0983276 146.0543976   3.9051497
  75.1819305 146.4707642   4.8215265  74.5103302 146.7207947   2.8821497
  73.9306564 147.6276855   2.9710662  74.5880356 146.8290710  -1.9422777
  74.1524277 147.9629059  -2.1877465  74.4628448 145.7963562  -2.8580685
  74.8217163 144.3484039  -2.7090240  74.2512360 143.9693756  -1.8610909
  75.8861465 144.1562500  -2.5742381  74.3683701 143.6445618  -4.0032344
  73.3366165 143.3441010  -3.8207445  75.0453033 142.8307953  -4.2632904
  74.4631348 144.7561798  -5.1022468  73.8673248 144.5955658  -6.0007524
  75.5091553 144.8523712  -5.3932509  74.1805496 146.0502319  -4.3426208
  74.8999252 146.7361908  -4.7898998  72.8131638 146.6133423  -4.6659837
  72.6919479 147.4350128  -5.5747638  71.8171844 146.1145782  -3.9365025
  71.9483185 145.3654022  -3.2719409  70.4685745 146.6395416  -4.0615630
  70.0827713 146.5728149  -5.0788183  69.4471359 145.8836060  -3.1656704
  68.4972000 146.3615112  -3.4051304  69.3910141 144.8618622  -3.5411632
  69.5251465 145.8575439  -1.6253123  69.6218262 146.8716736  -1.2376356
  68.5652237 145.5299530  -1.2261546  70.5685883 144.8906708  -1.0570761
  71.6580734 144.7289429  -1.5972770  70.3422852 144.2920380   0.1220135
  71.1205902 143.8212585   0.5610078  69.4009247 144.2872467   0.4879652
  70.4453583 148.1446075  -3.7420166  69.6944351 148.9584656  -4.3247313
  71.1934891 148.6337280  -2.7005057  71.8873749 148.0936432  -2.2035789
  71.1906433 150.0512085  -2.3365576  70.1851120 150.4711761  -2.3113027
  71.9010773 150.3339539  -0.9804446  72.9544907 150.0561218  -0.9452702
  71.9990311 151.4016418  -0.7841445  71.1273499 149.5876007   0.1197700
  70.0681152 149.8020782  -0.0220560  71.3674164 148.5248108   0.0887989
  71.5925522 150.1216125   1.5032040  72.8043365 149.9198303   1.8322605
  70.7003326 150.6042938   2.2376242  71.9416580 150.9077301  -3.3691006
  71.5033798 151.9278564  -3.8341737  73.0918808 150.3964386  -3.7896919
  73.5001221 149.6022644  -3.3177426  73.8366089 151.0114746  -4.8784389
  74.1353683 152.0112305  -4.5632405  75.0806732 150.2354431  -5.2551970
  74.8632126 149.1904755  -5.4763145  75.7793198 150.9047394  -6.4444056
  76.0775909 151.9049377  -6.1301847  76.6098938 150.2311859  -6.6555409
  75.1512451 150.8841858  -7.3350210  76.0272141 150.2903442  -4.0688124
  75.5098190 150.1287842  -3.1231387  76.7675400 149.4915466  -4.0246434
  76.4265976 151.2902222  -3.8990109  72.9336243 151.1056061  -6.0757923
  72.8321304 152.1349030  -6.7485404  72.2635498 149.9838104  -6.4706078
  72.4544601 149.1147156  -5.9927654  71.3497543 149.9546051  -7.6134591
  71.9007797 150.1182404  -8.5395765  70.7486954 148.5487213  -7.7246814
  71.4786453 147.7393188  -7.7365532  70.1410294 148.3586578  -6.8399682
  70.0603104 148.3713074  -8.9464560  69.5536804 147.5559235  -8.9392977
  70.2366028 150.9583588  -7.5691342  69.9679718 151.6702576  -8.5159330
  69.6195221 151.1263580  -6.3954506  69.8985214 150.5977631  -5.5813031
  68.5823517 152.1063232  -6.1336141  67.7525711 152.0332031  -6.8366218
  67.9246750 152.0120392  -4.7216568  67.7132111 150.9572296  -4.5462961
  68.6523895 152.3301239  -3.9750943  66.5117340 152.6455994  -4.5491505
  65.9079895 152.3199463  -5.3962269  66.1660614 152.2397766  -3.5984061
  66.3446579 154.4263306  -4.4010849  67.2320786 154.6633606  -2.8801036
  68.1132736 154.0235138  -2.8332329  67.5087738 155.7143555  -2.7966893
  66.6613541 154.4003448  -1.9894886  69.0035400 153.5137024  -6.3142700
  68.3146133 154.2719879  -7.0528698  70.0777435 153.8989563  -5.6699586
  70.5434647 153.2134857  -5.0926094  70.4983597 155.2958221  -5.8513103
  69.6153030 155.9054108  -5.6596875  71.5680466 155.6655426  -4.8246899
  71.7494736 156.7383728  -4.8894253  71.2162704 155.4017639  -3.3552103
  71.4096832 154.3739319  -3.0482171  71.6767731 156.1743011  -2.7394075
  70.1368484 155.5368958  -3.2867522  72.9846344 155.0164642  -4.9114294
  73.4741058 155.1812897  -5.8713012  73.6412582 155.4969177  -4.1860933
  73.0097504 153.9322052  -4.8025393  70.9445114 155.6320801  -7.2479753
  70.6234512 156.7419891  -7.6868882  71.5720444 154.7001953  -7.9159780
  71.6472931 153.7970886  -7.4700522  72.0407104 154.8653107  -9.3611698
  72.8144608 155.6274109  -9.4539509  72.8429794 153.5853882  -9.7919550
  73.5995407 153.4177399  -9.0253963  72.1241455 152.7663269  -9.7685432
  73.5335464 153.7433014 -11.1485491  72.7977905 153.8720856 -11.9423847
  74.1970215 154.6074371 -11.1824999  74.2069550 152.4563751 -11.4953547
  73.4365692 151.6866913 -11.5421572  74.6782532 152.4149475 -12.4773216
  75.3761444 152.1910706 -10.6130018  75.8314896 153.0089569 -10.2337685
  75.9366684 151.0820923 -10.2846060  75.4929886 149.9189301 -10.7015781
  74.5615845 149.8533936 -11.0866642  76.1396866 149.1810150 -10.4620514
  77.0313339 151.0086365  -9.6072569  77.4766998 151.8185883  -9.2001667
  77.3792343 150.0605316  -9.6204586  70.8856125 155.1657410 -10.3328400
  70.9539185 156.0971680 -11.1192837  69.7622528 154.4912262 -10.1745625
  69.6644974 153.7983704  -9.4462023  68.6580734 154.6396027 -11.0933857
  68.9869308 154.8023987 -12.1197615  67.8524246 153.2608948 -11.0997295
  67.6135254 152.9191132 -10.0926456  66.8969727 153.3466187 -11.6172819
  68.7641373 152.2283630 -11.7962332  69.3182220 152.4802856 -12.8353453
  69.1434555 151.1349335 -11.1633348  69.8736496 150.6321564 -11.6472197
  68.8961182 151.0672455 -10.1864290  67.6792679 155.7640228 -10.7785282
  66.9365616 156.1973267 -11.6481800  67.7480545 156.2911530  -9.5577040
  68.3768463 155.7965088  -8.9412174  66.9873657 157.4322815  -8.9917459
  66.0142212 157.5519562  -9.4679489  66.9197083 157.1354370  -7.4889946
  66.2925644 156.2951965  -7.1910520  67.9138947 156.9243011  -7.0951524
  66.3854904 158.3631134  -6.6611557  67.0791473 159.2021637  -6.7153397
  65.0028763 158.7734222  -7.1686411  64.4502792 157.8565063  -7.3735456
  64.3945312 159.2158508  -6.3797960  65.0918808 159.4338684  -8.0311899
  66.3469620 157.9769897  -5.1618457  67.3347626 157.8027954  -4.7352242
  65.9805984 158.8339233  -4.5965662  65.7127838 157.1069031  -4.9918990
  67.7828903 158.7320099  -9.3202353  67.1476288 159.7961884  -9.5830622
  69.1090698 158.6624146  -9.3866730  69.5653839 157.8076324  -9.1016760
  69.9780884 159.7905426  -9.6339550  69.6281433 160.5808716  -8.9698648
  71.4909592 159.4681396  -9.3836775  71.5250931 158.5983734  -8.7275906
  72.4069214 159.0217133 -10.5932016  72.4952545 159.8477325 -11.2988701
  73.3810806 158.8173523 -10.1489620  71.9430084 158.2574768 -11.2167711
  72.2036285 160.6036835  -8.5588446  73.2728195 160.4250793  -8.6729746
  71.9896469 161.5543365  -9.0472803  71.8707886 160.6739044  -7.0809765
  71.8810730 159.6837158  -6.6254430  72.6422882 161.3271637  -6.6733718
  70.9418259 161.2252655  -6.9356232  69.7442627 160.3323669 -11.0604277
  69.6137009 161.5173187 -11.3274002  69.4849091 159.4504089 -11.9979382
  69.6077957 158.4852905 -11.7267218  68.9952164 159.7155762 -13.3555584
  69.5874710 160.5806427 -13.6538677  69.2597733 158.4974518 -14.2987270
  69.3881378 157.6178741 -13.6678858  68.3679962 158.2541809 -14.8763628
  70.4614487 158.7437134 -15.1885920  70.6622391 157.7855530 -15.6678772
  70.1907578 159.5042725 -15.9209747  71.7475967 159.1261597 -14.4372568
  72.0358353 160.3276520 -14.2133074  72.4701004 158.1374969 -13.9807863
  73.1334839 158.3088837 -13.2387285  72.3790970 157.1941833 -14.3300476
  67.5870438 160.3902283 -13.4608402  67.2021713 160.9810638 -14.5120134
  66.8665619 160.4143372 -12.3468933  67.3689346 160.0779114 -11.5378561
  65.5335236 161.0753479 -12.1218824  65.4759903 161.8540497 -12.8824100
  64.3416214 160.1165771 -12.4534492  63.3769455 160.6179352 -12.3750792
  64.4562225 159.7988892 -13.4898081  64.3676834 158.8443756 -11.5817833
  65.1688843 158.2094269 -11.9599504  64.5770874 159.2323914 -10.5849323
  63.0697365 158.1182404 -11.7590046  62.9793091 157.2775726 -11.0711040
  62.2863235 158.8612671 -11.6097603  62.9541054 157.4089203 -13.1686001
  62.8864708 158.1889038 -13.9269772  63.8460083 156.7865295 -13.2409649
  61.7530823 156.5547791 -13.2722073  60.9237823 157.1286926 -13.3268881
  61.8894005 155.9761505 -14.0887251  61.6733284 155.9488068 -12.4681349
  65.5964966 161.8676605 -10.8085060  66.4291763 162.7339325 -10.6443558
  64.5332794 161.6863708  -9.9913836  63.9588699 160.8817291 -10.1980162
  64.0920563 162.6399231  -8.9792252  63.9640312 163.6324921  -9.4111118
  62.7391663 162.1484833  -8.4261341  62.2705803 161.3130646  -8.9463148
  62.8809471 161.8104706  -7.3996153  61.5929451 163.1770325  -8.5030203
  61.7845764 164.3549805  -8.8944387  60.4362488 162.8920746  -8.1620207
  64.9780579 162.8354950  -7.8008165  64.8022537 163.8701782  -7.1945438
  65.9448700 161.9953003  -7.5194926  65.9880981 161.2285767  -8.1755180
  66.9825287 162.1066132  -6.3860369  67.5454941 161.1733704  -6.3715296
  67.9584503 163.3341522  -6.6107879  67.2674026 164.1592255  -6.4381065
  68.6485977 163.3923340  -5.7691202  68.5979309 163.4560242  -7.9292135
  69.2570038 162.5908813  -8.0016737  67.9483719 163.4104462  -8.8033438
  69.5293808 164.6097107  -8.0987568  70.2256699 164.7336273  -7.2693396
  70.0621033 164.5219727  -9.0456505  68.6577225 165.8456421  -8.1711464
  68.1912231 166.0013733  -9.0533209  68.5677567 166.8471527  -7.2988214
  69.1965179 166.9499512  -6.1821766  69.8590164 166.2474060  -5.8861403
  68.9687881 167.7054901  -5.5517817  67.6225281 167.7182312  -7.5424566
  66.9373550 167.6588287  -8.2821198  67.5056534 168.5132446  -6.9305778
  66.4664688 162.2083282  -4.9280791  67.2736053 162.2887726  -3.9645293
  65.1507721 162.2721558  -4.6900759  64.5433273 162.2251434  -5.4956241
  64.4424057 162.2328033  -3.3961396  65.0375366 162.7320557  -2.6315005
  63.1767807 163.0288391  -3.3982387  62.5286751 162.4546509  -2.7361588
  63.3659744 164.5340271  -3.1248660  63.9878235 164.9858551  -3.8977001
  62.3804436 164.9977417  -3.1673243  63.7512703 164.7290192  -2.1240518
  62.5394249 162.9491425  -4.6481075  61.6593666 163.3326111  -4.6554103
  64.2728043 160.7617340  -3.0684981  63.5081940 160.0480194  -3.6913364
  64.8712616 160.3793793  -1.9205108  65.6399765 160.9442139  -1.5886532
  64.5770569 159.1632233  -1.2215840  63.8915977 158.6021881  -1.8567853
  65.8844604 158.3454285  -1.1715775  65.7060089 157.2961273  -0.9365568
  66.3385010 158.3467255  -2.1625094  66.9895706 158.7922516  -0.2480284
  67.9752197 159.7022858  -0.6363714  67.7697830 160.0699615  -1.6308644
  68.9960938 160.0819855   0.1813627  69.7817154 160.7444305  -0.1508644
  69.1548767 159.4710388   1.4330235  69.9747162 159.7221985   2.0896735
  68.1408463 158.6057129   1.9349322  68.2472076 158.1635742   2.9145217
  67.0587006 158.2815247   1.0836877  66.3371887 157.5941010   1.4999229
  64.0209656 159.4409943   0.1465181  64.0837326 160.5425873   0.6930861
  63.3125954 158.3995972   0.6710168  63.3820114 157.4748993   0.2707325
  62.6116219 158.5917511   1.9338573  62.6229477 159.6411438   2.2283914
  61.1446991 158.0607605   1.8783613  61.0787964 157.1961517   1.2178875
  60.7479668 157.8629303   2.8741393  60.5688591 158.8953552   1.4784275
  63.4827576 157.9907990   3.0459278  64.0715103 156.8984680   2.8861310
  63.5235825 158.7086639   4.1371241  63.1308746 159.6388855   4.1607995
  63.9649277 158.2626648   5.4730463  64.2984772 157.2285004   5.3872743
  65.2612991 159.0530396   5.9116220  65.0596848 160.1148529   5.7701182
  65.6546021 158.6716614   7.3735414  65.8823242 157.6119995   7.4891291
  66.5929489 159.1611633   7.6343107  64.9023819 158.9655914   8.1055746
  66.3812485 158.6520996   5.0086079  66.2007446 158.9812622   3.9852920
  67.2959213 159.1154175   5.3785000  66.4739609 157.5668640   5.0504971
  62.8215637 158.3082123   6.5557961  61.9555397 159.1609802   6.5482960
  62.6831207 157.2072449   7.3384514  63.4484825 156.5483398   7.3249664
  61.4643974 157.0265961   8.2268724  60.6360092 157.6737366   7.9386206
  60.9665260 155.5739899   8.0297356  61.8523064 154.9587860   7.8715925
  60.4001007 155.1565857   8.8622179  60.0967827 155.3459930   6.7991071
  60.5780411 155.7441406   5.9058151  59.8532333 153.8758087   6.5418458
  59.2756119 153.3246460   7.2839131  59.3520737 153.8208618   5.5754519
  60.7907066 153.3711243   6.3082914  58.6761665 156.0200348   6.8630414
  58.7519188 157.0409698   7.2372751  58.2727661 155.9130859   5.8560987
  58.0354462 155.4544830   7.5395961  61.7193909 157.3292542   9.7096310
  62.8664246 157.1951599  10.1558189  60.6623993 157.6677551  10.4472332
  59.7518425 157.8726654  10.0612307  60.7050362 157.7874756  11.8708611
  61.7333832 157.9883728  12.1712513  59.8473129 158.9380798  12.3844185
  58.8071022 158.7617188  12.1106491  59.8473663 158.8780365  13.4727640
  60.1830482 159.9037170  12.0063896  60.2502480 156.4250336  12.4108782
  59.0581093 156.2257233  12.5596552  61.1468315 155.4430237  12.6052723
  62.1117783 155.6101227  12.3581820  60.6917763 154.1079865  13.0832415
  59.8883362 153.7816925  12.4228392  61.7762680 153.0713196  12.9135876
  62.6412354 153.3695068  13.5060549  61.3815575 152.1454315  13.3319769
  62.2375908 152.8400269  11.5290375  61.3880043 152.1887970  10.5763969
  60.4696655 151.7225647  10.9014778  61.7429123 152.0629883   9.2353258
  61.0086937 151.6141663   8.5827398  62.9511986 152.6493988   8.8107710
  63.2227325 152.5804443   7.4481597  62.7129707 151.9193878   6.9740901
  63.7915535 153.3568268   9.7343254  64.7386780 153.7579193   9.4049444
  63.4123116 153.4712830  11.0801382  64.0570602 154.0138702  11.7556343
  60.2326164 154.0632477  14.5236387  61.0711098 153.9720764  15.4323034
  58.9047699 154.0404205  14.7682819  58.3213387 153.8834839  13.9589071
  58.2116776 153.9756470  16.0432377  58.6223183 154.6722412  16.7741489
  56.7806549 154.4370728  15.8848991  56.1796532 154.3232727  16.7870865
  56.7090988 155.5021515  15.6644745  56.1625938 153.7807922  14.6858549
  55.2047501 153.7497864  14.7421989  58.2574921 152.5384521  16.7373657
  58.0096550 152.4543610  17.9502831  58.6777611 151.4881592  16.0384636
  58.7687187 151.6385345  15.0438709  59.3069153 150.2496185  16.5015335
  59.8578987 150.4479218  17.4208813  58.2459831 149.2546692  16.9675045
  57.6629105 149.7083130  17.7689648  57.5889816 148.9408112  16.1563702
  58.7247887 147.9432983  17.4810123  59.8156090 147.4474030  17.1764851
  57.9834442 147.3183136  18.3445835  58.3835487 146.4670410  18.7124710
  57.1516190 147.7367401  18.7358570  60.2959976 149.7572174  15.4422998
  59.8525925 149.2113495  14.4286814  61.5846710 149.7966309  15.7510633
  61.8108025 150.2161865  16.6415291  62.6293488 149.5122375  14.7695007
  62.3736801 149.8485870  13.7647095  63.9331894 150.2409515  15.0939732
  63.6502991 151.2894592  15.1873188  64.5426636 149.7874603  16.4286175
  64.8340530 148.7387238  16.4865513  65.4080963 150.3954773  16.6921444
  63.8774986 149.9993286  17.2657318  65.0851364 150.0818329  14.1093817
  64.7470016 150.3514404  13.1088457  65.8926086 150.7704010  14.3582945
  65.4421082 149.0572052  14.0054064  62.8550797 147.9959259  14.7217169
  63.2973747 147.5400085  13.6587496  62.4542694 147.1991577  15.7457733
  61.9776955 147.6957092  16.4849663  62.4989433 145.7164459  15.7167740
  63.4197998 145.3242950  15.2851019  62.4092941 145.1191254  17.1494045
  62.9285393 145.7882233  17.8355408  61.3758621 145.0650635  17.4917412
  62.9959602 143.7089081  17.2084236  62.4145164 143.1078644  16.5093098
  64.0544662 143.7946167  16.9628220  62.7739487 143.1465302  18.6032028
  63.1573486 143.8429718  19.3489056  61.6890907 143.0703888  18.6765919
  63.3630676 141.8086700  18.8200645  64.3201752 141.7766266  19.1410408
  62.8868561 140.6341400  18.3653698  61.9084015 140.5587921  17.5380344
  61.6630859 141.3566437  16.9694138  61.5853920 139.6702118  17.1827850
  63.3755188 139.5097656  18.8087044  64.1744537 139.5750885  19.4231472
  62.9273911 138.6306763  18.5931396  61.3554115 145.1072693  14.8347378
  61.5965118 144.0958099  14.1587400  60.1836319 145.7415771  14.8086271
  59.9897537 146.3973083  15.5519543  59.0775871 145.3495636  13.9181538
  59.4279480 144.4098511  13.4911852  57.7578163 145.1858826  14.6561728
  57.5822144 146.2063599  14.9966230  56.9892273 144.9525757  13.9193277
  57.7192230 144.1831665  15.8386660  58.3241119 144.6212769  16.6325645
  56.7225647 144.0456238  16.2580090  58.2527771 142.7850037  15.4231577
  57.8001137 142.1807404  14.3812370  59.1605759 142.2304382  16.0901451
  58.9280510 146.2943878  12.7059765  58.1260796 146.0400391  11.8306274
  59.8129463 147.2587585  12.4980040  60.4877052 147.4777679  13.2169189
  59.8760681 148.1551056  11.3514862  60.5181465 149.0099335  11.5638618
  60.3832054 147.3857117  10.1301184  59.5962639 146.7447357   9.7326756
  60.6624336 148.0848236   9.3418407  61.5596771 146.4848785  10.2955456
  62.0610847 146.6486359  11.2494173  61.1951942 145.4594116  10.3562307
  62.6736717 146.5189362   9.2242880  63.3355408 145.6583862   9.3216553
  62.1094780 146.4911957   8.2920771  63.4284401 147.7603760   9.3849773
  63.6396217 147.9846954  10.3468437  64.0343399 148.4394379   8.4402637
  64.0824585 147.9395752   7.2521777  63.5608673 147.0813446   7.1450481
  64.3139191 148.5039825   6.4472113  64.7536545 149.5590515   8.6835680
  64.8100891 149.9986725   9.5911160  65.3709030 149.8838806   7.9531012
  58.5212135 148.9125214  11.1418600  58.0671539 149.1691895  10.0389643
  57.8437386 149.1863556  12.1954584  58.3016434 148.9671936  13.0686092
  56.7234001 150.0513458  12.2725420  56.0105667 149.8374329  11.4761658
  55.8527832 149.9341431  13.5543776  56.4050026 150.2898865  14.4242086
  55.0010719 150.5975494  13.4040871  55.4147682 148.5121002  13.8678417
  55.2977638 147.9419708  12.9462357  56.1609726 147.9750366  14.4533777
  54.0914841 148.4610443  14.6190701  54.0220833 148.5780334  15.8754864
  53.0436249 148.4169159  13.9306402  57.2226143 151.4875488  12.1618347
  58.1757660 151.8926697  12.8457947  56.6027756 152.2087708  11.2607822
  55.7800484 151.8940582  10.7666416  56.8329544 153.6662445  11.0686636
  57.1378632 154.1342468  12.0046682  57.9904289 153.8681335  10.0907478
  57.7582207 153.4142609   9.1273308  58.2115822 154.9237213   9.9329252
  58.9082832 153.4451904  10.4991236  55.5812836 154.3632050  10.5459213
  54.9755020 153.7355652   9.6927977  55.3149872 155.5426483  11.0832758
  55.9288673 155.8984833  11.8020468  54.0669212 156.2486877  10.7077446
  53.4134712 155.5677490  10.1623726  53.3539200 156.5486603  11.9954338
  54.0490799 157.0433960  12.6737328  52.4323196 157.0957031  11.7966967
  52.8704262 155.2945557  12.6886892  52.1023941 154.2752533  12.1463499
  51.9132195 153.2927246  13.0338497  51.3689919 152.3735657  12.8745804
  52.4195824 153.7566376  14.1964550  52.5362434 153.2498016  15.0622492
  52.9883347 154.9859009  13.9775953  53.4708672 155.6204224  14.7062473
  54.3134346 157.5628204   9.9318867  53.4456253 158.0908813   9.2251806
  55.4505424 158.2135010  10.1748238  56.1112061 157.8998260  10.8714056
  55.9300957 159.5117493   9.5590677  55.3577995 159.7174835   8.6544952
  55.7118225 160.7437439  10.4639730  56.3847313 160.7218933  11.3211908
  55.8512154 161.6528625   9.8790121  54.2928772 160.8292694  11.0695915
  53.2628250 161.5062256  10.3558264  53.4799728 162.0452423   9.4454947
  51.9560432 161.4804077  10.8375759  51.2108383 162.1018372  10.3633490
  51.6313553 160.8699951  12.0930386  50.6034698 160.8572235  12.4242325
  52.6381721 160.1982880  12.7823915  52.4393921 159.7683563  13.7529831
  53.9345894 160.1735382  12.2549410  54.7232475 159.6665192  12.7909946
  57.4090462 159.5143433   9.0844860  58.1989250 158.6182709   9.4668074
  57.9418068 160.5871582   8.4169378  57.2606659 161.3049316   8.2145720
  59.3663673 160.7137604   8.0528984  59.9414024 160.6536865   8.9769230
  59.6205063 159.9288483   7.3405704  59.6983528 162.0601044   7.3704052
  58.9309425 162.9907074   7.3951592  60.7921982 161.9697876   6.6945610
  61.1363754 161.0203400   6.7080240  61.4806633 163.1006317   5.9933085
  60.7699699 163.9181061   5.8719311  62.5668640 163.7196503   6.8841858
  63.3022385 162.9248352   7.0091100  63.1675186 164.9387665   6.1815314
  62.4500122 165.7583618   6.1424046  63.9949837 165.3407288   6.7661858
  63.5619736 164.6510010   5.2070074  62.0107346 164.1739655   8.0923786
  62.1015663 163.5490265   8.8154306  62.0288315 162.6571045   4.6397514
  62.7541733 161.6624451   4.5030718  61.7284622 163.3745422   3.5052166
  61.0051651 164.0758667   3.5765774  62.2798195 163.1264343   2.1341410
  62.2752762 162.0498047   1.9640464  61.3945961 163.6561127   1.0168192
  61.8593636 163.5511932   0.0364703  60.0199585 163.0218353   0.9979095
  59.3921432 163.4833832   1.7600867  59.6647530 163.0164185  -0.0325804
  59.9682045 161.9494629   1.1861370  61.1533241 165.0647583   1.2077961
  61.9882164 165.5002594   1.0210065  63.6838799 163.7043457   2.0443254
  63.8860016 164.8755188   1.7531929  64.7079468 162.7988892   2.1632924
  64.4872055 161.8152771   2.2257166  66.0350876 163.1753235   1.7104459
  66.3192520 164.1032715   2.2066798  66.9714127 162.0633240   2.1930497
  66.6184311 161.1140594   1.7900325  67.9434967 162.3464355   1.7893139
  67.0782471 161.9946289   3.2756286  66.1906662 163.4034119   0.2097984
  66.0596695 162.4990845  -0.5481248  66.7412109 164.5824890  -0.2113308
  66.8126373 165.3918915   0.3885502  67.2646637 164.7215881  -1.6411191
  66.9256821 163.9262085  -2.3048699  66.7606430 166.0262146  -2.2416630
  65.7018890 166.1620483  -2.0210085  67.2068253 166.8615112  -1.7019500
  67.0116043 166.1428528  -3.7535944  68.0063324 165.7694855  -3.9969366
  66.3124695 165.4913788  -4.2779007  66.9098969 167.5697327  -4.2506142
  65.8181229 168.0028381  -4.7570367  67.9226227 168.3352051  -4.1033058
  68.7704697 164.6197357  -1.6547883  69.4659958 165.2080536  -0.8336730
  69.3301163 163.9629211  -2.6421573  68.6980057 163.4250946  -3.2177336
  70.8103409 163.8932953  -2.8120668  71.2775497 163.8233337  -1.8297553
  71.1903839 162.5505219  -3.5548086  70.6004562 162.6642303  -4.4642901
  72.6880951 162.5229187  -3.9257164  73.2582245 162.6415100  -3.0043151
  72.9798279 161.6357117  -4.4877105  72.9536896 163.3255463  -4.6137252
  70.8341751 161.2974548  -2.6841044  71.5933151 161.1141052  -1.9237117
  69.9158020 161.5644989  -2.1612487  70.6275864 160.0015564  -3.5228581
  71.4940186 159.7739868  -4.1438375  70.5397644 159.0671387  -2.9685533
  69.7768021 160.0783386  -4.1998835  71.3099899 165.1314545  -3.5136113
  70.9573898 165.3193970  -4.6889644  72.1366119 165.9630737  -2.8082826
  72.2469788 165.8101959  -1.8160384  72.7724457 167.1799316  -3.3421414
  72.1563187 167.4380035  -4.2034678  72.6362076 168.3633881  -2.3534892
  72.6562958 169.2823486  -2.9393251  71.6215591 168.3925171  -1.9563160
  73.5552597 168.4002228  -1.1547149  74.7525635 169.1203613  -1.1643057
  75.0894241 169.5062866  -2.1150894  75.5446396 169.2555847  -0.0471189
  76.4754028 169.8008575   0.0053041  75.0737228 168.6168518   1.1725386
  75.8000107 168.7609711   2.3294859  76.2636871 169.5971527   2.4155657
  73.8147430 168.0501862   1.2596351  73.4458542 167.7556763   2.2310271
  73.0118332 168.0185394   0.1147936  71.9817123 167.6963043   0.1524764
  74.2045593 166.9635468  -3.8585625  74.7601318 167.8516998  -4.5236597
  74.8310776 165.8580170  -3.4675605  74.2959366 165.2447968  -2.8694842
  76.1680298 165.4048615  -3.8833263  76.3938217 165.8522186  -4.8513098
  77.3169785 165.9682922  -2.9936471  77.5581741 165.2864380  -2.1781750
  78.2189865 166.0189514  -3.6034982  77.2120438 167.0045929  -2.6724560
  76.2621994 163.8443451  -3.9596109  75.6846771 163.1396332  -3.1448603
  77.0157089 163.3636932  -4.9957981  77.3551102 164.1192627  -5.5737357
  77.1510315 161.9749451  -5.3263984  77.0737228 161.4313660  -4.3847804
  75.8969345 161.5440521  -6.0901165  75.0177612 161.5393677  -5.4458094
  75.6822433 162.2486572  -6.8935738  75.8053818 160.2731476  -6.8863206
  75.0037231 159.1585999  -6.5330815  74.4954605 159.1272125  -5.5806708
  74.9976654 158.0051117  -7.3652487  74.2883682 157.2158356  -7.1643515
  75.6821671 157.9382782  -8.5647612  75.5051346 156.9512329  -9.5507364
  75.3264465 156.1197205  -9.1054745  76.5098953 159.0293579  -8.8784523
  77.1291656 159.0398407  -9.7632093  76.5459976 160.2252045  -8.0943813
  77.1331558 161.0656586  -8.4339046  78.4740295 161.5491638  -6.0161357
  79.0812912 162.4069366  -6.5752807  78.9369278 160.2942963  -5.7987556
  78.3579178 159.7862701  -5.1454821  80.1975708 159.6494904  -6.1927357
  80.3056870 159.9958496  -7.2205763  81.2325821 160.2304230  -5.2375131
  81.1601257 161.2982788  -5.0313115  81.1487961 159.6256409  -4.3345671
  82.6262207 160.0388489  -5.7214937  82.7026443 158.9580841  -5.8406181
  82.7072830 160.4889221  -6.7109232  83.7559128 160.5189819  -4.7103095
  83.2898865 161.3042755  -4.1151242  83.9924774 159.6985168  -4.0328422
  84.8468628 161.0579224  -5.4134498  84.7355042 161.9810028  -5.8079495
  85.9521484 160.4038696  -5.8476295  86.3872681 159.3112793  -5.3156261
  85.7803040 158.7518921  -4.7335625  87.2457504 158.9470062  -5.7034550
  86.7105865 160.9532928  -6.7124181  86.3581238 161.8026733  -7.1300364
  87.5666885 160.5135040  -7.0186596  80.2380371 158.0579071  -6.2361541
  79.8641052 157.4353943  -5.2343631  80.7276917 157.3968964  -7.2881675
  81.0375214 158.0436707  -7.9993510  80.8259888 155.9487762  -7.4979453
  80.3190842 155.4490967  -6.6724339  80.1492004 155.5396576  -8.7843904
  80.5124283 156.1560822  -9.6066895  80.4203568 154.4981537  -8.9571495
  78.6105118 155.5850525  -8.6130943  78.3816605 155.2046509  -7.6175928
  78.1745377 156.5768433  -8.7330046  77.8951035 154.6826935  -9.6545715
  76.9639893 153.9766235  -9.2167587  78.1588669 154.6231689 -10.9185886
  82.2710876 155.5186462  -7.4946671  83.0886230 156.1035767  -8.2745733
  82.6165619 154.4809875  -6.7620416  81.8866272 154.0669708  -6.1999974
  83.9165115 153.8112183  -6.7153726  84.5358047 154.1543274  -7.5441399
  84.7771835 154.2767792  -5.5239024  84.2056122 153.9761353  -4.6458244
  85.7568741 153.8290863  -5.3569551  85.0130615 155.7844849  -5.4812722
  85.7232590 156.0652008  -6.2590389  84.1128616 156.3786316  -5.6384830
  85.5851135 156.3079987  -4.1424804  86.8453217 156.3119049  -4.0028400
  84.8647690 157.0565491  -3.3886344  83.9055176 152.2423859  -6.7733474
  82.9698334 151.5550385  -6.3981900  85.0468979 151.7474365  -7.2400508
  85.8218231 152.3451385  -7.4897389  85.2857132 150.3407593  -7.4133811
  84.5344467 149.7390747  -6.9018359  85.0713120 150.0101166  -8.9197569
  84.0230408 150.1963196  -9.1533461  85.7125244 150.6788483  -9.4939928
  85.5292816 148.6483459  -9.3080473  86.4507217 148.8634949  -9.8491268
  85.8533401 147.9817200  -8.5088606  84.5771866 147.8907623 -10.1739206
  84.0832901 146.7988281  -9.8081484  84.1175690 148.4982910 -11.2262125
  83.3140640 148.0936432 -11.6852770  84.5360870 149.3983917 -11.4126625
  86.6654587 149.9245758  -6.7981491  87.7779388 150.1460266  -7.3252726
  86.6312866 149.1135101  -5.6982117  85.7317810 148.8414307  -5.3281355
  87.8400574 148.5395203  -5.0308485  88.6393204 148.2493134  -5.7128067
  88.3243637 149.5318146  -3.9324458  87.4717636 149.7753296  -3.2985146
  89.0168839 149.1452179  -3.1847408  89.0180054 150.8061066  -4.4628181
  89.8187485 150.5156250  -5.1429143  88.2585754 151.3554993  -5.0191913
  89.6267319 151.7039185  -3.4311638  88.9879303 152.2517090  -2.4963748
  90.8382797 151.9789124  -3.6745503  87.5664978 147.1725159  -4.3518405
  86.4109879 146.8794250  -4.0078559  88.6919327 146.3635101  -4.2430167
  89.5876694 146.7887878  -4.4351048  88.5819092 144.9291534  -3.7202399
  89.5835495 144.5149078  -3.8352137  88.2057266 144.9582214  -2.2187920
  87.1237946 145.0817413  -2.1711423  88.4266129 143.9995270  -1.7495193
  88.8242416 145.9875793  -1.3411425  90.1783981 145.8486938  -1.0391047
  90.7702408 145.0572815  -1.4747543  90.9270477 146.8628082  -0.3881675
  91.9959641 146.7657471  -0.2681920  90.2042618 147.9745636   0.1443445
  90.9087067 148.9058533   0.8408397  91.8555908 148.7477417   0.8415460
  88.8287277 148.0882721  -0.1131465  88.2819290 148.9021912   0.3395765
  88.1454086 147.0906525  -0.8821029  87.1276093 147.2275391  -1.2163804
  87.6767426 143.9873047  -4.5810232  87.3394165 142.8809814  -4.2095094
  87.3191299 144.4795685  -5.7776923  87.8132782 145.3156738  -6.0549469
  86.4688873 143.8194427  -6.7155666  86.4812241 144.3375397  -7.6744819
  86.8247681 142.7932739  -6.8073616  84.9555054 143.8495789  -6.3431063
  84.2337112 142.8526459  -6.5591450  84.4783630 144.9439697  -5.7118406
  85.1731873 145.6193085  -5.4268403  83.0402069 145.2274475  -5.4510131
  82.4233246 144.6433258  -6.1339259  82.5822906 144.9359131  -3.9468527
  81.5296326 144.6724701  -4.0498185  83.4034195 143.7796783  -3.3493080
  84.4363251 144.0745850  -3.1642756  83.0420761 143.5163574  -2.3552279
  83.2730331 142.8460083  -3.8964410  82.5540390 146.2507629  -3.0595949
  83.4638214 146.8097076  -3.2786393  81.7122879 146.8476105  -3.4107859
  82.3067093 146.0725861  -1.5401584  83.0900497 145.5347748  -1.0060720
  82.2383804 147.0364227  -1.0357206  81.3143768 145.6494293  -1.3842418
  82.6357040 146.6652222  -5.8584085  83.4187469 147.6143951  -5.7215042
  81.4214935 146.8859558  -6.3594584  80.8789291 146.0769958  -6.6264710
  80.8206482 148.2192383  -6.5890837  81.5799103 148.8677216  -7.0262237
  79.6543961 148.0794373  -7.5480814  79.0216675 147.2565765  -7.2154341
  79.0036926 148.9510498  -7.4776340  80.0166473 147.8697510  -9.0058956
  80.7658768 148.6414642  -9.1826048  80.5866928 146.9558258  -9.1728601
  78.8418884 148.0548401 -10.0553370  77.6469727 148.2892151  -9.7264090
  79.2057495 148.0883026 -11.2406321  80.2291183 148.8828583  -5.3247008
  79.4249115 148.3892517  -4.5228186  80.6270905 150.1529694  -5.0997062
  81.3930206 150.5272980  -5.6413155  80.1890717 150.9855194  -3.8755846
  79.2178955 150.5899353  -3.5782144  81.2117691 150.8421936  -2.7435217
  81.3656082 149.7850952  -2.5268276  82.5533295 151.4416504  -3.0894415
  82.4377518 152.4972687  -3.3352127  83.1908722 151.4287872  -2.2054315
  83.0424423 150.9110413  -3.9063351  80.6898727 151.5088959  -1.6306921
  81.2000809 151.3037109  -0.8438140  79.8656921 152.4721985  -4.2437501
  80.1108475 152.9203949  -5.4042349  79.1746368 153.2246246  -3.3696058
  79.0779037 152.8494415  -2.4368839  78.7115631 154.5896912  -3.6801703
  79.5272751 154.9965210  -4.2778373  77.3153458 154.5966034  -4.3792734
  77.3448105 153.9259796  -5.2380433  76.1489868 154.0459747  -3.6120882
  75.8378220 154.7845154  -2.8732841  75.3488617 153.7665558  -4.2975259
  76.4432983 153.1647186  -3.0421238  76.8521500 155.9458466  -4.9636350
  77.6575394 156.2689209  -5.6232328  75.8872528 155.8357391  -5.4585543
  76.5507584 156.7119141  -4.2492051  78.6720276 155.5129242  -2.4069860
  78.4939423 155.0688477  -1.2398225  78.9054718 156.7947083  -2.5990958
  79.2112732 156.9967804  -3.5402398  79.0350800 157.8368378  -1.5666465
  78.7102356 157.3397217  -0.6526125  80.5397415 158.2110901  -1.4262915
  80.8176498 158.6752319  -2.3725727  80.6303406 159.0090942  -0.6893423
  81.3596115 156.9008942  -1.0983700  80.8640213 156.4809875  -0.2230618
  81.4728470 156.2530975  -1.9676396  82.8083954 157.3465576  -0.6955050
  83.1337967 158.1497803  -1.3565969  82.7425003 157.8279419   0.2802123
  83.8091278 156.1348114  -0.8341744  83.5370255 155.3900452  -0.0862540
  83.7113419 155.5864563  -1.7711114  85.2124405 156.6506348  -0.7071426
  85.3472595 157.1850891   0.1391965  85.7688522 155.8077698  -0.7156832
  85.3743668 157.1804504  -1.5516440  78.1841507 159.0441284  -1.9148778
  78.3967896 159.7141418  -2.9607351  77.3481598 159.4388275  -0.9989434
  77.2319336 158.9020691  -0.1513031  76.3324356 160.5396729  -1.1579936
  76.7508011 161.1386871  -1.9668519  74.9194641 160.1614838  -1.5134540
  74.3944931 161.1013031  -1.6844549  74.7863235 159.3357239  -2.7800670
  75.0873413 158.3155060  -2.5421121  73.7914810 159.2854309  -3.2226219
  75.3575897 159.6783905  -3.6428177  74.0561066 159.4672546  -0.4520542
  74.0158310 160.1347351   0.4087280  73.0654373 159.3005981  -0.8750140
  74.5574112 158.5216522  -0.2455504  76.3082962 161.4579315   0.0837694
  76.4289398 161.0661163   1.2110791  76.0525589 162.7316742  -0.1704615
  75.9204941 163.0073242  -1.1331056  75.4939499 163.7081299   0.8116563
  75.3697815 163.3450470   1.8318752  76.4860687 164.9369659   0.9588118
  76.6632919 165.3637848  -0.0283686  75.9293365 165.7124023   1.4849705
  77.7485886 164.6123962   1.6797317  77.5431137 164.5146942   2.7457221
  78.0820160 163.6257477   1.3581129  78.9044571 165.5949097   1.5338024
  79.4897003 165.5467072   2.4520986  79.6322327 165.3166962   0.7715349
  78.6092911 167.0603333   1.3980882  77.7621613 167.1459808   0.7175380
  78.3269119 167.5021515   2.3536820  79.8035889 167.7783508   0.8627436
  79.9486923 167.4169464  -0.0691476  79.6751785 168.7776031   0.7911843
  80.6649857 167.6773682   1.3803375  74.1283798 164.1817474   0.3269489
  73.8728561 164.3649750  -0.8611780  73.1805649 164.2412109   1.2466310
  73.4291077 164.0207977   2.2004375  71.7634888 164.5346222   1.0592889
  71.5916290 164.9720917   0.0758332  71.0922775 163.1637268   1.1093118
  71.1458130 162.6803436   2.0847969  70.0366974 163.3197174   0.8867955
  71.5209961 162.4685364   0.3875127  71.2077713 165.4054718   2.1913881
  71.8251648 165.6013489   3.2272928  69.9635696 165.9172211   2.0696480
  69.4979477 165.7764893   1.1844952  69.4059753 166.9349213   2.9893980
  69.7362213 166.6413422   3.9858196  69.9780502 168.2252197   2.5543938
  71.0400620 168.1678925   2.3157408  69.2096481 168.7702026   1.3704203
  68.1704941 168.9791565   1.6245892  69.7191162 169.6343689   0.9441019
  69.1109085 168.0298309   0.5765674  69.9432068 169.3310547   3.6034207
  68.9793930 169.8386993   3.5650432  69.9786453 168.8708496   4.5908642
  71.0821228 170.3128967   3.5393755  71.2328568 170.7686462   2.5607693
  70.7391586 171.1595459   4.1340747  71.9662933 169.8520813   3.9798114
  67.9042053 166.8074799   3.0305781  67.2684402 166.4552460   2.0746989
  67.2382278 167.0940552   4.1579709  67.7623825 167.4432526   4.9475412
  65.7439499 166.8758850   4.2301121  65.4749374 165.9954681   3.6465018
  65.5191269 166.7151337   5.2844901  64.9060287 168.0228577   3.6535642
  64.8491516 169.1354065   4.2219219  64.1792450 167.7677460   2.6014361
  64.2623749 166.8496857   2.1886890  63.3192825 168.7696686   1.9362949
  63.7225342 169.7768250   2.0417814  63.2972298 168.4961700   0.4507314
  63.0927505 167.4343567   0.3134930  62.5181923 169.1046906  -0.0085079
  64.5462952 168.8191071  -0.4026845  65.4311066 168.3581696   0.0363595
  64.3674469 168.3019714  -1.3453850  64.8024673 170.2965851  -0.6685479
  65.3543396 170.3480988  -1.6071020  63.8627281 170.8370209  -0.7822162
  65.6587982 171.0324554   0.3547327  65.1517792 171.4140015   1.1405208
  67.0133209 171.2685089   0.3467528  67.8362579 170.7737274  -0.5795801
  67.5236435 170.0924377  -1.2564963  68.8177490 171.0110474  -0.5582896
  67.4594040 172.1609802   1.1985832  66.7611313 172.5436707   1.8199098
  68.3957138 172.5335388   1.1305729  61.8945580 168.8491364   2.5383537
  61.4629211 169.9666290   2.7579768  61.1723022 167.7230530   2.7850604
  61.5168343 166.7820129   2.6592126  59.7232819 167.7299347   3.2190447
  59.4617996 168.6800995   3.6847994  58.8070488 167.4460754   2.0470145
  58.9595413 166.4045715   1.7639652  57.7560463 167.6071167   2.2869401
  59.2201614 168.1373901   0.7864812  58.7407455 169.1111450   0.8867509
  60.2995491 168.2300415   0.6663129  58.6971245 167.5077362  -0.4804714
  58.0215874 168.1193695  -1.2477379  58.9826469 166.2509003  -0.7646261
  58.4945679 165.8631287  -1.5593073  59.7090645 165.7633057  -0.2599660
  59.4826965 166.7503967   4.3617535  60.0054932 165.6458893   4.3974104
  58.6074524 167.0863800   5.3909698  58.1088257 167.9481964   5.2214041
  58.0411186 166.0559235   6.3147411  58.8040428 165.3510590   6.6452098
  57.4642105 166.8173981   7.5269179  56.8229408 167.6074829   7.1362462
  56.7994652 166.1400757   8.0630541  58.4965553 167.4931793   8.3838434
  59.1986771 166.7235413   8.7044411  58.9606285 168.3104248   7.8317213
  57.8325462 168.0033417   9.7098618  57.3081055 167.2027130  10.2314472
  58.5661240 168.4374084  10.3892384  56.7945595 169.0324097   9.4323645
  57.0960693 169.8796387   8.9725828  55.5460892 169.0677032   9.8226347
  55.0652428 168.0525665  10.4827070  55.5209236 167.1931610  10.7545233
  54.0940514 168.0611115  10.7598581  54.8467560 170.1145325   9.5539398
  55.2704048 170.9293213   9.1335268  53.8908882 170.1290283   9.8798361
  56.8930893 165.2601013   5.6164236  56.1504059 165.9032288   4.8709493
  56.6661797 164.0076599   5.9831524  57.3084641 163.5181122   6.5897007
  55.5838547 163.1604309   5.4453149  54.7747383 163.8297577   5.1530366
  56.0721016 162.4635162   4.1560249  55.1717262 162.1172943   3.6485245
  56.4876862 163.2465210   3.5217421  57.0775795 161.3347015   4.3765874
  56.6652908 160.0684509   4.8388124  55.6736908 159.8351746   5.1975708
  57.5951195 159.0149384   4.9765582  57.1894188 158.0845032   5.3455157
  58.9514694 159.2124786   4.6330924  59.6258240 158.3869019   4.8064976
  59.3522224 160.4611664   4.0979457  60.3695984 160.4576874   3.7355306
  58.4461632 161.5209045   4.1125278  58.8039551 162.4682465   3.7371340
  54.8284492 162.1295013   6.3661089  55.4586487 161.4947205   7.1838622
  53.4744072 162.0147247   6.1821923  53.1071320 162.7484283   5.5932283
  52.6157036 160.8948975   6.7111053  52.8381920 160.6731262   7.7548566
  51.1352959 161.3224792   6.6877728  50.9554482 162.2947388   7.1465487
  50.7446861 161.3731384   5.6714282  50.2813301 160.2525482   7.4921918
  50.4854050 159.2515564   7.1121078  50.6618195 160.2335052   8.5134525
  48.7534904 160.4162598   7.5091767  48.3236237 160.3308411   6.5111675
  48.3839340 159.7128448   8.2553301  48.3447876 161.7406769   8.0016232
  48.9256973 162.0341187   8.8760042  48.6129227 162.4678040   7.2351475
  46.8572617 161.7083282   8.2497511  46.6415367 161.1367035   9.0540056
  46.4818153 162.6408539   8.3473454  46.3284073 161.4019318   7.4456773
  52.8391380 159.6988678   5.7779922  52.8189087 159.8204193   4.5443134
  52.9651909 158.4764252   6.3553615  52.7496567 158.4761353   7.3420954
  52.8293266 157.1773376   5.7135677  53.3677139 157.2978821   4.7735114
  53.5260696 156.1219940   6.6176147  53.0784492 156.1722260   7.6101956
  53.2698288 154.6970520   6.1665320  53.5776405 154.5572968   5.1302762
  53.8151741 154.0410614   6.8450441  52.2280846 154.3763580   6.1719728
  55.0765839 156.4318542   6.5955715  55.3517342 157.4849091   6.6543670
  55.4518738 156.0721436   7.5536304  55.6086311 155.9779816   5.7594891
  51.3829002 156.7145081   5.4258561  50.5037155 156.8937683   6.2920418
  51.1832581 155.9788208   4.2894492  51.9234200 156.0392761   3.6048994
  49.9520874 155.2930450   3.9157591  49.2484970 155.5053101   4.7207489
  49.3882675 155.9300690   2.6279616  50.0395088 155.6371307   1.8044535
  48.4074554 155.4800568   2.4743586  49.1272354 157.4755096   2.6313169
  50.0989151 157.9199371   2.8467684  48.4928055 157.8465271   1.3337039
  47.5657959 157.2988129   1.1641241  48.3742409 158.9286804   1.2790064
  49.1431847 157.5557709   0.5087274  48.0975800 157.9005585   3.6548917
  48.4515572 157.6201172   4.6469426  47.9437294 158.9778290   3.5922937
  47.1837349 157.4111938   3.3179708  50.0030441 153.7773285   3.7294350
  49.1424370 153.0682526   4.2325921  51.1067047 153.3749390   3.0653379
  51.7431870 154.0737305   2.7094135  51.4446182 151.9425507   2.8638086
  51.2651825 151.3175964   3.7386525  50.6521873 151.3993530   1.6803503
  49.6003532 151.6042175   1.8797872  50.9612312 151.8192291   0.7231212
  50.7538910 149.8455658   1.5139190  51.7766190 149.5345306   1.3008606
  50.5621452 149.3838348   2.4824939  49.8033295 149.2403564   0.4827068
  48.5726852 149.3193207   0.6478802  50.3315163 148.7167358  -0.4880534
  52.9505692 151.8156586   2.6640599  53.5352173 152.6907349   2.0964322
  53.5402145 150.6986389   3.1450543  52.9460297 149.9824524   3.5376534
  54.9459801 150.3101654   2.9116898  55.3129807 151.0010681   2.1526875
  55.8831520 150.3984070   4.2186513  55.7718925 149.5159760   4.8487635
  57.3364410 150.2420502   3.7247827  57.6346092 151.1894531   3.2757702
  57.9988632 150.0595703   4.5709519  57.4298553 149.4630280   2.9681466
  55.6710625 151.6744232   5.0788312  55.9915123 152.5645905   4.5375171
  54.6022949 151.7549286   5.2772226  56.4958496 151.6888428   6.3759398
  57.5744324 151.7017059   6.2190976  56.3325882 152.6136017   6.9293561
  56.1977005 150.8505554   7.0056067  55.0423813 148.8971558   2.3272686
  54.7268219 147.9635468   3.0253706  55.4747200 148.7558441   1.0990316
  55.8200417 149.5640106   0.6013048  55.7027206 147.5178833   0.3204429
  55.1747856 146.6813049   0.7781945  55.1195679 147.6972198  -1.1098223
  54.0839844 148.0141449  -0.9864432  55.7190208 148.4751740  -1.5826215
  55.0751343 146.4826813  -2.1176703  56.0758438 146.0602875  -2.2085676
  54.3573608 145.7407532  -1.7677416  54.7024040 146.9710846  -3.5345154
  53.7358894 147.4712067  -3.4726427  55.4502258 147.6932831  -3.8620665
  54.6017113 145.8278198  -4.4984570  54.7430954 144.8585205  -4.2523313
  54.1518936 145.9962006  -5.6999593  53.9654198 147.1928253  -6.2477074
  54.2228127 148.0060577  -5.7068725  53.2774010 147.3483429  -6.9705796
  53.7773628 144.9986267  -6.4534826  53.7276764 144.0496063  -6.1114497
  53.3376579 145.2387543  -7.3304691  57.2129440 147.1662598   0.4153947
  58.0701103 148.0781097   0.6124868  57.5512047 145.9454346   0.0380057
  56.8600044 145.2504883  -0.2056940  58.9459839 145.5854797  -0.3204151
  59.5761337 146.4740295  -0.3592388  59.5128555 144.6975098   0.7685978
  58.9839668 143.7457123   0.8182857  61.0460129 144.4548798   0.6298049
  61.5480766 145.4185333   0.7159117  61.3980026 143.7924500   1.4206243
  61.2393761 143.9519958  -0.3177240  59.5361214 145.2911530   2.0447719
  59.0697708 144.6529846   2.5896151  59.0107918 144.8545990  -1.6716118
  58.4266129 143.7871704  -1.8231440  59.7214203 145.3802185  -2.6990433
  60.2318306 146.2338562  -2.5233345  60.0251541 144.7026367  -3.9582789
  59.1076508 144.3643799  -4.4398079  60.5724335 145.7880402  -4.9562273
  61.4187202 146.3354797  -4.5412536  60.8031845 145.2457123  -5.8731461
  59.5155983 146.8065338  -5.4475732  58.6474190 146.2069550  -5.7211862
  59.1870079 147.4661102  -4.6443944  59.7736778 147.6052399  -6.7807631
  59.7933464 148.8330078  -6.7206197  60.1468239 146.9346313  -7.8782706
  60.4300308 147.4887695  -8.6737709  60.2435379 145.9293060  -7.8870006
  60.9317017 143.5062256  -3.6421502  61.5284843 143.2375641  -2.5673604
  61.2918358 142.7101898  -4.6669488  60.9988632 142.9843903  -5.5938168
  61.9905815 141.4079437  -4.4985352  61.6206932 140.9490051  -3.5816531
  61.7362213 140.4693146  -5.6592355  61.9598999 140.8892212  -6.6399255
  62.4086456 139.6160889  -5.5701127  60.4735756 139.9071503  -5.6901531
  60.5240021 138.9505615  -5.6268787  63.5285873 141.5507965  -4.4223199
  64.2309265 140.7136230  -3.8611174  64.0740662 142.6973724  -4.8578415
  63.5049515 143.3930054  -5.3186021  65.4920807 143.0175018  -4.7071848
  66.0687714 142.1414032  -5.0038185  65.8361816 144.1559296  -5.6501508
  66.9235535 144.2313995  -5.6446137  65.5157852 143.9008026  -6.6602798
  65.3204041 145.5918884  -5.4013638  64.5305252 145.8399048  -4.4497170
  65.5104294 146.4828644  -6.2607698  65.9158096 143.3997345  -3.2954996
  67.0601959 143.2571259  -2.9065142  64.9470901 143.7329254  -2.4596210
  64.0359726 143.7892609  -2.8918066  64.9782639 143.9154205  -1.0080770
  64.1766281 143.2636108  -0.6607663  65.9266052 143.5307617  -0.6328574
  64.7691727 145.3103485  -0.4592303  64.6373672 145.5027771   0.7301284
  64.7208252 146.2957916  -1.3737081  64.6888657 146.0061340  -2.3407576
  64.5093689 147.7342529  -1.0336500  65.0566330 147.8284912  -0.0957062
  65.0966797 148.7222443  -2.0734115  65.3261795 149.6550598  -1.5583687
  66.4475937 148.2123413  -2.6311998  66.2761688 147.3062134  -3.2122810
  67.0219193 148.8541565  -3.2992806  67.1894836 147.9050598  -1.8941203
  64.1647110 149.0980988  -3.2832370  64.7722626 149.3760681  -4.1444626
  63.6232948 148.1914520  -3.5533831  63.2192459 150.1984253  -2.9239404
  63.7402763 151.0224762  -2.4365292  62.8181572 150.6720886  -3.8199778
  62.3758316 149.8357544  -2.3363864  62.9645615 148.0203705  -0.7888343
  62.1079941 147.3410645  -1.3579639  62.6367912 148.8904266   0.1863726
  63.4073143 149.3210449   0.6772671  61.2928162 149.2531281   0.4804797
  60.6926880 148.3724670   0.2516066  61.0047913 149.4838715   1.9847653
  61.6184578 150.3066406   2.3515987  59.9350739 149.6349030   2.1296539
  61.5619164 148.2424316   2.8078818  61.5312004 147.3553162   2.1752858
  62.6064072 148.4212952   3.0631256  60.6823997 148.0551300   4.1039109
  60.9124718 148.5163879   5.1969600  59.6160736 147.3078613   4.0050845
  59.0582886 147.1761627   4.8367305  59.3724747 146.7814484   3.1782596
  60.7934189 150.4127655  -0.3057403  61.4810562 151.3957825  -0.5767016
  59.5288124 150.3040771  -0.6416894  59.0568657 149.4611359  -0.3470134
  58.6597977 151.2884521  -1.3383185  59.2672272 152.1033936  -1.7320248
  58.0843468 150.6573334  -2.5944755  57.7828751 149.6522064  -2.2996032
  57.1687393 151.2103271  -2.8041177  59.0336266 150.6260834  -3.8194933
  60.0131187 150.2219696  -3.5637720  58.7458305 149.8254242  -4.5008221
  59.3119507 151.9567719  -4.5445933  59.1491394 153.0584869  -4.0396733
  59.8673439 151.8463898  -5.7668643  60.1014633 152.6894226  -6.2714190
  59.9601669 150.9218750  -6.1627955  57.5788078 151.7424316  -0.3429491
  57.0444908 150.9593048   0.4773516  57.2311172 153.0424957  -0.3774455
  57.7506561 153.7150421  -0.9232097  56.1728020 153.5628052   0.4929057
  55.5001602 152.7386169   0.7303262  56.9176521 154.1226044   1.6979089
  57.6768112 154.8688812   1.4637249  56.2644196 154.6824646   2.3672001
  57.3409157 153.2736053   2.2346919  55.3082008 154.5804596  -0.3200783
  55.8621712 155.4644165  -0.9956909  53.9779396 154.5433350   0.0012146
  53.6302719 153.8835144   0.6822865  53.0748253 155.6303711  -0.3923950
  53.4800568 156.1512756  -1.2598860  51.7549324 155.0984650  -0.7980248
  51.4333839 154.3851624  -0.0391307  51.1310043 155.9878998  -0.8857331
  51.7774162 154.3766937  -2.1754470  52.1895638 155.0086212  -2.9621570
  52.3802109 153.4721680  -2.0944612  50.2927246 153.9118195  -2.5042260
  50.0549889 153.1313171  -1.7814380  49.6222496 154.7656250  -2.4063962
  50.0881195 153.3360596  -3.9171166  49.0240631 153.2942200  -4.1497979
  50.4451714 154.1117249  -4.5945764  50.6287308 151.9488678  -4.0948048
  50.3179588 151.4013367  -3.3050294  50.2510147 151.4787750  -4.9050212
  51.6350212 151.9019775  -4.1674409  52.9400063 156.6355438   0.7696024
  52.7203636 156.1681671   1.8827789  53.1802864 157.9232788   0.5230754
  53.2904625 158.1455231  -0.4559866  53.4051476 158.9637451   1.5071108
  53.0600243 158.6025543   2.4758937  54.9585609 159.2734680   1.7420198
  55.1128845 159.9573975   2.5765924  55.6958466 157.9684906   2.2152467
  55.5161552 157.1185760   1.5568558  56.7775726 158.0589600   2.3141255
  55.2573433 157.6842194   3.1718056  55.7215347 159.8833008   0.5586995
  55.1879425 160.8019867   0.3149410  56.7530136 160.0855560   0.8472332
  55.7974396 159.3428345  -0.3848206  52.7025032 160.2577057   1.1017441
  52.6469383 160.5952148  -0.1252836  52.2035522 161.0551605   2.0647342
  52.2807121 160.6396027   2.9820487  51.6168137 162.3481140   1.8930700
  51.4531212 162.5335236   0.8315011  50.1586838 162.4647522   2.4886012
  49.6353836 161.5780640   2.1307859  50.1303139 162.5564270   3.5743716
  49.4004784 163.7470551   2.0450535  49.7775612 164.6607208   2.5045257
  49.5445175 163.8905487   0.9741840  47.9340668 163.6798401   2.3303607
  47.1826363 162.8001862   1.9008282  47.3442078 164.6370697   3.0651941
  46.3572006 164.6152496   3.2783699  47.8845177 165.3825226   3.4804876
  52.4785805 163.4517365   2.5541625  52.7501526 163.3208923   3.7456031
  52.7876549 164.4751740   1.7559162  52.2659569 164.5606232   0.8953176
  53.6819191 165.5742950   2.1262493  54.4966583 165.1236725   2.6930397
  54.4062576 166.2267456   0.8529658  53.6305542 166.3313446   0.0943808
  54.8547058 167.6566925   1.1011209  55.4972458 167.7326202   1.9783169
  55.3821106 168.0795441   0.2460522  54.0648155 168.4009705   1.2022021
  55.6398697 165.4777985   0.3154797  56.0435524 165.9976044  -0.5533988
  56.3812294 165.6614990   1.0931306  55.4969559 163.9883881   0.0227056
  54.7337532 163.8005219  -0.7324885  56.4379311 163.4810028  -0.1899637
  55.1416397 163.5672607   0.9631898  52.9980392 166.5842285   2.9547789
  52.1249390 167.3294830   2.5346251  53.4098701 166.6507568   4.2392340
  54.2748604 166.2561493   4.5800948  52.7563248 167.6453705   5.1315846
  51.6889305 167.6683197   4.9119177  53.0255051 167.1126556   6.5897164
  54.1052017 167.1833496   6.7214723  52.5350304 167.7903290   7.2884960
  52.4441147 165.7028809   6.8486295  52.9127350 164.9521332   6.2123313
  52.7375069 165.2756805   8.2940102  52.2336769 165.9917145   8.9432774
  52.4098816 164.2515869   8.4728508  53.8004913 165.1707611   8.5111666
  50.9280014 165.7383270   6.7088180  50.6039581 166.0370178   5.7118783
  50.5219765 164.7767792   7.0229254  50.4140663 166.4664001   7.3364162
  53.3339729 169.0519562   5.0409651  54.5224419 169.1731415   4.6998401
  52.5503426 170.0641327   5.3700781  51.1185684 170.0544434   5.5122228
  50.8149948 169.4910126   6.3945427  50.7012062 169.6394196   4.5947995
  50.6330376 171.4886932   5.5833650  50.5307693 171.9073639   6.5845399
  49.6580276 171.6296844   5.1169105  51.7424088 172.2303467   4.8486304
  51.6653099 173.2882080   5.0997810  51.6786957 172.0319824   3.7787282
  53.0087357 171.4639282   5.3667722  53.7652512 171.5977020   4.5935416
  53.4121017 172.0173950   6.7370081  52.9889526 171.4857178   7.7625985
  54.0806313 173.1717987   6.7912912  54.4201279 173.6625977   5.9764504
  54.1156273 174.0435638   7.9818330  54.0540695 173.4469757   8.8919964
  55.2876244 175.0477600   7.7424412  55.1043167 175.4696503   6.7542572
  55.2086029 175.8383484   8.4886503  56.6234169 174.2526245   7.8272920
  56.5638771 173.2897949   7.3198299  57.3860092 174.8483429   7.3256168
  56.9807587 173.9388733   9.2766695  57.2962112 174.9055786  10.0009699
  56.7664719 172.7740784   9.6955185  52.7588425 174.8843689   7.8819494
  52.5355225 175.6586609   6.9527135  51.9290733 174.8343353   8.9434280
  52.1538963 174.2677612   9.7487459  50.8344955 175.8324127   9.1982288
  50.3342247 176.0616302   8.2573318  49.8076553 175.2549438  10.1964703
  50.3808899 174.7797394  10.9925098  49.2226601 176.0665741  10.6290569
  48.9148712 174.1646729   9.5311279  48.4250259 174.5252991   8.6266451
  49.5629005 173.3233948   9.2853355  47.9561844 173.6511078  10.6498585
  47.6359367 172.6622620  10.3216524  48.4390144 173.4947968  11.6145058
  46.7832909 174.5798950  10.7874832  46.5483513 175.0747681   9.9389515
  45.8935051 174.7034912  11.7922735  45.8501740 174.0383759  12.8901110
  46.3395271 173.1720581  13.0636301  45.1900253 174.2770538  13.6162920
  44.8964653 175.6138916  11.8188658  44.9694977 176.3777771  11.1621723
  44.1630707 175.7100220  12.5066118  51.3830719 177.1618958   9.6764622
  51.3898506 177.4750214  10.8621464  51.8722000 177.9110870   8.7293940
  51.9519196 177.5880127   7.7757854  52.5831032 179.1724396   9.0572529
  53.2133217 178.9295349   9.9127798  53.5222816 179.6047211   7.9693818
  52.9440765 179.9107819   7.0975437  54.3463478 180.8675842   8.4111786
  54.9232368 180.7224884   9.3245478  55.0069656 181.1475830   7.5906363
  53.7244148 181.7002258   8.7398300  54.5350533 178.4654694   7.5796132
  54.0682564 177.8166046   6.8385429  55.4485703 178.8345184   7.1133695
  54.8823700 177.9742279   8.4885464  51.6372261 180.3891754   9.3592005
  51.0904770 181.0642395   8.5041170  51.3764305 180.6370239  10.6565018
  51.8110428 180.0339203  11.3402290  50.3909073 181.6440735  11.0724392
  49.5359726 181.5278778  10.4063406  49.8757896 181.3302155  12.4659300
  50.6892929 181.5554962  13.1555405  49.0520592 181.9939423  12.7286787
  49.4721375 179.8758545  12.7377195  50.2750778 179.1405640  12.6854229
  48.7713127 179.8784180  14.1222210  47.8375397 180.4396515  14.0877333
  48.5456505 178.8399200  14.3644495  49.4397583 180.4139557  14.7963734
  48.4590721 179.4042664  11.7010469  48.9678268 179.0857849  10.7911911
  48.0936699 178.5097656  12.2054768  47.7054977 180.1687012  11.5116510
  50.8939781 183.0627899  10.8202133  52.1202240 183.3804321  10.9901352
  50.0002518 184.0358582  10.4861622  48.6149750 183.8163300  10.0844412
  48.1271019 183.1204529  10.7669497  48.7076149 183.5417328   9.0336752
  47.9209938 185.1736450  10.1475658  47.5791397 185.4029388  11.1568527
  47.1481018 185.2542725   9.3832045  49.1316376 186.0696106   9.7643185
  48.9735184 187.1005402  10.0809698  49.3146629 186.0552826   8.6898899
  50.3392906 185.4639740  10.4625568  51.2385826 185.6190643   9.8664694
  50.5115471 186.0036774  11.9226980  50.2809753 185.2837677  12.8765392
  50.9180031 187.2892456  12.0148878  51.0400696 187.7941742  11.1487141
  51.2132874 188.0289459  13.2620983  52.0414886 187.6011810  13.8270788
  51.5813942 189.4736633  12.8860188  52.5620003 189.6363220  12.4387445
  50.8543510 189.9192963  12.2071056  51.6311836 190.3580627  13.9915380
  51.2099190 191.1971588  13.7914209  49.8934822 187.9982605  14.1212854
  48.7927513 188.1650696  13.6378813  50.0196190 187.6532593  15.4308729
  50.9027939 187.7326202  15.9144096  48.8514061 187.3440552  16.2153397
  48.3579750 186.4637756  15.8033514  49.2095070 187.1541443  17.7030392
  48.3419571 187.3547211  18.3317108  49.7818604 185.7318420  18.0703888
  50.4587250 185.4421692  17.2666245  50.2771912 185.6803894  19.0399761
  48.9639244 185.0153961  17.9942989  50.2283363 188.0922546  17.9738026
  49.8226433 188.9124298  18.2641945  47.8123016 188.5240479  16.2851562
  46.6130295 188.3183441  16.4166908  48.3196907 189.7453918  16.1155586
  49.2961006 189.8542023  15.8812895  47.5327072 190.9191132  16.3165474
  46.7343826 190.7670593  17.0429478  48.3778038 192.0928955  16.8435936
  49.1994095 192.2008820  16.1354961  47.8330078 193.0353241  16.7875652
  49.0266953 191.9714813  18.1750736  49.2532806 190.9169312  18.3321228
  49.9605522 192.5335388  18.1640701  48.1441154 192.3486481  19.7448750
  47.0871582 190.8610535  19.9831429  47.6592979 189.9391632  20.0874748
  46.5010376 191.0097809  20.8900299  46.3807259 190.7552338  19.1598225
  46.8336449 191.3451843  14.9712400  45.9464951 192.2347565  14.9972553
  47.2132645 190.7967834  13.7715483  47.9835510 190.1522217  13.6651659
  46.6719513 191.2113800  12.4155455  46.6712112 192.3013611  12.4096708
  47.5399628 190.8090820  11.2326422  47.2076225 191.4351654  10.4045858
  48.5836678 191.0574951  11.4251661  47.4028206 189.4359283  10.7134466
  47.9542618 189.1732941   9.9728146  45.1481133 190.8822174  12.1866112
  44.5133743 191.4726410  11.3187494  44.5470505 189.9934845  12.9686260
  45.1777992 189.5357056  13.6110420  43.0975571 189.7410583  13.1815605
  42.6091881 189.9950867  12.2407799  42.8480339 188.2671356  13.4859085
  43.6172676 188.0804901  14.2352657  41.8823967 188.0339966  13.9345646
  42.9168968 187.5845947  12.6388550  42.4029770 190.7315369  14.1776428
  41.2160416 190.6395111  14.4256563  43.2139206 191.6487122  14.7503586
  44.1879272 191.5783234  14.4925699  42.6504288 192.6208649  15.7522058
  41.5918465 192.6851349  15.5004568  42.6878929 192.0311584  17.2200356
  42.7399635 190.9473572  17.1162338  43.8077660 192.4823303  18.0694313
  43.7464790 193.5648346  18.1813240  43.6895561 192.0659943  19.0698242
  44.7334633 192.1669159  17.5880775  41.3512077 192.4135437  17.9524231
  40.4611359 192.1053162  17.4038963  41.1935349 191.9707794  18.9358864
  41.4418182 193.4637451  18.2298069  43.0822258 194.0787811  15.6324205
  42.1943474 194.9070740  15.9027157  44.3550529 194.4055481  15.2817774
  45.0526047 193.6779785  15.2171783  44.7931023 195.8151550  15.0592127
  44.3623199 196.4659119  15.8201551  46.3276253 195.8849640  15.3229170
  46.5736427 196.9461823  15.3603430  46.4555168 195.6015472  16.3676281
  47.2430420 195.1612396  14.2949562  47.4977303 194.2031250  14.7479906
  46.6825104 195.0341187  13.3688116  48.5675163 195.8065186  14.1278028
  49.0525398 196.4603882  15.0218191  49.3255844 195.4874420  13.1224909
  50.2656250 195.8416443  13.0177851  48.9400177 194.8154907  12.4744825
  44.4028511 196.4362335  13.7456989  45.1901054 197.1215363  13.1003208
  43.1714439 196.2251740  13.3447790  42.5871582 195.6413269  13.9260025
  42.5794525 196.8018951  12.1768551  43.3578072 196.7911987  11.4138689
  41.3802452 195.9433594  11.6318817  40.5300484 195.9284058  12.3138189
  41.0169525 196.4975128  10.7664146  41.8008156 194.4946289  11.1850548
  42.8022804 194.4242249  10.7605457  41.8007431 193.5359955  12.3798161
  40.9964485 193.7988739  13.0669165  41.7023010 192.5121307  12.0191355
  42.8280754 193.5278320  12.7439928  40.8011246 193.8168488  10.2516403
  40.7081337 194.2656403   9.2626762  41.0316620 192.7731171  10.0381813
  39.8115730 193.7887726  10.7078161  42.2450104 198.2972107  12.4321728
  41.0696564 198.6963654  12.3973522  43.2291183 199.1195679  12.7254181
  44.1809235 198.8164520  12.5761404  42.9983940 200.5714111  12.9392347
  42.2549057 200.8685455  12.1996136  42.4850883 200.8334198  14.3676176
  42.0970764 201.8466339  14.4722090  41.5840797 200.2230377  14.4285383
  43.5648613 200.4228058  15.5141106  44.3062592 199.7541962  15.0766239
  44.1506271 201.2878113  15.8251381  42.9567299 199.6868591  16.7345085
  42.9909744 198.4465942  16.8499813  42.3516159 200.4168396  17.5870094
  41.8778267 199.8957367  18.3109379  42.4168053 201.4226227  17.5216541
  44.2285156 201.3533020  12.4727211  45.2055321 200.8444061  11.9840908
  44.1900711 202.6770630  12.7088051  43.3933258 203.0248260  13.2229519
  45.2873344 203.5937958  12.3696728  45.5176544 203.3898926  11.3239784
  44.9400749 205.1058044  12.4906521  45.7693901 205.6711578  12.0655470
  44.0961914 205.4367065  11.8852911  44.7802925 205.4042358  13.8872175
  44.7566605 206.3495178  14.0530510  46.6747475 203.3203888  13.0312567
  47.7171936 203.7901306  12.4961452  46.8099136 202.5915985  14.1356668
  45.9515495 202.3217926  14.5944805  48.1108322 202.3289032  14.7968855
  48.7907944 203.1799164  14.7577734  47.8100090 201.9527893  16.2607765
  46.9565659 201.2778168  16.1963501  48.6103439 201.3072052  16.6224327
  47.6263924 203.1331482  17.3141785  48.4602013 203.8341370  17.3525925
  46.3789825 203.9675598  16.9967003  45.4963531 203.3303680  17.0519867
  46.1250153 204.7130890  17.7502098  46.4713783 204.4616241  16.0295105
  47.4904556 202.4818878  18.6761494  48.2518234 201.7129822  18.8072891
  47.5413857 203.1497192  19.5360947  46.5250626 201.9836884  18.7651443
  48.9631691 201.2378387  14.1002979  50.1127014 201.0935364  14.5005016
  48.4251137 200.4904633  13.1065207  47.5044785 200.7193909  12.7599306
  49.0994530 199.2421722  12.7025509  49.2848015 198.6168518  13.5758801
  48.1763535 198.4400024  11.7720575  48.5828323 197.4534760  11.5492468
  47.2644653 198.2536774  12.3393698  47.8878555 199.0847473  10.5319176
  46.9428711 199.2228699  10.4342928  50.5222054 199.4159851  12.1226549
  51.3953743 198.6187744  12.2283955  50.6646729 200.5916748  11.4191227
  49.8242226 201.0935822  11.1704397  51.9693375 201.1611023  10.9240627
  52.5396881 200.4347229  10.3451204  51.7261047 202.2945404   9.8557453
  52.6600533 202.5238647   9.3426647  51.0030632 201.9471283   9.1177559
  51.1308479 203.4856110  10.5951080  50.3706970 203.2053375  11.3242979
  51.9675560 203.9767456  11.0919113  50.5047531 204.4737854   9.6266222
  51.2729454 205.0264893   9.0857983  50.0075760 203.8523560   8.8818111
  49.5081406 205.3008728  10.3292141  48.7321968 204.7920227  10.7280626
  49.5460930 206.5950165  10.5689421  50.5925941 207.2873535  10.3158216
  51.4619827 206.8492737  10.0468302  50.4897003 208.2890320  10.3942738
  48.5876198 207.2368011  11.0625944  47.6776619 206.8251190  11.2129364
  48.8041000 208.1459503  11.4455824  52.9694061 201.6418762  11.9746742
  53.9746056 202.2991791  11.5717697  52.7972298 201.3508606  13.2583656
  52.0228271 200.8163147  13.6253414  53.8115959 201.6749115  14.2707987
  54.2412453 202.6476440  14.0314465  53.1201553 201.8597260  15.6214619
  52.4525642 201.0037842  15.7203264  53.8643570 201.7844086  16.4143009
  52.2221107 203.1803894  15.6047211  52.8570442 204.0208282  15.3243484
  51.4291077 203.2435303  14.8595600  51.6902351 203.6457977  16.9619064
  51.0045128 204.4778290  16.8018398  51.1308098 202.8159790  17.3938293
  52.7705727 204.0319977  17.8599377  53.5786476 204.4007416  17.3791637
  52.8749542 204.0099792  19.1819305  51.9486656 203.5076447  19.9389877
  51.0941048 203.3213043  19.4339046  52.0123291 203.3978729  20.9409866
  53.8825378 204.6175690  19.7512245  54.6302261 204.9414825  19.1544456
  53.9272346 204.5984650  20.7600555  55.0086784 200.6379395  14.2821980
  55.3256264 200.0363770  15.2722292  55.5367622 200.4344330  13.0587921
  55.3095016 201.1924591  12.4312229  56.4021759 199.3055420  12.5324688
  55.8049240 198.4014282  12.6507130  56.4265594 199.5487366  10.9325771
  55.5147209 200.0316620  10.5812445  57.2337456 200.2517548  10.7268515
  56.5505943 198.3422241  10.0479679  57.6424904 198.0525970   9.3035202
  57.3109550 196.9715118   8.6084461  57.9271622 196.4367828   7.9008112
  56.0962563 196.5135193   8.9426165  55.7709999 195.6059723   8.6415062
  55.5973663 197.4005280   9.8559065  54.6371994 197.3449707  10.3472261
  57.7249222 198.9022369  13.1642914  58.3357277 199.6948700  13.8382702
  58.1398010 197.6440735  12.9693251  57.5593300 197.0457306  12.3991175
  59.3434563 197.1422882  13.5867395  59.2985535 197.3843689  14.6485710
  59.3396606 195.6063232  13.3747883  60.3108864 195.3110504  13.7718172
  58.2802162 194.8876495  14.1849098  57.3458977 194.8071442  13.6293240
  58.6485825 193.9018250  14.4686995  58.1013832 195.3776245  15.1420164
  59.2984657 195.2109375  11.8834276  58.2918205 195.3401031  11.4858341
  59.9128342 195.8777313  11.2784052  59.8588219 193.7976227  11.5851555
  59.5158424 193.1218262  12.3685875  59.3475189 193.4744873  10.6783705
  60.9405174 193.7565155  11.4573221  60.6621552 197.8246002  13.0494251
  60.6057320 198.5691376  12.0491266  61.8403168 197.7104187  13.6593409
  62.4473572 198.4136810  13.2630796  62.5897827 196.7647247  14.5415316
  63.4969559 197.2958984  14.8296432  61.9274254 196.5629578  15.8988247
  61.0999451 195.8571930  15.8261261  62.6871490 196.0275726  16.4682903
  61.4556198 197.8105316  16.7078228  62.2562065 198.9969025  16.7203312
  63.1365509 199.0337982  16.0958023  61.9080658 200.0806122  17.4817486
  62.5167542 200.9719086  17.4431553  60.7532463 200.0185699  18.2771492
  60.5417404 200.8608093  18.9192467  60.0154800 198.8773193  18.4348965
  59.1706200 198.7432404  19.0941677  60.3188438 197.8394318  17.5294342
  59.7114525 196.9490662  17.4608173  63.2669182 195.5879822  13.7791891
  63.8104477 195.8858032  12.7494640  63.3795624 194.3378448  14.3033915
  62.4038773 193.6036987  15.1157923  61.3547211 193.8144836  14.9085512
  62.3705444 193.7662659  16.1930885  62.5598793 192.0612183  14.8461847
  61.9196472 191.7607880  14.0167522  62.3261375 191.4221802  15.6977167
  64.0501938 192.0162659  14.4605694  64.0945511 191.4511414  13.5295639
  64.6197586 191.5313721  15.2534037  64.5713348 193.4550476  14.2546148
  65.2056503 193.6614075  15.1166830  65.3622971 193.5514984  12.9442778
  64.8144989 193.2910004  11.8853188  66.6702347 193.8213043  12.8353148
  66.9669342 193.8824615  11.8718176  67.5944748 194.3730927  13.8182306
  68.4937820 194.5925140  13.2427273  67.9357300 193.2837524  14.8128271
  68.7166519 193.6417999  15.4836960  67.0134659 192.9833679  15.3101244
  68.4732513 192.1264801  14.2022486  69.3470383 192.4045105  13.9179926
  67.2430267 195.6313629  14.5662746  66.0660477 196.0012360  14.7397442
  68.2736130 196.2661591  15.1686296  69.1756516 195.9137115  14.8819189
  68.2428436 197.3866577  16.1187172  67.5905609 198.1184387  15.6421537
  67.5582275 196.8651428  17.3695793  66.9333420 195.9944611  17.1707954
  68.2807999 196.5187683  18.1085072  66.7216415 197.8494263  17.9584446
  65.8298035 197.8219147  17.6042309  69.5120773 198.1215820  16.5410767
  69.4531937 198.8120270  17.5553493  70.7085495 197.9518890  15.9338741
  71.4332962 198.4329071  16.4471626  71.3102875 197.2317200  14.8200436
  72.3215027 197.6365356  14.8609514  70.6709137 197.7492981  13.4945049
  69.7771072 197.1941223  13.2099257  70.4271774 198.8115387  13.5134850
  71.6271362 197.6129913  12.3234053  72.0087891 196.5921326  12.3066740
  71.0179062 197.7020569  11.4239578  72.7800293 198.7245789  12.3745174
  72.4352417 199.6652222  12.8039808  73.5859756 198.2344971  12.9207354
  73.3420181 199.0796356  10.9898930  72.6116791 199.6315765  10.3982277
  74.1373749 199.8050537  11.1610193  73.8424911 197.8419647  10.2206497
  73.1843185 197.0764160  10.1915798  74.0592041 198.0655365   9.2598429
  74.7358780 197.4745483  10.5155373  71.4867325 195.7252350  15.1138096
  70.6998978 194.8992767  14.6104364  72.5315018 195.3243561  15.9150934
  72.4576187 194.0591125  16.6148968  72.7034302 193.2222443  15.9611921
  71.4731293 193.9920807  17.0779152  73.4684677 194.0002899  17.7424145
  73.8588333 193.0169373  18.0045662  73.0169907 194.5305634  18.5809212
  74.5581055 194.8718414  17.0691433  75.1574326 195.4099579  17.8035336
  75.2898712 194.2859955  16.5128803  73.8868790 195.8508911  16.1103153
  74.3889999 195.7956848  15.1444330  74.1471252 197.2748871  16.6395016
  73.3398132 197.8256989  17.3865814  75.2928696 197.8380890  16.1517849
  75.7594757 197.1187134  15.6180449  76.1626587 199.0107117  16.4865608
  76.9888229 198.9554749  15.7776833  75.3945618 200.2838287  16.2329121
  74.8458176 200.0884705  15.3116045  74.6138535 200.4496155  16.9752808
  76.3372955 201.5275879  16.1262932  76.7777405 201.7975311  17.0861053
  77.1404724 201.3066864  15.4232960  75.5210342 202.7824554  15.6183262
  74.6456985 202.8118439  16.2671890  76.1827850 203.6484222  15.6021233
  75.0892639 202.6018677  14.1826038  75.8728561 202.0165710  13.7014637
  74.1988144 201.9743195  14.2198706  74.7955170 203.8629913  13.3747358
  75.5710144 204.4962006  13.5079947  74.5402298 203.6591797  12.4190235
  73.9969635 204.3139801  13.7978497  76.8151398 198.8559723  17.8940792
  77.9643097 199.2290649  18.0701675  76.1722412 198.1933594  18.8459949
  75.2526703 197.8930054  18.5556927  76.6191711 197.7926331  20.2484550
  77.2145081 198.5490875  20.7597771  75.3554688 197.8060608  21.1319065
  75.7798309 197.4580231  22.0736542  74.8529434 199.2412720  21.2638798
  74.5074997 199.6494751  20.3140697  74.0923615 199.3669739  22.0344715
  75.6639481 199.8996735  21.5751343  74.1713486 196.8932190  20.7700729
  74.5544052 195.9131470  20.4857998  73.3806000 196.7960663  21.5139713
  73.7236938 197.2213745  19.8319759  77.3669357 196.4983063  20.4226322
  77.9792862 196.2848663  21.4777584  77.3222656 195.6017761  19.3920708
  76.9626999 195.8452301  18.4801769  77.7287140 194.1847534  19.4575500
  77.6843872 193.7880859  18.4432526  79.2972565 194.0222626  19.7681122
  79.5424271 194.3236084  20.7865353  79.5847778 192.9747925  19.6772938
  80.3199387 194.5428467  18.8299503  81.2276077 195.5165863  19.1204586
  81.3949509 195.8574066  20.1315174  81.9157562 195.7676392  17.9229012
  82.6717911 196.4364471  17.8882275  81.6175919 194.9043274  16.9132195
  82.1031036 194.7559814  15.5809860  82.8857040 195.4175873  15.2401056
  81.6117477 193.7364197  14.7634668  81.9925079 193.6601868  13.7556915
  80.5579834 192.9395294  15.2413054  80.3218307 192.1308136  14.5655899
  80.1350403 193.1372375  16.5813198  79.3703995 192.5170746  17.0253143
  80.6019897 194.1321869  17.4516621  76.7577286 193.2580109  20.2295380
  75.5274887 193.4804993  20.1069431  77.2890091 192.3369293  21.0650024
  78.2920227 192.3304596  20.9465637  76.6664124 191.5332947  22.1320095
  77.5874252 191.1356812  22.5583210  75.8345032 190.3083038  21.6584835
  75.4878998 189.8387756  22.5790825  75.0112991 190.5919952  21.0027714
  76.6424637 189.2979279  20.8746910  75.9788742 188.6386719  20.3151035
  77.0877609 189.8279877  20.0327530  77.6539917 188.4408264  21.5633564
  78.3012848 188.8110504  22.5060291  77.8927002 187.1732178  21.2412243
  78.6667328 186.6520233  21.6276722  77.2417984 186.6951599  20.6346722
  75.9953766 192.3443909  23.2581387  75.4691238 193.4170685  23.0243320
  76.0386734 191.7559052  24.4980984  76.2069168 190.7601471  24.5138779
  75.9500122 192.3061066  25.8597813  75.5890427 191.5159454  26.5181389
  77.3373260 192.7303162  26.4362679  77.1919708 193.2005005  27.4088440
  77.9553909 191.8547821  26.6351032  78.1386414 193.7337341  25.6462193
  78.3718948 194.8600616  26.2139645  78.7062454 193.4114990  24.5624809
  75.0485229 193.4941101  26.0608215  75.3181763 194.5085602  25.4619579
  74.0864105 193.4040222  26.9398975  73.9641953 192.4945374  27.3618164
  73.2516251 194.4254456  27.6286201  72.4183578 193.8609467  28.0470829
  73.9789047 194.9940033  28.8884525  73.3382263 195.7267456  29.3790741
  74.1541824 194.2461395  29.6618156  75.3084641 195.7675323  28.6783504
  75.9538422 195.4916382  29.5123005  75.8397598 195.3234558  27.8365536
  75.2881851 197.3235779  28.5066395  74.3395004 197.6874390  28.9012356
  76.0182114 197.8382568  29.1313534  75.5051956 197.7538757  27.1047192
  74.6989822 197.9577789  26.5315304  76.6641922 198.1116180  26.5626316
  77.8250122 198.0032196  27.1713524  77.9141312 197.5908813  28.0890274
  78.7097549 198.0691986  26.6886692  76.6656418 198.5394287  25.3197021
  77.5755539 198.8663483  25.0276623  75.8685379 198.6882782  24.7175541
  72.5446930 195.4297943  26.6913166  72.1979370 195.0919495  25.5831490
  72.1109009 196.5304108  27.2799454  72.2183838 196.5644989  28.2836323
  71.3181076 197.6438904  26.7877026  71.2476044 198.2806702  27.6695461
  72.0854721 198.3781738  25.6913052  72.4905319 197.6927185  24.9468651
  71.4169159 199.0657959  25.1733322  73.0123520 198.8446350  26.0250759
  69.8738022 197.3571777  26.3889370  68.9355850 197.8588409  26.9173851
  69.6715622 196.5036011  25.3935108  70.4302673 196.0349121  24.9193726
  68.3281174 196.1643524  24.8224792  67.8236237 197.1138153  24.6432800
  68.5000381 195.5565643  23.4359264  67.5357437 195.3934021  22.9546661
  69.0381470 196.3392181  22.9011440  69.2809067 194.2013550  23.3368950
  68.7644348 193.0498657  23.9762363  67.9185562 193.1326599  24.6425991
  69.5023651 191.8853455  23.8348732  69.2440186 191.0027313  24.4011612
  70.6276398 191.7921753  22.9277668  71.0829239 190.8304749  22.7427330
  71.0815811 192.9711151  22.3284225  71.9601212 192.9013672  21.7041588
  70.4449463 194.1923523  22.5345058  70.8157730 195.1094055  22.1010361
  67.3003159 195.4075775  25.6976204  66.2216339 195.0501251  25.3032932
  67.6528854 195.2390747  27.0098228  68.6035461 195.4490051  27.2786369
  66.7394791 194.6597290  28.0565891  66.3861542 193.7426453  27.5851746
  67.4122849 194.3104095  29.3745060  67.3157730 195.1677246  30.0406990
  66.8004150 193.4865112  29.7418041  68.8820572 193.8726501  29.3386421
  69.0127487 193.0555267  30.0481110  69.0767441 193.4654846  28.3464680
  69.8835373 194.9336548  29.7841835  70.8852997 194.5040588  29.7901268
  69.8380890 195.8394318  29.1795502  69.7269363 195.3537750  31.1946850
  69.8233185 194.6345520  31.8972015  69.4039612 196.5470581  31.7455902
  69.1282883 197.6240845  31.1260452  69.0848618 197.5737457  30.1182346
  68.4695816 198.1881714  31.6437359  69.4013748 196.5561218  33.0388603
  69.5073929 195.7369385  33.6200676  69.1944199 197.3638000  33.6088905
  65.4908066 195.5655060  28.1854572  64.3965530 195.0510101  28.3254757
  65.6847000 196.8832245  28.2683353  66.6622849 197.1357727  28.2939224
  64.6365356 197.8332520  28.3230476  64.0875092 197.6496735  29.2466125
  65.2223892 199.2123566  28.4019470  65.9351273 199.3494720  27.5887375
  64.3916016 199.9060059  28.2725468  65.9322205 199.5577850  29.6990070
  65.2407150 199.3420563  30.5134907  66.7740707 198.8904419  29.8834743
  66.4228287 200.9912567  29.8934784  66.6302185 201.7199860  28.9298363
  66.6257401 201.4343567  31.1520805  66.9172821 202.3980560  31.2321262
  66.5325317 200.8083649  31.9391899  63.7676506 197.7589874  27.1063995
  62.4966431 197.7642365  27.1579685  64.3254242 197.4872284  25.9026432
  65.3353806 197.4957886  25.8986835  63.6755257 197.3913574  24.6221180
  62.9588623 198.2002411  24.4800243  64.6704102 197.7406158  23.5650063
  64.8890305 198.8069611  23.6217632  65.5555115 197.1277161  23.7354755
  64.1992493 197.4004364  22.1765919  63.6297417 198.1917114  21.2664680
  63.3692589 199.2080688  21.5225048  63.2407494 197.4235992  20.1375961
  62.7910461 197.8040161  19.3171387  63.6613731 196.1630096  20.2054806
  63.5051804 195.0671997  19.3437023  62.7896271 195.1334076  18.5374794
  64.1246490 193.8719177  19.6250439  64.0153046 193.0691223  18.9109344
  64.7781067 193.7263336  20.8113956  65.2124023 192.7548981  20.9960022
  64.8859787 194.7931061  21.7654896  65.3992157 194.6306152  22.7017498
  64.3599472 196.0833740  21.4799252  62.8623390 196.0915985  24.3350773
  61.8690491 196.1791534  23.6528034  63.2766304 194.9393921  24.9000740
  64.2054138 194.9058228  25.2954674  62.3744659 193.7833099  24.8057384
  62.1547241 193.5351868  23.7673512  63.0205460 192.5214996  25.3763275
  63.5520744 192.8379669  26.2737827  62.3100319 191.7676392  25.7154102
  63.8366013 191.8494873  24.4174366  65.1771317 191.9421844  24.1925945
  65.8758469 192.6504669  24.6127377  65.5020065 191.1964264  23.0922279
  66.4432907 191.1643066  22.7274494  64.4445724 190.6496735  22.4585857
  64.2204742 189.9937134  21.2380428  64.9486694 189.9275665  20.4432068
  62.9158554 189.5673828  20.9163837  62.7152138 189.2120514  19.9164448
  61.8936768 189.7064819  21.8119526  60.8961067 189.4765930  21.4678364
  62.0917740 190.3572693  23.0616455  61.2321091 190.5043030  23.6986389
  63.3678589 190.9008331  23.3452950  61.0484085 194.1326447  25.4349155
  60.0233078 193.8292084  24.8612671  60.9698181 194.8827057  26.5473404
  61.8432961 195.2842102  26.8570843  59.7090149 195.3194580  27.0562534
  59.0282974 194.4681549  27.0569992  59.7445984 195.8676758  28.5402164
  60.3514481 196.7649384  28.6617107  58.7338562 196.0959320  28.8784447
  60.4102364 194.8385620  29.5235233  59.9483528 193.8667145  29.3494797
  61.4897232 194.7563629  29.3968201  60.2652092 195.1740570  31.0079231
  59.3051529 195.8646088  31.4311619  61.0251770 194.5261230  31.8170700
  60.8070297 194.7330780  32.7812729  61.7650032 193.9065704  31.5188942
  59.0405121 196.3513184  26.1812401  57.8247414 196.2630157  26.1415024
  59.7032166 197.2483063  25.4976120  60.6984100 197.2439423  25.6698799
  59.1950684 198.2864532  24.6018429  58.3855133 198.8609467  25.0520325
  60.3302307 199.2596588  24.3299465  60.9296112 199.4338837  25.2235260
  60.9912300 198.6968231  23.6708546  59.8177528 200.5849762  23.6855145
  59.1752548 200.3052063  22.8506336  59.1118660 201.0771790  24.3545113
  60.9866524 201.4288483  23.0993156  61.6786423 201.7973938  23.8565674
  61.5495338 200.7005157  22.5155239  60.5843086 202.6607513  22.2184353
  61.3330421 202.7681732  21.4336052  59.6071320 202.5101929  21.7595692
  60.4981880 203.8803101  23.0410042  61.3914413 204.1581421  23.4218121
  60.2160606 204.6695404  22.4774284  59.8792953 203.8625946  23.8389816
  58.6768379 197.6630402  23.3013229  57.6207848 198.0608673  22.8322697
  59.2782402 196.5779877  22.7550488  60.1141968 196.2092896  23.1855659
  58.7630692 195.8512421  21.5564651  58.5239334 196.5077515  20.7198524
  59.8499947 194.8454895  21.1466255  60.7844887 195.3156738  20.8404579
  60.1860313 194.2835236  22.0180492  59.5863609 193.7295380  20.1231136
  59.5533257 194.1208801  18.7675610  59.7749672 195.1430511  18.4984264
  59.1423149 193.1719818  17.8380108  59.1111679 193.3800201  16.7786961
  58.5958481 191.9209137  18.2488823  58.0289078 191.0632477  17.3451061
  57.5369987 191.5324554  16.6672688  58.5873413 191.5368805  19.6145000
  58.0785179 190.6380768  19.9301682  59.1516914 192.4536285  20.5127888
  59.1741753 192.1990509  21.5621166  57.5099716 195.0414124  21.9796104
  56.5466232 195.2035980  21.2296963  57.4934807 194.3525696  23.1165829
  58.3592415 194.2615662  23.6287117  56.2473221 193.7908936  23.7578335
  55.7988548 193.0852966  23.0584755  56.7041245 192.9226379  24.9533863
  57.3906059 192.1558075  24.5944939  57.3092461 193.5484314  25.6093693
  55.5680046 192.2879791  25.8154411  54.7941284 193.0083923  26.0804520
  55.0844269 191.4642029  25.2904320  56.1094894 191.8567963  27.1826935
  56.7041321 190.8260956  27.3719883  55.8776741 192.6872711  28.1913548
  56.3125610 192.5492096  29.0924168  55.2407188 193.4577179  28.0471115
  55.1794472 194.8743134  24.0879097  54.0439682 194.6057587  23.6540508
  55.5602226 195.9892731  24.6999874  56.5150261 196.0260468  25.0272427
  54.5954437 197.0803223  25.0852299  53.8303757 196.5377350  25.6405392
  55.2543449 198.1506958  25.9567909  55.6499176 197.6899719  26.8619785
  56.0503273 198.5968170  25.3605614  54.3178673 199.3005981  26.3937416
  53.8943367 199.7502594  25.4956741  53.4948311 198.9120178  26.9935036
  55.0244141 200.3516541  27.2637463  55.4484406 199.8387909  28.1270409
  55.7573204 200.9156494  26.6868191  53.9169006 201.3126373  27.6997242
  53.5456696 201.8522491  26.8284588  53.1065865 200.8024902  28.2205353
  54.4940338 202.2965546  28.6094646  55.2024460 202.8438416  28.1417828
  53.6779289 202.7852936  28.9489059  54.9414215 201.9439545  29.4435005
  53.9997215 197.6674500  23.8230724  52.8477745 198.0335388  23.8790970
  54.7142143 197.7896881  22.6823406  55.6680183 197.4597626  22.7211933
  54.2876396 198.4747314  21.4086552  53.6669235 199.3218689  21.7004757
  55.6068726 199.0215454  20.7493954  55.9763107 199.7141266  21.5056610
  56.3717155 198.2610016  20.5922432  55.2703056 199.8203125  19.4513149
  54.7894592 199.1273346  18.7608929  54.6388779 200.6356049  19.8044376
  56.4805107 200.3757782  18.7566662  57.2301331 199.5845795  18.7694111
  56.1965256 200.6035919  17.7292633  57.0980186 201.6039581  19.3746662
  56.7318153 201.8686523  20.2779560  57.9294472 202.4622955  18.7360420
  58.3995667 202.0809784  17.5810642  58.1477089 201.2419128  17.0784302
  58.8274727 202.7638397  16.9722137  58.2100563 203.6627655  19.1585922
  57.8535347 203.9693451  20.0524635  58.9061623 204.2086334  18.6711788
  53.4336128 197.5789795  20.4798164  52.4378967 198.1029358  19.9248581
  53.9030266 196.3140411  20.3531971  54.7641449 196.0140839  20.7874737
  53.2256775 195.3129730  19.4795666  52.9842377 195.8214569  18.5461578
  54.2567139 194.2290192  19.0501423  55.0844154 194.7706604  18.5922775
  54.6208954 193.7127380  19.9383621  53.7049065 193.2913971  17.9928093
  52.8547249 192.7726746  18.4357662  53.3537140 193.7891998  17.0889511
  54.8628616 192.3483887  17.5008221  55.6734886 192.9699249  17.1204700
  55.2297401 192.0178223  18.4725361  54.5072746 191.1207275  16.6488438
  55.3243446 190.4035339  16.5704880  53.7378693 190.5235596  17.1382370
  53.8912849 191.5974426  15.3547087  54.5788422 192.1659393  14.8812408
  53.7208138 190.7701569  14.8009691  53.0273705 192.1052704  15.4806871
  51.9577827 194.7549744  20.0627823  50.9485550 194.8010712  19.3785782
  52.0477066 194.2965240  21.3247452  52.9050217 194.3726959  21.8532448
  50.8981590 193.6529083  21.9548855  50.2719536 193.2561035  21.1558075
  51.3048897 192.4439697  22.8710785  51.8443604 192.8566437  23.7235928
  50.4140549 191.9080811  23.1986961  52.2390251 191.5457153  22.0560646
  51.8189049 190.9539948  20.8530922  50.8537598 191.2490540  20.4686031
  52.7410622 190.1536865  20.1781330  52.4186516 189.6799164  19.2627125
  54.0426407 189.8464050  20.6737995  54.6709900 189.1554718  20.1314011
  54.4211082 190.4648590  21.8643570  55.4554291 190.3794250  22.1631641
  53.5465355 191.3121338  22.5307541  53.8867836 191.8239746  23.4188175
  50.0466690 194.6133575  22.7416077  49.2258644 194.1905823  23.4808826
  50.1216316 195.9043121  22.5458317  50.7765503 196.1694489  21.8241081
  49.2328377 196.9160156  23.1649246  49.3617897 196.8535004  24.2454643
  49.7173805 198.2828522  22.6378078  50.6075706 198.5054321  23.2261295
  49.9771042 198.2318420  21.5804310  48.7730713 199.4043427  22.8191242
  48.5942383 200.1572418  23.9911137  47.5717201 200.9814453  23.7470398
  47.1525841 201.7155609  24.4191952  47.0323677 200.7706909  22.4930859
  46.3489418 201.3597717  22.0391846  47.7840195 199.7489471  21.9069557
  47.6059113 199.3034821  20.9393616  47.7375450 196.6538696  22.8760128
  46.9216614 196.8045044  23.8587437  47.3715057 196.2545319  21.6540470
  48.1357918 196.1454315  21.0028400  46.0306664 195.8997955  21.1862087
  45.3098488 196.5830078  21.6353741  45.9954720 195.9786530  19.6741009
  46.7955666 195.3846893  19.2323513  45.0666771 195.5469513  19.3011875
  46.1095047 197.6815338  19.0236206  44.8807526 198.1821747  19.1798954
  45.5088348 194.5200195  21.6454811  44.4062042 194.0801544  21.3862820
  46.2449532 193.8675690  22.5312443  47.0232582 194.3973541  22.8968639
  45.7625694 192.7429810  23.3907490  45.4405212 191.8836823  22.8025227
  46.9837151 192.3602295  24.2841778  47.3142052 193.2220917  24.8638992
  46.7150002 191.6235046  25.0412331  47.7316360 191.9334412  23.6159191
  44.5193481 193.1976776  24.2329311  43.6231956 192.4046783  24.5030899
  44.4025917 194.4904175  24.5701160  44.9908791 195.1992035  24.1558323
  43.1824913 195.0398712  25.2303905  43.2846680 194.6885376  26.2571487
  43.1933479 196.5789337  25.2749786  42.2912636 196.8645325  25.8160648
  44.0918159 196.9446716  25.7720661  43.1286697 197.0425568  23.9318104
  43.1686745 198.0003967  23.9822273  41.8171997 194.5554352  24.7011700
  40.8936462 194.5736542  25.4892769  41.7239647 194.3578339  23.3829708
  42.5598793 194.4901123  22.8317432  40.4565048 194.0879669  22.7251472
  39.6361198 194.5681915  23.2585011  40.5298424 194.6256714  21.3289433
  41.1409645 193.9900360  20.6881638  39.5764732 194.5203400  20.8111649
  41.0353661 196.0198975  21.0675087  42.0876923 196.0254822  21.3515453
  40.8853836 196.4462128  19.6243534  39.8382339 196.3612213  19.3339100
  41.1614189 197.4916840  19.4869099  41.5201645 195.7414551  19.0872574
  40.1867828 197.0252686  21.8191147  40.4820900 196.8536987  22.8542271
  40.5349464 198.0299225  21.5792370  39.1144104 196.8679199  21.7035637
  40.0303345 192.5915680  22.8589516  38.8257217 192.2364807  22.9279137
  41.0248680 191.7267914  23.2025280  41.9720383 192.0574951  23.3191528
  40.8484268 190.3161774  23.6382065  39.8557434 189.9287415  23.4089279
  41.8740692 189.3072205  23.0271130  41.5620041 188.3013306  23.3080368
  41.9924088 189.3094330  21.5787067  42.3290138 190.3026276  21.2814732
  42.6270790 188.5338135  21.1500988  41.0041771 189.2443695  21.1234455
  43.1122971 189.4521637  23.6146812  43.7377701 188.8702698  23.1767406
  40.9091949 190.1888275  25.1794567  41.0921135 191.1779022  25.9245853
  40.6195107 188.9732513  25.6902618  40.5542831 188.1785736  25.0703087
  40.5206184 188.7169037  27.1237526  40.1942291 189.6607056  27.5605698
  39.3053284 187.8246918  27.4391766  39.1435661 187.7896271  28.5165386
  38.4054909 188.1628265  26.9253120  39.4891319 186.4445648  27.0971870
  38.5920258 186.1178589  27.1975136  41.8621521 188.3481293  27.8592510
  41.8258743 188.1958313  29.1121426  42.9120102 188.1973724  27.1198788
  42.7976875 188.3633118  26.1301842  44.2859230 187.8514557  27.5458717
  44.2179222 187.4458923  28.5553265  44.9618301 186.8445282  26.5251541
  45.0772820 187.2487335  25.5194759  45.9818916 186.7258453  26.8905144
  44.1557922 185.5549011  26.4869366  43.4263496 185.1333313  25.4425354
  43.3056908 185.6531677  24.5035915  42.7923126 183.9487305  25.7833118
  42.2379990 183.4031067  25.1390076  43.1047821 183.5267639  27.1101112
  42.8272552 182.3565369  27.8670311  42.1637115 181.5667572  27.5470791
  43.5526085 182.1299133  29.0331573  43.4061470 181.1610107  29.4872265
  44.4446449 183.1365662  29.5127716  44.9835205 182.9408569  30.4280376
  44.6678505 184.3457336  28.8190575  45.4333229 184.9671173  29.2598820
  44.0282364 184.5463104  27.5651932  45.1666260 189.1499023  27.5837212
  44.9636040 190.0827789  26.7343845  46.2820206 189.1377106  28.3643551
  46.5203743 188.1351013  29.3984222  46.6793594 187.1531525  28.9527740
  45.6857300 188.0445099  30.0935879  47.8196716 188.5003204  30.1301327
  48.7548523 188.1217041  29.7175961  47.6336708 188.2337494  31.1705360
  47.7261772 190.0080719  29.9934177  48.7305336 190.4090729  30.1296730
  47.0234375 190.3700714  30.7438927  47.2343216 190.1979675  28.5163612
  46.6377411 191.1029816  28.4016647  48.3368187 190.3566589  27.4518108
  48.6715584 189.3878784  26.7856083  49.0400543 191.5384979  27.4070263
  48.5746346 192.8262024  27.9511089  48.7604752 192.9228210  29.0207958
  47.5299873 193.0775604  27.7677078  49.3589935 193.9158173  27.3286057
  49.5901947 194.6226501  28.1254959  48.8133125 194.3634033  26.4979401
  50.5616798 193.2764282  26.6763725  51.3749809 193.2151031  27.3994789
  50.8994560 193.7613678  25.7604904  50.0642815 191.8223419  26.3510342
  49.6503067 191.7650757  25.3443336  51.1941719 190.7414398  26.2990170
  51.7620735 190.4547424  25.2518940  51.4954414 190.0910645  27.4188805
  51.1107750 190.5340881  28.2409916  52.5803261 189.1435547  27.5227547
  53.4028740 189.6229401  26.9920006  53.1305237 189.1033478  29.0018997
  53.8525429 188.2914276  29.0888882  53.7069359 190.0080872  29.1950741
  52.1612854 188.9709930  30.1753216  51.8171387 189.9616699  31.0787239
  52.1509933 190.9877472  31.0327187  50.9633255 189.4753876  31.9886189
  50.6547050 190.0426025  32.7652245  50.6865997 188.1176300  31.7602444
  49.8613243 187.2031097  32.4103050  49.2647552 187.5872498  33.2245178
  49.7156563 185.9112549  31.9339695  48.9392014 185.3036194  32.3747673
  50.5327911 185.4387970  30.8599663  50.5004349 184.4498291  30.4271698
  51.3551979 186.4294434  30.1697788  51.9544907 186.0954437  29.3356991
  51.4191513 187.7708893  30.6057549  52.3216858 187.7182922  26.9848385
  53.2934303 187.0028229  26.7716312  51.0285416 187.3067627  26.8572636
  50.2876854 187.9778900  27.0014935  50.6166077 185.9491425  26.4243336
  50.9717064 185.2284698  27.1609745  49.0734901 185.7862244  26.4140778
  48.6458740 185.9803467  27.3977261  48.6680489 186.5340424  25.7325382
  48.7009087 184.3545685  26.0358639  49.2380104 184.0903320  25.1249275
  48.9927444 183.3092499  27.1297894  48.3072052 183.4460754  27.9661026
  48.7364349 182.2929382  26.8305874  50.0155716 183.3339233  27.5057182
  47.2173424 184.2005005  25.6109543  46.9009361 185.0539856  25.0113316
  47.2047272 183.3594360  24.9177303  46.6019707 184.0704651  26.5011864
  51.2369537 185.7245483  25.0421028  51.9301643 184.8223572  24.7490673
  51.0469894 186.7037964  24.1758137  50.4829330 187.5078278  24.4113369
  51.4991570 186.5933533  22.7855873  51.1427689 185.6564636  22.3574142
  50.8647537 187.7688141  21.9956837  51.2816162 188.7325745  22.2880726
  51.1742287 187.5945740  20.9651680  49.3529396 187.7646332  22.0425777
  48.5968437 186.6704407  21.5108376  49.0414848 185.7855682  21.0799274
  47.1925201 186.5897064  21.7194042  46.6638107 185.7194519  21.3595181
  46.5564270 187.6060028  22.3923664  45.2443886 187.5074768  22.7029305
  44.7888603 186.8727875  22.1450272  47.3062172 188.7265625  22.8354454
  46.7914658 189.4924164  23.3966141  48.6518631 188.8256531  22.6009235
  49.1443863 189.6522522  23.0913925  53.0243111 186.5959930  22.6667233
  53.4801598 185.9193726  21.7540283  53.8137283 187.1841736  23.5641689
  53.3059578 187.6622620  24.2947121  55.3092918 186.9496918  23.6082993
  55.7200317 187.4959869  22.7592068  55.9910965 187.6379395  24.7964382
  55.6847954 187.2079773  25.7500687  57.0694542 187.5001373  24.7172890
  55.6024170 189.0589294  24.7083740  56.1550026 189.6467896  25.2286415
  55.7451324 185.4948425  23.6740608  56.8061218 185.1770935  23.1538982
  54.8275604 184.6593933  24.1761341  53.9371719 185.0536346  24.4442616
  54.8947792 183.2106323  24.2936974  55.9468765 182.9509735  24.4110336
  54.1648865 182.7151947  25.5878258  53.1154251 182.7363586  25.2940788
  54.4120522 181.6699219  25.7733192  54.4276009 183.4767914  26.8705978
  54.1920166 184.5156097  26.6394176  53.5207748 183.0357361  28.0226822
  53.6738625 182.0002441  28.3267040  53.6367378 183.7107391  28.8706264
  52.5370941 183.0647430  27.5540333  55.8726845 183.3449554  27.4164314
  56.4798889 183.9617462  26.7538776  56.0457535 183.6062469  28.4604015
  56.1993370 182.3078613  27.3400688  54.2729759 182.4493103  23.1457672
  54.2757568 181.1966858  23.1937313  53.7389755 183.1454163  22.1749821
  53.8521385 184.1480865  22.2190094  53.2779541 182.5084991  20.9352570
  53.7001724 181.5042114  20.8998642  51.7263031 182.3991852  21.0079575
  51.1659317 183.3104858  21.2168350  51.3815422 182.1102600  20.0151024
  51.2411118 181.2276611  21.8163853  50.8761826 181.4852295  23.1158009
  51.0034218 182.4878387  23.4965801  50.2966499 180.5006409  23.9220810
  50.0172462 180.6543427  24.9539299  49.9054832 179.2682343  23.3762417
  49.2804260 178.2671661  24.1209049  49.5069313 178.3887634  25.0458431
  50.4114532 178.8880005  22.0813255  50.1330376 177.9467621  21.6308384
  50.9884453 179.9165802  21.2755508  51.2032051 179.6747437  20.2451210
  53.9108162 183.1978607  19.6333637  53.7159767 182.6415863  18.5777836
  54.6740494 184.2920532  19.7863464  54.6913223 184.6464386  20.7319736
  55.3294029 185.0246124  18.7483959  54.7210007 185.1494904  17.8526573
  55.4989319 186.4618378  19.3278408  54.5276337 186.9564667  19.3330135
  55.8212242 186.3387146  20.3617992  56.5627747 187.1271667  18.4512405
  56.3901901 187.1068878  17.1852932  57.5280762 187.6208344  19.0761585
  56.5748787 184.3168945  18.2765503  57.4533386 183.9395599  19.0551891
  56.6998978 184.1854248  16.9020786  55.9594574 184.4342194  16.2618084
  57.8078499 183.3942261  16.3855858  57.8530922 182.4416351  16.9134541
  57.6990395 183.1228790  14.8743467  57.7315407 183.9649963  14.1830616
  58.4942093 182.4466705  14.5604153  56.8268814 182.4866028  14.7240143
  59.1709251 184.0645599  16.5821533  60.1697617 183.4525299  16.9375820
  59.2235641 185.4410858  16.4868355  58.3836784 185.9318237  16.2150497
  60.4560814 186.2172546  16.6950912  61.2544250 185.9002686  16.0240688
  60.1725693 187.6386414  16.3151951  59.3434105 188.0644379  16.8802586
  61.0148544 188.2139740  16.6994591  60.0195656 188.0054016  14.8112497
  59.0078812 187.8000336  14.4613705  60.0510521 189.0870361  14.6800823
  61.0309601 187.2717590  13.9096422  62.2809982 187.3753204  14.0546207
  60.5209236 186.4805450  13.0329065  60.9234734 186.1723022  18.1756516
  62.1038475 185.9723969  18.4692993  60.0132179 186.2420807  19.1889477
  59.0349922 186.4247437  19.0163059  60.4204865 186.1603088  20.6427860
  61.2677078 186.8222504  20.8221264  59.3016319 186.5821381  21.6011829
  58.4251938 185.9461060  21.4769840  59.6761284 186.5861969  23.0993271
  60.4272766 187.3454132  23.3172054  58.8670807 186.7638702  23.8078327
  60.0256844 185.6128387  23.4435272  58.8756866 187.8989410  21.2078285
  58.3093872 187.7276764  20.4518013  60.8106232 184.6991730  20.9629269
  61.7623329 184.3676910  21.5929241  60.0037231 183.7630005  20.4019623
  59.2833481 183.9985046  19.7343559  60.3226204 182.3001251  20.5546684
  60.3726997 181.9705353  21.5924339  59.2259064 181.4162292  19.9180450
  59.0909805 181.7778015  18.8986511  59.6057472 180.3965912  19.9826107
  57.8674164 181.4479370  20.6378040  57.5644035 182.4706573  20.8621750
  56.8196907 180.7673950  19.7105274  57.1059723 179.7502747  19.4429474
  55.8958168 180.7773743  20.2888489  56.5740585 181.3012390  18.7924938
  57.8955650 180.5042267  21.8835297  58.4270706 180.9953308  22.6986446
  56.8917847 180.2249908  22.2037716  58.4655075 179.5895691  21.7201786
  61.7402611 181.9350281  19.9941502  62.4416771 181.1005554  20.5801830
  62.1410980 182.4367523  18.8475609  61.4786072 183.0331726  18.3726883
  63.5001144 182.3122559  18.2561340  63.7065392 181.2466583  18.1562023
  63.6979370 183.0078125  16.9488392  63.2354660 183.9947510  16.9352741
  64.7610550 183.1520538  16.7562618  63.1997871 182.1042480  15.8491879
  63.8716888 181.2523651  15.7445583  62.2081299 181.7209625  16.0896378
  63.1014404 182.9739990  14.2796059  64.8847961 183.2143402  13.9480562
  65.4145508 182.2665710  13.8521347  65.0841599 183.7563782  13.0236330
  65.3275452 183.8565979  14.7093630  64.5475159 182.8718719  19.2519054
  65.5489120 182.2165375  19.4584255  64.3287430 184.1094971  19.7741089
  63.4352264 184.5772705  19.7201385  65.3403397 184.7036438  20.6482925
  66.2771225 184.6540222  20.0932484  65.0321884 186.1479950  20.8179150
  64.5251465 186.4933014  19.9169331  64.3082809 186.1858673  21.6319313
  66.2549820 187.0824432  21.2140141  65.9503708 188.0410004  21.6341228
  66.7360687 186.5601349  22.0409622  67.2991257 187.2383575  20.0888977
  66.9695969 187.0496674  18.8961163  68.4636230 187.6109314  20.3921871
  65.5437927 184.0448151  22.0198936  66.6408615 184.1087341  22.6052895
  64.4794006 183.4146423  22.5715656  63.5429955 183.5436249  22.2157574
  64.6763077 182.5942535  23.7606525  65.0945511 183.1137238  24.6228180
  63.3080025 182.1535797  24.2258472  62.7317543 181.7508698  23.3928642
  63.3626862 181.5258484  25.1152706  62.4589500 183.2831573  24.8195534
  62.9495850 183.8234558  25.6291523  62.3146591 184.0028229  24.0137272
  61.1294632 182.7059631  25.3359165  60.5377121 183.5356598  25.7225933
  60.5987282 182.3808136  24.4410954  61.2585411 181.6789856  26.3711815
  62.1438904 181.4719086  26.8109322  60.2196007 181.1810303  27.0523529
  59.0013351 181.2837830  26.6388931  58.9108467 181.7279510  25.7363243
  58.2239952 180.9874878  27.2116604  60.3753510 180.6587830  28.2096939
  61.2749252 180.7910614  28.6494274  59.5660477 180.4838867  28.7880898
  65.6084061 181.3909454  23.4858990  66.4297104 180.9842987  24.3136635
  65.4987411 180.7835999  22.2831993  64.6671829 180.9146118  21.7251320
  66.4071655 179.7322388  21.8674068  66.4980850 179.0087585  22.6775894
  65.7658691 178.9256287  20.6947098  65.6279068 179.5320129  19.7995129
  66.6517944 177.7416382  20.2720680  66.9290924 177.1207275  21.1239414
  66.0660477 177.1431732  19.5743256  67.5281906 178.0648041  19.7102947
  64.3569183 178.2535248  20.9652710  63.6284676 179.0489807  21.1224079
  64.0838623 177.7389374  20.0439968  64.4540863 177.6214294  21.8479462
  67.8936691 180.1824188  21.6239662  68.8509445 179.5531921  22.1121864
  68.0509415 181.3853760  21.0203915  67.2052994 181.8452759  20.7146606
  69.3591614 182.0840607  20.8930302  69.9665222 181.3422241  20.3744926
  69.2759399 183.3600464  20.1119156  68.4574966 183.9537964  20.5190067
  70.2314224 183.8632660  20.2600002  69.0414200 183.1566620  18.6293812
  69.7022629 182.3780670  18.2483616  67.9748764 182.9647980  18.5119743
  69.3619461 184.5615997  18.1107655  69.1842575 185.3647308  18.8259754
  70.4262543 184.6089020  17.8803043  68.5490036 184.8664246  16.8438454
  68.9187088 184.1577606  16.1027584  67.4702759 184.7600403  16.9584484
  68.8390198 186.2414093  16.2819290  69.7780609 186.5911865  16.4082813
  68.6421432 186.3120880  15.2938290  68.3220673 186.9645386  16.7614422
  70.0716400 182.3524933  22.2564297  71.2797928 182.1906738  22.3836155
  69.3951721 182.8233948  23.2677784  68.5932159 183.3794250  23.0073719
  69.9170685 182.9269409  24.6444702  70.8735657 183.4483643  24.6080341
  68.9353867 183.8376770  25.4640579  68.5238953 184.5611115  24.7601986
  68.1225967 183.1957550  25.8037968  69.6929626 184.5883484  26.5697670
  70.0234451 183.8269653  27.2762985  70.4772568 185.1608734  26.0746059
  68.7672806 185.5702972  27.3082428  69.3606949 185.9317169  28.1480808
  68.5512772 186.4197388  26.6602573  67.5364761 184.8625031  27.8526096
  67.7084808 183.9637451  28.2800999  66.3468704 185.3528290  27.9399872
  66.0666122 186.6289215  27.6952438  66.7891006 187.2935486  27.4577904
  65.1250305 186.9539337  27.8622513  65.3053055 184.5972290  28.3357506
  65.5241394 183.6603088  28.6429520  64.3996124 185.0417633  28.3828812
  70.3085480 181.6484222  25.3498173  71.0510254 181.6132050  26.3026066
  69.9699249 180.5219269  24.6875381  69.2280273 180.5051575  24.0023975
  70.5761795 179.2209930  24.8983173  71.1006699 179.1927490  25.8534184
  69.4937897 178.1161194  24.9370213  68.7465591 178.3610229  25.6918507
  69.0588379 177.9603119  23.9497776  70.0889664 176.7378693  25.3807468
  69.3370819 175.9542236  25.2875729  70.8845215 176.4683533  24.6860905
  70.6044159 176.6975403  26.8065758  69.8338165 176.6651001  27.7740498
  71.8601913 176.7223053  27.0737381  72.1215286 176.7071991  28.0492268
  72.5468674 176.5597076  26.3511391  71.7190781 178.9488678  23.8837109
  72.7999039 178.6544037  24.2946072  71.5143356 179.0100708  22.5650311
  70.5724258 179.1586456  22.2320976  72.5200729 178.5884552  21.5506268
  72.6987457 177.5216064  21.6848221  72.0736923 178.7912598  20.0433674
  71.8570633 179.8459167  19.8734913  72.8555679 178.5278015  19.3310719
  70.8326874 177.9817200  19.7769718  70.0478287 178.0866852  20.5260296
  70.2237473 178.3382111  18.4296494  70.8798981 178.2947845  17.5603523
  69.3682709 177.6950684  18.2231979  69.7284088 179.3091278  18.4212723
  71.0715714 176.4565735  19.6284962  71.3986435 175.9671478  20.5458832
  70.1357880 175.9533997  19.3851490  71.7505951 176.1847076  18.8203354
  73.8646545 179.3704071  21.7538414  74.8913651 178.7334747  21.5565262
  73.8169861 180.6940460  22.0787296  72.8916245 181.0916901  22.1541653
  75.0225525 181.5266724  22.3461113  75.6045990 181.4337769  21.4292164
  74.7016830 183.0083618  22.5054569  73.7430191 183.1017151  23.0156994
  75.4850159 183.4486389  23.1224155  74.5841217 183.7839050  21.2842522
  75.6619873 184.4718933  20.7613850  75.1734238 185.0859528  19.6268368
  75.7227325 185.8116302  19.0454044  73.8584976 184.7599945  19.4700089
  73.2947769 184.9922943  18.6647968  73.4814987 183.9423523  20.4915257
  72.4941177 183.6177521  20.7849617  75.9252930 180.9754028  23.4645367
  77.1732025 181.1594696  23.3483200  75.3771591 180.4250031  24.5435295
  74.3827286 180.2980347  24.6664162  76.1825027 179.7931519  25.5560627
  76.9415054 180.5282898  25.8236332  75.3938904 179.3160400  26.8104153
  74.5736771 178.6603394  26.5181465  76.0512238 178.8260956  27.5287266
  74.6588745 180.3624115  27.6514683  74.0896454 180.9543457  26.9347401
  73.9919662 179.8290863  28.3288765  75.5916214 181.2042847  28.5791683
  76.6269913 181.7503815  28.1195202  75.2269897 181.5057373  29.7210979
  76.8750381 178.5548248  24.9822102  78.0130615 178.2638855  25.3388577
  76.2395248 177.6932220  24.1952362  75.3065872 177.9159088  23.8787956
  76.9185028 176.5036011  23.5766392  77.5065918 176.0116272  24.3513756
  75.8452835 175.5042877  23.0656815  75.1994858 175.9865265  22.3318501
  76.3688812 174.7071228  22.5379677  74.9359665 174.8486786  24.1216888
  75.2518539 174.4872284  25.3927326  76.1834641 174.6545563  25.9128361
  74.1316757 173.8712463  25.9524040  74.1955032 173.3730316  26.8286514
  73.1456680 173.6600494  25.0484314  72.0077209 172.8626556  25.1023827
  71.6934586 172.2550659  25.9381371  71.2088318 172.7616882  23.9508953
  70.3517761 172.1047058  23.9660759  71.6210861 173.3770905  22.7211628
  70.9839935 173.2735138  21.8552647  72.8759155 174.0176239  22.7132835
  73.2205200 174.3520813  21.7459240  73.6186752 174.2819977  23.9019279
  77.8328323 176.9021912  22.4104099  78.5633392 176.0184631  21.9535370
  77.9202423 178.1981964  22.0284863  77.3251495 178.8007050  22.5788956
  78.7536850 178.7494202  20.9588795  79.6284180 178.1017151  20.9004421
  78.1746597 178.5001678  19.6080189  77.6239319 177.5601349  19.6417789
  77.5030746 179.3155365  19.3392315  79.2802429 178.4598236  18.5299797
  80.4211121 178.9363556  18.7404423  79.0164490 177.9125061  17.4418583
  79.2990494 180.1563721  21.1339188  78.9076767 181.0837097  20.4731312
  80.3087311 180.2829742  21.9874954  80.5335617 179.4513092  22.5146503
  81.0423203 181.4651031  22.5085411  80.2597427 182.0425415  23.0007172
  82.0999680 181.1378632  23.5950661  82.9178543 180.5225983  23.2200890
  82.5724564 182.0881958  23.8434792  81.5736694 180.5246582  24.8960400
  82.3319473 180.7482910  25.6464424  80.6036530 180.9404907  25.1685524
  81.4208984 178.9433441  24.8930416  81.0016632 178.3780823  23.8815250
  81.8196030 178.3688660  25.9334679  81.6391068 182.3354950  21.3599930
  82.1257935 183.4334106  21.5970364  81.6161118 181.8399658  20.1336803
  81.1088104 180.9709625  20.0466404  82.1199265 182.5305176  18.9695969
  82.2745361 183.5748596  19.2407589  83.4806213 181.9436646  18.5397549
  83.2404251 180.9038239  18.3181133  83.7916107 182.4176636  17.6087723
  84.4876785 181.9601135  19.6527538  84.5800781 180.9736938  20.3620586
  85.3532181 182.9561615  19.6902866  86.1504440 182.8535919  20.3018436
  85.3699570 183.7125397  19.0211887  81.0348434 182.6441345  17.8654118
  81.4132233 183.0160980  16.7224979  79.7681808 182.2275085  18.0226994
  79.5879211 181.7662201  18.9029350  78.7128296 182.4666595  17.0392456
  79.1910095 182.1141968  16.1253414  77.5733032 181.5792084  17.4162102
  77.9901276 180.5720673  17.4204369  77.2112274 181.8822021  18.3986568
  76.4499512 181.5384979  16.2644501  76.8962173 181.8000183  15.3049936
  75.7923813 180.1574860  16.1043911  75.0396576 179.9670715  16.8694115
  75.2176666 180.1758423  15.1783981  76.5842514 179.4084473  16.1059456
  75.3144150 182.4223785  16.6116562  75.5788269 183.4755402  16.5165539
  74.5254822 182.1586609  15.9072914  74.8755264 182.2823181  17.5995102
  78.3791428 183.9452820  16.8037033  78.0416489 184.7009735  17.7048626
  78.3053284 184.3364258  15.5218477  78.6693268 183.7071533  14.8207006
  77.6073380 185.5019531  14.9261103  77.4298706 186.2665405  15.6824207
  78.5105133 186.2207642  13.9192219  78.9272461 185.4394226  13.2836514
  77.8654480 186.8603058  13.3167448  79.5895386 187.0366821  14.6070051
  79.0550766 187.8110199  15.1573381  80.0948639 186.5131073  15.4185534
  80.5570679 187.6444550  13.6090965  81.2744980 188.2873077  14.1191254
  81.0959244 186.7958984  13.1875515  80.0336609 188.3575897  12.3418407
  80.9026566 188.6478271  11.7513237  79.5260849 187.5855408  11.7635660
  79.1410599 189.5045624  12.5749588  79.5945511 190.3841248  12.7770615
  78.5154266 189.6394653  11.7936239  78.5665054 189.3654633  13.3938856
  76.3133621 185.1130371  14.2578564  76.2011414 184.0059052  13.6875134
  75.3376465 185.9899292  14.2979126  75.4582596 186.8913574  14.7372103
  73.9609680 185.7913208  13.7629929  73.6276321 184.8486481  14.1969986
  72.9524841 186.7479248  14.4218187  73.4105377 187.7369843  14.4141912
  72.0232544 186.8249817  13.8572912  72.5573044 186.4229431  15.9193640
  73.2837372 185.6212006  16.5335789  71.4800339 186.9152985  16.3909855
  73.8477859 185.6986389  12.2588453  72.7061768 185.4695587  11.8239603
  74.9793854 185.8164368  11.5395832  75.8420868 186.0096741  12.0279541
  75.0372543 185.5817108  10.1051302  74.2313309 186.1037140   9.5892706
  76.3632431 186.1081238   9.5015965  77.0247955 185.2424316   9.5337591
  76.2284164 186.2759857   8.4330730  77.0642548 187.3013458  10.1577110
  77.4729538 187.1053619  11.1490021  77.9986420 187.5108337   9.6370077
  76.2985077 188.6548767  10.1121931  75.4620285 188.8580475   9.1868458
  76.4495697 189.4572754  11.0577898  74.8554230 184.0777588   9.6601324
  74.3983231 183.7722473   8.5652094  75.1754532 183.0941467  10.5432520
  75.6535797 183.2865295  11.4118633  75.1540527 181.6351318  10.2475290
  75.3531952 181.4275970   9.1961632  76.1947021 180.9149323  11.1046267
  76.4902878 179.9368134  10.7251577  77.1492844 181.4406433  11.0819941
  75.7786484 180.8156281  12.4429083  76.1985703 180.0830383  12.8996191
  73.7573624 180.9954224  10.5211077  73.4980469 179.9949188   9.8511992
  72.9799118 181.4505920  11.4464493  73.2775803 182.2451324  11.9943590
  71.6414261 180.9295654  11.6559601  71.5271530 179.8498688  11.5595560
  71.3128662 181.3021240  13.0935726  71.3833923 182.3890839  13.0533485
  70.2773972 181.0785675  13.3503437  72.2357559 180.7134247  14.1878157
  73.2606277 181.0032196  13.9559755  71.8468628 181.2299805  15.6428757
  70.8264236 180.8779755  15.7941761  72.5323715 180.8950958  16.4213619
  71.7379837 182.3144073  15.6590500  72.0548019 179.2063751  14.2685337
  72.2122116 178.8330841  13.2566195  72.8710632 178.8349915  14.8881330
  71.0970535 178.8762360  14.6708164  70.6114807 181.5543060  10.6458588
  70.7906189 182.7057037  10.2383881  69.5411758 180.8099213  10.2645149
  69.3953781 179.3755646  10.4126635  69.0702667 179.1558075  11.4295788
  70.3608704 178.9357300  10.1627140  68.3647919 179.0186920   9.3310947
  67.8516769 178.0922699   9.5890932  68.8548126 178.9465027   8.3601303
  67.4179916 180.2324524   9.3748541  66.7243500 180.2346802  10.2156610
  66.8501053 180.1825256   8.4458132  68.4444427 181.3562012   9.4788389
  68.7445374 181.6945496   8.4870911  67.7726593 182.6352997  10.1292572
  67.4233704 182.6164856  11.2999153  67.4983139 183.7056732   9.3650589
  67.8822784 183.8319092   8.4394588  66.4495621 184.7130585   9.7417269
  66.6804199 185.0827637  10.7407913  66.4715118 185.9383850   8.8310585
  65.5747299 186.5259399   9.0276852  67.7002792 186.7570648   9.2313671
  68.6638184 186.2615662   9.1123381  67.8312454 187.6573792   8.6310482
  67.6463394 187.1526337  10.2456274  66.5975800 185.6104279   7.4437914
  66.4507217 186.4494171   7.0009398  65.0161972 184.1830902   9.8156462
  64.1518860 184.6472015  10.5863934  64.6866684 183.0645905   9.1455698
  65.2928925 182.5833588   8.4967175  63.3423653 182.5312500   9.0195150
  62.6558647 183.3778687   9.0283165  63.2612038 181.9060822   7.5631924
  63.7737007 182.5173187   6.8203363  63.8257942 180.9794006   7.6661716
  61.8450584 181.7914734   7.0994577  61.1765480 182.7743988   7.0615401
  61.4463768 180.5390625   6.6878567  60.5467567 180.4748230   6.2332635
  62.0742035 179.7520599   6.6068563  63.0374947 181.5094757  10.1336031
  63.8980980 180.6243591  10.2781029  61.8671265 181.5179596  10.8638992
  60.7108421 182.4365387  10.6660480  60.4795189 182.5272827   9.6047506
  60.9831276 183.4215851  11.0450191  59.5398750 181.8322449  11.4547510
  58.8778572 181.1681976  10.8989840  58.9237251 182.6543121  11.8189611
  60.2336426 181.1112213  12.5921679  59.5510216 180.4033813  13.0623655
  60.4983330 181.7936707  13.3998241  61.5477257 180.5854340  11.9423399
  62.3526840 180.5831604  12.6772814  61.4109001 179.1207428  11.4714727
  61.9445305 178.2316742  12.1772661  60.9076004 178.8665466  10.2550192
  60.5665436 179.6062012   9.6577902  60.6665878 177.4430695   9.7661371
  60.0878563 176.9494019  10.5468187  59.8964500 177.4950867   8.4333134
  60.5011406 178.1095276   7.7662973  59.9160690 176.1504364   7.6818619
  59.4708252 175.4228210   8.3604288  59.4123955 176.0152130   6.7247157
  60.9576759 175.8920288   7.4911098  58.4776459 177.9593353   8.6911821
  57.8187141 177.3257751   8.0974503  58.2626076 177.8370667   9.7527418
  58.2279816 179.3662567   8.1163807  58.3882790 179.3920746   7.0385408
  57.1689720 179.6209869   8.1577883  58.7736740 180.1540222   8.6357470
  62.0023651 176.7305298   9.7195997  62.2007904 175.8165894  10.4576778
  62.9765015 177.3774109   9.0923147  62.7706718 178.1871033   8.5247326
  64.3041458 176.8165894   8.9955101  64.2375641 175.7810669   8.6618004
  65.1185760 177.5523834   7.8994083  65.2215881 178.5667419   8.2848310
  66.1353607 177.1731873   7.7970920  64.3492203 177.7796783   6.5655947
  63.5074463 178.6696777   6.4899387  64.8356018 177.1557617   5.5418620
  65.1442261 176.8360748  10.2851048  65.9069748 175.8814545  10.4927206
  64.9701233 177.8137512  11.1741695  64.4461365 178.6236267  10.8747711
  65.5065994 177.9197693  12.5308886  66.5858459 177.8478088  12.3961496
  65.2110748 179.3038330  13.1369352  65.4608917 180.0295258  12.3629370
  64.1400223 179.5050354  13.1586075  65.8308640 179.6591187  14.4750423
  65.3335800 179.0228882  15.6065931  64.4878387 178.3590546  15.5043516
  65.9034195 179.2649689  16.9029255  65.4996414 178.8181305  17.7994194
  67.0263901 180.1623535  17.0292034  67.5245667 180.2995911  17.9775620
  67.5529861 180.7184296  15.8424339  68.4821777 181.2593231  15.9446516
  67.0452652 180.3820496  14.5928526  67.5959930 180.7755585  13.7512817
  65.1275558 176.7656403  13.4312277  65.9450073 176.0758362  14.0487146
  63.8084831 176.4263000  13.4386129  63.0851250 176.9259186  12.9413776
  63.2951736 175.3625641  14.2661543  63.9050102 175.5032959  15.1585646
  61.8257828 175.5493164  14.6315088  61.6121025 174.7991180  15.3928528
  61.6831474 176.5757599  14.9694157  61.0125961 175.3532562  13.4499874
  61.1001587 176.1705017  12.9539700  63.6122780 174.0240326  13.6459045
  63.7721214 173.0732574  14.3825788  63.7367401 173.9609985  12.2953157
  63.3904381 174.7287598  11.7378988  64.2363358 172.7593994  11.6039228
  63.7078247 171.9204254  12.0565653  63.9232483 172.8107300  10.1302786
  64.2636490 173.7720184   9.7453661  64.6287308 172.0859070   9.7240562
  62.5277672 172.3917389   9.7062054  61.8403511 171.2835846  10.3322668
  62.3132286 170.6641693  11.0800076  60.6411324 170.8910217   9.8140488
  60.0994415 170.0410767  10.2020884  60.0611000 171.6166382   8.7580347
  58.7768517 171.2216949   8.2786732  58.4238548 171.8437958   7.6383743
  60.6701355 172.7730255   8.1846867  60.1292343 173.3287811   7.4330506
  61.9033966 173.1181793   8.7006521  62.4310112 173.9855652   8.3323212
  65.7362747 172.5681610  11.9389696  66.0991592 171.4169312  12.2642517
  66.6142960 173.5429382  12.0664587  66.2333908 174.4579163  11.8719826
  68.0012283 173.4140472  12.4883528  68.4532394 172.6146851  11.9011507
  68.6654053 174.7617950  12.3233871  68.5534821 175.1266479  11.3023825
  68.1830597 175.4845276  12.9814749  70.1160278 174.7981262  12.7140865
  70.4420853 175.8360901  12.6478157  70.2818527 174.4209747  13.7232275
  70.8859711 174.0052338  11.6795759  71.9289932 173.9007721  11.9783955
  70.4248047 173.0434418  11.4551468  70.9834824 174.8139191  10.4669132
  70.4961243 174.3783875   9.6969213  71.9843826 175.6482849  10.1106548
  72.9178543 176.0826111  11.0108995  72.9652405 175.8157806  11.9838619
  73.6867905 176.6038208  10.6144485  72.0929871 176.0376129   8.8840466
  71.6204147 175.4875793   8.1810217  72.7648544 176.7430573   8.6174955
  67.9878845 173.0083313  13.9886150  68.6419220 172.0581512  14.3901472
  67.2813110 173.6734467  14.8672504  66.7728500 174.4804230  14.5350590
  67.3021851 173.3134155  16.2920113  68.3109436 173.2968140  16.7046108
  66.4484100 174.2831116  17.1130619  65.5114670 174.4406586  16.5788116
  66.2740936 173.8437958  18.5708084  67.2623672 173.7142181  19.0119686
  65.6616898 174.6122589  19.0425320  65.7453461 172.8943481  18.6549759
  67.1631165 175.6650238  17.1680641  67.3819122 175.9784851  16.1472950
  66.5584793 176.4688568  17.5880241  68.1321030 175.6043091  17.6635208
  66.7503128 171.8659668  16.4716263  67.4201889 171.0520325  17.1449375
  65.6124115 171.4550629  15.8303375  65.1241684 172.1309357  15.2603273
  65.1106796 170.0742340  15.8120022  64.8578110 169.7159729  16.8099022
  63.8278732 170.0182648  14.9331818  64.0653000 170.5235443  13.9970083
  63.5918274 168.9654999  14.7780170  63.0004845 170.5019684  15.4523764
  66.1525803 169.0192719  15.3595819  66.2332001 167.9764862  15.9643211
  66.9887009 169.3018646  14.3361588  66.8900986 170.1800385  13.8471012
  68.0657806 168.4621277  13.8665552  67.6197510 167.5698853  13.4271650
  68.7588654 169.2238922  12.6755753  69.3489456 170.1008606  12.9417038
  69.4623871 168.5994720  12.1248932  67.9643936 169.4087524  11.9525681
  69.0469589 168.1744385  14.9974651  69.5691147 167.0328827  15.1010065
  69.5079651 169.1712494  15.7688637  68.9654312 170.0214386  15.7147036
  70.6842346 169.1789703  16.5912399  71.2632751 168.3267517  16.2355137
  71.5831680 170.3997498  16.2779312  72.5792923 170.2688141  16.7006569
  71.7256470 170.4573059  15.1988182  70.8415680 171.9303284  16.8246822
  69.8949966 171.9993896  15.8844061  70.4128342 168.8950806  18.0465317
  71.3405228 169.0623322  18.8098469  69.1095047 168.6170959  18.4213791
  68.4152451 168.6004486  17.6880093  68.6868896 168.3736420  19.8241081
  69.2243347 169.1244812  20.4033279  67.2135925 168.7007599  19.9438381
  66.7423477 168.6011047  18.9660339  66.7690506 168.0369263  20.6853218
  66.9401703 170.1473083  20.2954960  67.6120758 170.7920990  19.7290154
  65.4608078 170.5525360  20.1320419  64.7916565 169.8943634  20.6862583
  65.3745041 171.5230713  20.6206455  65.1487885 170.6914520  19.0969334
  67.3842010 170.4367981  21.7321930  68.4197159 170.2442932  22.0128155
  67.2393112 171.5112762  21.8444214  66.6724625 169.9883881  22.4253407
  68.9049530 166.9175720  20.3948479  68.4777527 165.9002075  19.7941170
  69.4650803 166.8159027  21.5854740  70.2038651 167.7969208  22.3604145
  69.5351334 168.3875885  22.9865303  70.6045456 168.4501343  21.5852604
  71.2743378 167.1194000  23.2061672  70.8690643 167.1133423  24.2180023
  72.1880646 167.6989594  23.0745258  71.2928391 165.7028503  22.6328754
  71.4897919 164.9269867  23.3726921  72.0640106 165.6589813  21.8638000
  69.9461899 165.4994659  21.9897022  70.1985092 164.8127899  21.1816750
  69.0021439 164.6985931  22.8988895  69.3050308 164.3672791  24.0802231
  67.8162308 164.4057922  22.3790150  67.7374954 164.5969849  21.3904057
  66.7106705 163.6817780  22.9952984  66.9858932 163.4986877  24.0339661
  65.4661560 164.5164490  22.9027443  64.6446533 163.8617401  23.1935635
  65.4569473 165.6762695  23.9177914  66.3345718 166.3049316  23.7672825
  64.4566650 166.0980530  23.8196278  65.6017990 165.2720795  24.9196682
  65.1682892 164.9657745  21.4502754  65.6530685 165.9261322  21.2747955
  65.5807114 164.2265167  20.7636089  63.6976585 165.1221771  21.1675606
  63.2673836 165.6446838  22.0219364  63.4664803 165.6880341  20.2650852
  63.2327003 164.1371002  21.1284466  66.5415039 162.3031769  22.4313450
  67.1896973 161.8563232  21.4796886  65.6668243 161.5622559  23.0960693
  65.2156754 162.0171204  23.8768845  65.2552567 160.1943817  22.7139664
  66.1804047 159.6630707  22.4905453  64.7094116 159.4824829  24.0344334
  64.5813446 158.4328308  23.7699718  65.5434723 159.4921722  24.7361069
  63.4566154 160.1004944  24.6372013  63.5769310 160.8813477  25.6151752
  62.3804970 159.7048035  24.1802692  64.2576294 160.1564789  21.5592804
  63.5457230 161.1545258  21.2733078  64.3311310 159.0226288  20.8273010
  64.8574600 158.2504425  21.2104740  63.6419830 158.8396149  19.5121212
  63.8820229 159.7626343  18.9843922  64.0030899 157.5800323  18.6707554
  63.8452225 156.7287292  19.3329353  63.4424133 157.6121063  17.7365627
  65.4663925 157.5404053  18.2594051  66.0491257 158.6378174  18.0364113
  66.1300049 156.4854736  18.2462597  62.0512390 158.9606781  19.6306839
  61.3697548 159.4190521  18.7344418  61.4667053 158.5545197  20.7650738
  61.8785477 158.1900787  21.6122284  60.0300941 158.6256256  20.8748646
  59.6198120 158.2346954  19.9437656  59.5462303 157.7630310  22.0431843
  60.0100746 158.0396576  22.9899826  58.4632797 157.8441162  22.1367035
  59.6725655 156.6985016  21.8459091  59.6331863 160.1386871  21.1076527
  58.4560394 160.4440460  20.8177605  60.5228081 161.0825806  21.5380802
  61.4097900 160.6645203  21.7801342  60.4274673 162.5609589  21.7166882
  59.3706436 162.8092804  21.8144627  61.1499405 162.9235840  22.9747581
  60.7721405 162.2542725  23.7476578  62.2221336 162.7375336  22.9123478
  60.9330025 164.3850250  23.3965797  61.2201805 165.0961456  22.6220169
  59.5337601 164.6641541  23.8706551  59.1843147 163.9406433  24.6072235
  59.4655495 165.6667328  24.2928905  58.9365196 164.6129913  22.9602757
  61.8656578 164.6519623  24.5865459  62.8881416 164.4716187  24.2547379
  61.7971230 165.7007751  24.8753471  61.5601044 164.0034332  25.4076080
  60.8067093 163.2731476  20.4160423  60.1162186 164.2375183  20.0954990
  61.6630211 162.7164307  19.5882397  62.2233772 161.9323273  19.8903599
  61.8373528 163.1604919  18.1645927  61.9441414 164.2398987  18.0570927
  63.1063004 162.4791260  17.6031494  63.2096062 161.4583740  17.9712677
  63.0545616 162.4881897  16.5144138  64.2765579 163.4144592  17.9712105
  64.2145386 164.4004059  17.5106030  64.1488953 163.6957550  19.0165195
  65.6851807 162.7995605  17.7784119  66.4250793 163.4059296  18.3008728
  65.6717453 161.7775726  18.1571598  66.1204605 162.8509521  16.3528290
  65.9101257 161.9750671  15.8960333  66.9207077 163.7881927  15.8298492
  67.3558426 164.8332672  16.4997272  67.1506424 164.9489899  17.4818707
  67.8598404 165.5793304  16.0420341  67.2178726 163.6963348  14.5781460
  66.8219604 163.0052338  13.9570589  68.0101852 164.2372284  14.2622709
  60.6307449 162.9010925  17.2641582  60.3628578 163.7988586  16.4362869
  59.8533325 161.8567505  17.5214119  60.2161293 161.2271729  18.2229252
  58.5221748 161.6896667  16.9508133  58.6864510 161.7345886  15.8741999
  57.9242821 160.2560883  17.1485348  58.0824623 159.9364624  18.1785488
  56.3704643 160.3133392  17.0652084  56.1068497 160.6630249  16.0670471
  55.9700241 159.3080139  17.1959553  55.8905144 160.9178467  17.8348198
  58.4427567 159.3172913  16.0447960  57.7797699 159.2300568  15.1840181
  59.2995491 159.7657013  15.5418663  58.8295860 157.9048767  16.5225964
  57.9550171 157.3364258  16.8389511  59.2626762 157.3551788  15.6869144
  59.6118546 157.9294891  17.2812538  57.6206818 162.8771057  17.3733826
  57.0750237 163.5664368  16.5263615  57.5206528 163.1324005  18.6928215
  58.0654068 162.5923920  19.3498878  56.6278114 164.1948853  19.2205505
  55.6398506 163.8999023  18.8669643  56.6420097 164.3896027  20.7593002
  57.6277161 164.6988220  21.1069603  55.9008293 165.1350708  21.0474606
  56.2208557 163.0393982  21.4769554  56.8449936 162.2305298  21.0971107
  56.3047218 163.1544952  22.5576134  54.7876396 162.5323334  21.1618233
  53.7884369 163.2275238  21.1495094  54.5854797 161.2369385  20.9486694
  53.6081696 160.9875946  20.8958912  55.3372192 160.5630035  20.9766560
  57.0361824 165.5908813  18.6505890  56.2134056 166.4716644  18.6791039
  58.3002472 165.7658081  18.2063007  58.9761925 165.0682678  18.4831181
  58.8273621 166.9269409  17.5492916  58.3766937 167.7624359  18.0849590
  60.2631683 167.0888367  17.8056221  60.4638710 166.8729248  18.8550053
  60.8211365 166.4192505  17.1510811  60.8758850 168.5426941  17.7669659
  60.7840042 168.8981476  16.7406559  60.1995277 169.6075439  18.6117649
  60.2526131 169.3603058  19.6720238  60.6600571 170.5823822  18.4514427
  59.1582031 169.6148529  18.2897530  62.3287735 168.3573761  18.0708847
  62.7711716 167.5576477  17.4769020  62.8345222 169.3181763  17.9750290
  62.4642525 168.1413269  19.1306343  58.5219917 167.0381622  16.0279064
  57.9471550 168.0386505  15.5513048  58.7702942 165.9470673  15.2925558
  59.2830353 165.1670074  15.6782017  58.4867516 165.8142853  13.8601971
  58.9472237 166.6653442  13.3584452  59.0071907 164.4640961  13.4005899
  60.0750275 164.3875732  13.6054525  58.5479279 163.6970978  14.0242033
  58.7196236 163.9555969  11.9489651  57.6461067 163.9304199  11.7617846
  59.3818092 164.7862701  10.9106760  60.4716377 164.7695770  10.9012117
  59.0961838 164.4301147   9.9208956  59.0585213 165.8271637  10.9229069
  59.1821785 162.5168762  11.7929115  58.5152969 161.8572235  12.3480864
  59.1531677 162.1884613  10.7539682  60.1843491 162.3848419  12.2007332
  56.9515648 165.9217072  13.5808392  56.5536194 166.4295044  12.5326605
  56.0947609 165.4988556  14.4656267  56.5090904 165.2253418  15.3451843
  54.5882645 165.5356903  14.4174490  54.2617416 165.0454254  13.5003119
  54.0343895 164.6930084  15.5620928  54.7970505 164.7025604  16.3407822
  53.1834373 165.2346191  15.9751863  53.6853256 163.2307739  15.2120686
  52.8734932 163.2079620  14.4850798  54.5212173 162.7731171  14.6829691
  53.1630249 162.4071808  16.4845371  53.9401245 161.7062531  16.7893600
  53.0671463 163.1763611  17.2508755  51.8132095 161.7147522  16.1164074
  51.0844917 162.3775787  15.6497898  51.9921989 160.9856567  15.3261614
  51.2686005 161.0318298  17.2727699  50.9949722 161.7133331  17.9661674
  50.4367142 160.5612183  16.9462891  51.9270935 160.3575134  17.6357803
  53.8419189 166.9018402  14.3208075  52.6283493 166.9452209  14.0638504
  54.5432663 167.9945221  14.5452175  55.5305710 167.8473816  14.6991091
  53.9737320 169.2836609  14.8773527  53.1050758 169.1433105  15.5206661
  55.1265411 169.9931030  15.6610947  56.0554657 169.9485016  15.0925798
  54.7361565 171.4509277  15.9373255  53.7189255 171.4433136  16.3288383
  55.3239594 171.9400940  16.7140598  54.8564529 172.0351715  15.0250206
  55.3928719 169.3876953  17.0302238  55.7876968 168.4093628  16.7561798
  56.0578918 170.0624695  17.5692177  54.1507339 169.1591492  17.9275455
  53.5731506 168.3507690  17.4791832  54.5717735 168.8527527  18.8851185
  53.5735626 170.0605774  18.1335011  53.5733948 170.1260529  13.6411085
  54.1451721 170.0769958  12.5912304  52.5505104 170.9825592  13.8025608
  52.1681786 171.0091095  14.7370224  51.9275627 171.7999115  12.7577486
  51.7957191 171.0972748  11.9349480  50.9766006 172.1386719  13.1688681
  52.7398376 172.9453583  12.3574018  53.0073395 173.1023407  11.1814013
  53.1914330 173.7713776  13.3169203  52.8935509 173.6260986  14.2709961
  53.9030418 174.9582520  13.0549507  54.0790977 174.9976501  11.9799843
  53.0142555 176.1624756  13.4025555  52.0544662 176.0621948  12.8957567
  52.8424911 176.2229614  14.4772367  53.6627045 177.3603973  13.0678310
  53.0088234 178.0573120  12.9764376  55.2420387 175.0450745  13.7491140
  55.3208084 174.7454529  14.9620209  56.1488190 175.8564911  13.1175785
  55.9368477 176.0648804  12.1523104  57.3182373 176.3977509  13.7174768
  58.0050888 175.5587616  13.8290358  57.9971657 177.3526764  12.7433653
  57.2785416 178.1082458  12.4258986  58.8352547 177.9253387  13.1405602
  58.2015991 176.7989044  11.8270388  57.0610390 176.9695892  15.1350183
  57.9123306 176.8219452  16.0409794  55.9618835 177.7267609  15.3002806
  55.3309631 177.8455353  14.5205793  55.5107918 178.2746429  16.6437283
  56.2923851 178.9457855  16.9997921  54.1518059 179.0703430  16.4618607
  53.4610710 178.4434204  15.8979797  53.4032402 179.2694702  17.8266869
  54.0298958 179.8266449  18.5230808  52.4668083 179.8245850  17.7714539
  53.2743530 178.2970734  18.3020058  54.3278809 180.4815063  15.8564987
  54.7250977 181.1593475  16.6120415  55.1232262 180.3113861  15.1308384
  53.0001068 180.9808807  15.1826630  52.3030510 181.4211273  15.8956871
  53.2238083 181.7548218  14.4484444  52.6115341 180.1456757  14.5999565
  55.4619904 177.1788940  17.7717991  56.1028938 177.3387909  18.7823505
  54.7397957 176.0565643  17.5764198  54.2223549 175.9504242  16.7155552
  54.6958046 174.8891907  18.5365696  54.3101501 175.0505829  19.5432072
  53.7005310 173.9476318  17.9068031  54.0624886 173.7127838  16.9058361
  53.6571045 173.0140991  18.4678288  52.2341614 174.4206696  17.9556389
  51.8817139 174.0651855  18.9238911  52.1767616 175.5089264  17.9331532
  51.3136444 173.9266052  16.8784008  51.6973991 173.3901825  15.8460760
  50.0162125 174.0933228  17.0230350  49.3412323 173.8243408  16.3215027
  49.7589645 174.6505432  17.8251781  56.0067635 174.1250153  18.6241264
  56.3019409 173.5653229  19.6258430  56.8350906 174.2152100  17.5892506
  56.5744553 174.6745911  16.7283611  58.0485268 173.5027771  17.5566673
  57.8906174 172.4927521  17.9348469  58.4274216 173.2929230  16.0682220
  57.5070114 172.8448181  15.6938477  58.6260300 174.2589111  15.6039734
  59.6831169 172.4239349  15.9253187  60.5243187 173.0582428  16.2048492
  59.5957375 171.6810913  16.7182026  59.6713448 171.6555634  14.5629892
  60.5086174 170.9622803  14.4827700  58.8227463 170.9817657  14.4447985
  59.8403397 172.6154633  13.4926071  60.5876808 173.2767181  13.6485815
  59.0790367 172.8058929  12.4261522  58.0237274 172.0920410  12.0385780
  57.6049919 171.3698883  12.6071348  57.6425018 172.2861023  11.1236420
  59.4600143 173.7969666  11.6718788  60.2513390 174.3150635  12.0261059
  58.8776627 174.0585938  10.8892469  59.0343132 174.2497864  18.4699707
  59.7254524 173.5586548  19.1967354  59.0840797 175.5773010  18.3817482
  58.4876556 176.0021667  17.6861420  59.7930527 176.4413300  19.3518333
  60.8285217 176.1155701  19.4507561  59.7135582 177.8438721  18.7961082
  58.6667328 178.0868073  18.6138020  60.2209854 178.4496613  19.5468616
  60.4116478 178.0248413  17.4296436  60.2370453 177.1768646  16.7674065
  59.8551903 179.2267303  16.7235661  60.0239410 180.0935974  17.3624535
  60.4296379 179.3642883  15.8074970  58.7974701 179.0532837  16.5254383
  61.9495430 178.1893768  17.4944897  62.2895012 177.2655029  17.9624519
  62.3223000 178.3170776  16.4781990  62.3179817 179.0704651  18.0198765
  59.3162117 176.4280396  20.8299122  60.0942574 176.2268677  21.7520447
  57.9819412 176.3170166  21.0792103  57.3354225 176.4815369  20.3208904
  57.4458771 175.9890747  22.4469090  57.8087387 176.7239227  23.1655331
  55.9168625 176.0316162  22.4345474  55.4612579 175.3945465  21.6764698
  55.5786629 175.6441803  23.3955936  55.3826904 177.4909210  22.2642059
  55.8212357 178.1547699  23.0092373  55.7175102 177.8901215  21.3067951
  53.8672752 177.5325928  22.3364182  53.5022583 178.5587616  22.3795204
  53.6342010 177.0736542  21.3756104  53.2586174 176.7397614  23.5067215
  53.2686691 175.7298279  23.5117111  52.8247375 177.2355652  24.6534405
  52.9818192 178.4903717  25.0327282  53.4728050 179.1526337  24.4492493
  52.3824158 178.8444214  25.7644768  52.3525848 176.3813477  25.5473995
  52.0847893 175.4495239  25.2644081  52.1432762 176.7062225  26.4805393
  57.9476509 174.6075439  22.8715630  58.6085777 174.5386200  23.9182434
  57.7316475 173.6015472  22.0360718  57.0067177 173.7595673  21.3507900
  58.1606102 172.2845154  22.5183144  57.6989708 172.1054840  23.4893646
  57.7436256 171.1899567  21.4984207  56.6874466 171.3085327  21.2565002
  58.3463554 171.3622742  20.6067238  58.1276627 169.5110474  22.0921211
  57.7771950 169.7436371  23.3601799  59.6907654 172.2502747  22.7227306
  60.0955849 171.8034821  23.8427258  60.4412918 172.8933105  21.8485107
  60.0823212 173.2227173  20.9637909  61.8656158 173.0156708  22.0578575
  62.2971992 172.0150604  22.0824146  62.5109329 173.8246765  20.8873997
  61.8706589 174.6561432  20.5927639  63.5210190 174.0756836  21.2111645
  62.6816711 172.8811188  19.6607056  63.4499855 172.1342468  19.8606892
  61.7811775 172.2807922  19.5309715  62.9407272 173.5797729  18.3097057
  62.7915382 174.8407288  18.1715965  63.3887939 172.8070374  17.4249077
  62.2029495 173.7312012  23.3694725  63.1612282 173.3585815  24.0499783
  61.5394592 174.8063354  23.6682243  60.7830620 175.0648499  23.0508652
  61.8535461 175.7138062  24.7962112  62.9176102 175.9371796  24.7189140
  61.0454559 177.0629425  24.6873970  60.0526924 176.7951813  24.3257008
  61.0175400 177.5490112  25.6626186  61.8772697 178.0512848  23.8076038
  62.2159348 177.4851837  22.9398880  60.9983864 179.1487885  23.3517532
  60.4922104 179.7124329  24.1354561  61.5058250 179.8875885  22.7314396
  60.2627144 178.6793823  22.6986485  63.0750580 178.6555481  24.5495548
  63.7455025 177.8966827  24.9529610  63.7207794 179.1967010  23.8579617
  62.6651688 179.2789917  25.3441696  61.5247765 175.0677185  26.1457253
  62.1617203 175.3833771  27.1470299  60.5839882 174.0893860  26.0674648
  60.1124954 173.9048920  25.1935329  60.2613335 173.1652985  27.1369324
  60.1936531 173.6847382  28.0928135  58.9121284 172.5219421  26.7777004
  58.3882828 173.1907806  26.0948086  59.1297455 171.6051025  26.2298412
  58.0321198 172.1098328  27.9247456  57.6100693 172.9767761  28.7732201
  57.7384338 170.8940887  28.1093102  61.4455605 172.1725159  27.3235435
  62.0452156 172.1484833  28.3639030  61.8046341 171.4428711  26.2878780
  61.2309837 171.4393616  25.4566059  62.9507942 170.4953003  26.2319450
  62.7335548 169.6761932  26.9174900  62.9972191 169.8212891  24.8265362
  62.9672737 170.6185303  24.0838280  64.3174896 169.1349182  24.6770992
  64.3701782 168.3184967  25.3973579  64.4048080 168.7532654  23.6598377
  65.1590805 169.8166504  24.7998314  61.8135605 168.8270111  24.6079769
  61.9970627 168.0398865  25.3393269  60.9096680 169.3959808  24.8255730
  61.7432671 168.2544250  23.1245537  62.5996590 167.6725159  22.7838573
  60.8688126 167.6322632  22.9339447  61.7121048 169.1503448  22.5045013
  64.2325974 171.1861725  26.7150784  64.9155960 170.5825195  27.5370064
  64.6462555 172.3681030  26.3185940  64.0459366 172.8556671  25.6689854
  65.8649979 173.0020752  26.8225269  66.6455917 172.2431183  26.7699375
  66.3776398 174.1886292  25.9227638  65.6798630 175.0250854  25.8834572
  67.2595367 174.6257935  26.3910065  66.7074890 173.8221436  24.4200897
  67.5572815 173.1468811  24.3202019  65.8184967 173.2547913  24.1445713
  66.9468079 175.3074493  23.3469200  67.7859879 174.4554596  22.0004749
  67.0086288 173.8843231  21.4928951  68.2837372 175.2052612  21.3855591
  68.4579544 173.7172089  22.4381561  65.7665100 173.5340271  28.2648449
  66.8148727 173.6789246  28.8863659  64.5981369 173.7899780  28.8121014
  63.7706947 173.9825745  28.2658844  64.4416962 174.0871429  30.2750988
  65.2539215 174.7431335  30.5882339  63.1069832 174.8309784  30.6295700
  62.1915970 174.3259735  30.3211308  63.0460129 174.8103943  31.7176704
  63.2110062 176.3678741  30.2990341  64.2073441 176.8995056  29.8494358
  62.1895790 177.0585175  30.5804939  62.2273483 178.0405426  30.3474789
  61.3906593 176.5573273  30.9419193  64.5555267 172.8248291  31.1210403
  65.2494888 172.8514252  32.1246948  63.8525314 171.7198181  30.6950169
  63.3005562 171.8446503  29.8584518  63.6057854 170.5394897  31.5349483
  63.6053200 170.8797760  32.5704689  62.2310638 169.9690247  31.0855656
  62.2734528 169.8765411  30.0003223  62.0353470 168.9682922  31.4707146
  61.1426430 170.9448853  31.5333328  61.0289726 170.9311218  32.6173019
  61.3194847 171.9714661  31.2124672  59.7928467 170.5988617  30.8313179
  59.6708374 171.0281525  29.8368721  59.7055664 169.5144043  30.7644920
  58.6530647 171.2061462  31.6795788  58.7606888 170.7093964  32.6438217
  58.8212929 172.2699127  31.8475189  57.3124008 170.9841614  31.0573158
  56.9232788 170.0744629  31.2601299  56.6309547 171.6125793  31.4583626
  57.3705101 171.2001648  30.0723972  64.6705475 169.4239197  31.3521938
  64.7571564 168.5317841  32.1899261  65.4433746 169.4297485  30.2939224
  65.3751450 170.2382507  29.6924534  66.7271423 168.7394867  30.1854877
  66.5817032 167.7215881  30.5471764  67.2162628 168.9189148  28.7372799
  66.4498367 168.4952240  28.0882854  67.4266663 169.9789886  28.5956745
  68.7895737 168.1588898  28.4492245  69.0571060 168.6138916  27.2219143
  67.8125992 169.2918243  31.1669922  67.9222412 170.5029755  31.3268833
  68.6794510 168.4185028  31.7842045  68.7096329 167.4226685  31.6183319
  69.7146454 168.8024902  32.7748032  70.1095734 169.7548828  32.4211197
  69.1082840 168.8991699  34.2369766  69.9372787 168.7985840  34.9375153
  68.3685074 170.2144318  34.5513039  67.4102554 170.1554413  34.0351868
  68.4009476 170.2936707  35.6379356  68.9253845 171.0757904  34.1824837
  68.1978302 167.8195801  34.4388924  68.4391785 167.3973999  35.2666130
  70.8850250 167.8118286  32.7937508  72.0621338 168.2142029  32.5424309
  70.6392822 166.5190582  32.9513435  69.6739044 166.2607269  33.0976486
  71.6190414 165.3934021  33.1001282  72.6297836 165.7953796  33.0300903
  71.5252991 164.8193817  34.5355644  72.0296249 165.4606934  35.2583961
  70.4992828 164.5754242  34.8110199  72.2389297 163.5463867  34.6151314
  71.8470840 163.1910706  35.4162598  71.4302521 164.3113861  31.9523449
  70.2713852 163.9930573  31.6865082  72.4835587 163.7077484  31.5256081
  73.3639069 164.1148682  31.8072834  72.4975891 162.6860199  30.4059715
  71.4686356 162.4181976  30.1658974  73.1033096 163.3487091  29.1436062
  74.1092911 163.6736145  29.4091892  73.3658447 162.6749725  28.3279839
  72.3450699 164.5267792  28.4996853  71.8639297 165.1958923  29.2130566
  73.3118515 165.3945465  27.6761684  73.9400330 164.8560486  26.9665794
  72.7794647 166.0611267  26.9976940  74.0130615 165.9428558  28.3052731
  71.2875748 164.0945587  27.4912777  70.5942154 163.4485016  28.0297585
  70.8186188 164.9761810  27.0543098  71.7572174 163.5862427  26.6491623
  73.0911407 161.3772736  30.7717495  74.2538757 161.2695465  31.1696587
  72.2993851 160.3067474  30.7362938  71.3432007 160.5069275  30.4798851
  72.6907043 158.9794006  31.3117523  73.7097321 159.0782928  31.6857986
  71.6488190 158.6650696  32.3595276  70.7210236 158.6114349  31.7899456
  71.8313217 157.6494751  32.7107773  71.6574020 159.8584900  33.7075577
  70.4910660 159.4868317  34.2427444  72.6973343 157.8769531  30.2411575
  72.1988907 158.0289917  29.1099949  73.3569794 156.7507019  30.5148888
  73.7591629 156.6881104  31.4392433  73.5227280 155.5940094  29.5169430
  73.6639862 156.0799103  28.5515194  74.8220978 154.7899475  29.8273201
  75.6403122 155.4586182  29.5599403  74.8825455 154.4723511  30.8682747
  74.9454498 153.3143311  28.7572479  74.2002106 152.5402527  29.5511742
  72.1784286 154.7639923  29.5333195  71.5066986 154.5919342  30.5537624
  71.7425537 154.2490845  28.3738346  72.3039627 154.4378052  27.5557251
  70.3970947 153.7195587  28.1606903  69.6744690 154.3262177  28.7064762
  70.1110687 153.6636353  26.5780010  70.0609894 154.6631470  26.1460724
  70.9665146 153.1189575  26.1784554  68.7401505 152.9483337  26.1702709
  69.0363159 151.9361877  26.4458714  67.8973541 153.3785400  26.7113037
  68.5132446 153.0917816  24.6213722  69.5207138 152.9030914  24.2505417
  67.8703308 152.2658997  24.3169174  68.0037689 154.4497223  24.1252327
  67.1288376 154.6666870  24.7380371  68.7571030 155.2104034  24.3300171
  67.6473694 154.4498291  22.6950016  67.0084534 153.6867828  22.5228329
  67.1620941 155.2849121  22.3996162  68.4313354 154.3576050  22.0649242
  70.2129440 152.3951721  28.8983841  69.3172531 152.2637329  29.7434483
  71.1992722 151.4871826  28.7276573  71.9362335 151.6991577  28.0703526
  71.2311172 150.1146240  29.3697319  70.3247833 149.6275177  29.0100098
  72.3826447 149.3487244  28.7842598  72.3698502 149.4039001  27.6957321
  73.3550797 149.7409363  29.0819740  72.4488449 147.8312683  29.2052441
  72.5984344 147.8836517  30.2836590  71.5171890 147.3149719  28.9738197
  73.5069351 146.9655304  28.4578857  74.2451248 147.4210510  27.5843983
  73.5535202 145.7515717  28.8307896  74.3455505 145.1811981  28.5710373
  72.9513855 145.3750763  29.5489693  71.2623520 150.1197510  30.9126587
  70.9250565 149.1570740  31.6104984  71.7565689 151.2256012  31.5031586
  72.2706909 151.8667450  30.9160347  71.6325912 151.5537109  32.9473267
  71.6989212 150.5961456  33.4638062  72.8582764 152.4923248  33.3192253
  72.5772476 153.4870605  32.9733810  72.9685287 152.5728607  34.4006386
  74.4393234 152.0665588  32.5696144  75.2486649 152.8458405  33.2925224
  70.3306732 152.2590332  33.3616676  69.8492661 152.1530914  34.5445099
  69.9440918 153.2169037  32.4796982  70.4136124 153.1602631  31.5872631
  69.0290146 154.4484253  32.6703949  69.0042877 155.0168610  31.7406750
  67.5994415 153.9936523  33.0861855  67.6554031 153.6852417  34.1301422
  66.9494629 154.8674316  33.0398521  67.0381165 152.9064636  32.1832237
  67.2088547 153.1092377  31.1259480  67.4931793 151.9490051  32.4367714
  65.5212479 152.7619629  32.3610725  64.7171478 153.5046082  31.8254833
  64.9738159 151.8613739  33.1303673  63.9745865 151.9347382  33.2579002
  65.5290222 151.2368622  33.6976700  69.5401459 155.4554291  33.6797600
  69.3394699 156.6487579  33.4619293  70.2536545 154.9821930  34.7026253
  70.2989731 153.9751434  34.7649765  70.5437622 155.8097992  35.8810425
  69.9501648 156.7228241  35.8350258  70.1380920 155.0194244  37.1631660
  70.2085037 155.7121277  38.0018044  69.1069565 154.6743164  37.0872879
  71.0200195 153.8299713  37.6426735  71.9023438 153.3108978  36.9130325
  70.8961487 153.4089508  38.8123932  71.9766846 156.3764343  36.0192871
  72.2651672 157.3095703  36.7860184  72.9747849 155.8303375  35.3273735
  72.8215637 155.0505829  34.7039795  74.3840866 156.2050781  35.4554405
  74.6570511 156.4901733  36.4714699  75.3040466 155.0700531  34.9369621
  75.0569153 154.9029388  33.8885841  76.7082291 155.5141296  35.0334015
  77.0601501 155.5819397  36.0627975  77.2613297 154.7283936  34.5188141
  76.8831329 156.4586487  34.5182381  75.2745819 153.8332520  35.6340446
  74.6712952 153.8957367  36.3781815  74.5937500 157.4306793  34.5265884
  74.4605942 157.4103394  33.3036346  75.0075684 158.5799866  35.1373558
  75.1106644 158.4754028  36.1366234  75.1946335 159.9018860  34.5123711
  74.4005585 160.0171814  33.7746391  75.0671692 161.0243683  35.5385170
  74.0924835 161.0942383  36.0214233  75.6994858 160.6940918  36.3626480
  75.5547104 162.4217072  35.0909386  76.5158539 162.2613068  34.6025009
  74.8953934 162.7828064  34.3016281  75.9364624 163.3400726  36.2722168
  76.4560318 162.9141693  37.2995605  75.7619476 164.5749054  36.1369591
  76.5012970 159.9350586  33.7496796  77.5369949 159.7597351  34.3304291
  76.4410095 160.2412720  32.4426422  75.5632172 160.5585327  32.0567207
  77.6656113 160.2851410  31.6127243  78.4776306 159.8231506  32.1742439
  77.4067459 159.4024963  30.3577271  76.3345337 159.4151154  30.1619911
  78.0944214 159.9427185  29.1432495  79.1458206 160.1709290  29.3181915
  77.9844513 159.3339691  28.2457943  77.5813828 160.8648376  28.8701115
  77.8405991 157.9795532  30.5231133  77.6089935 157.3890991  29.6366520
  78.9219360 157.9845581  30.6601410  77.2151718 157.1506653  31.6933479
  76.1367569 157.0297241  31.5909023  77.7275009 156.1885681  31.6920853
  77.3759308 157.6762085  32.6346550  78.0764389 161.7445068  31.4067612
  79.2815475 162.0351562  31.5237923  77.1224518 162.6103973  31.1724625
  76.1944962 162.2744446  30.9576855  77.3724670 164.1347656  31.1085205
  78.1183548 164.3580475  31.8713455  77.9457779 164.4899902  29.6663685
  78.8648224 163.9418488  29.4590359  76.9849396 164.2083282  28.4955864
  76.3073654 165.0451355  28.3260727  77.6396332 164.0509644  27.6384277
  76.3831787 163.3131104  28.6523571  78.3073349 165.8541870  29.5031929
  79.1831665 166.0131989  29.8626957  76.1695099 165.0832367  31.3959618
  75.0046005 164.7360687  31.5701962  76.4288864 166.3996124  31.4651089
  77.2796021 166.7039337  31.0136890  75.5555573 167.4946442  31.9382057
  74.5585556 167.0687714  31.8254242  75.8198700 167.9328156  33.3593864
  75.6435318 167.1366882  34.0827103  77.1409454 168.5533600  33.6930962
  77.1477127 169.4847260  33.1268616  77.1978455 168.6577911  34.7765884
  77.9369431 167.8742218  33.3876953  74.8485641 168.9290314  33.6895294
  74.9312210 168.9969177  34.6435547  75.5099335 168.6733856  30.9608383
  76.4872055 169.0000916  30.2460499  74.3335114 169.2489777  30.8889141
  73.6381836 168.8072815  31.4733143  73.9517136 170.3391418  29.9865761
  73.8765640 169.9183197  28.9839001  72.5279617 170.8909760  30.3717041
  71.7909012 170.0890198  30.3304195  72.5409088 171.2451630  31.4024773
  72.1152954 172.0544281  29.5012264  72.8198929 172.8592072  29.7109509
  72.1442871 171.7648621  28.4507866  70.7106400 172.5098114  29.7271194
  70.0727081 171.7148895  29.3408222  70.5983429 172.5279846  30.8111687
  70.4627228 173.9228516  29.0806046  71.3711319 174.4818420  29.3051548
  70.3709488 173.8279419  27.9986286  69.3074341 174.6417542  29.6907654
  69.4249039 174.9008331  30.6598778  69.1611633 175.5048370  29.1869698
  68.4417801 174.1306610  29.5932026  75.0117874 171.5076904  29.8706360
  75.2620392 172.0015259  28.7368698  75.7327576 171.8470001  30.9311543
  75.3196182 171.4437256  31.7598801  76.7691879 172.8876495  30.9413147
  76.2865906 173.7384796  30.4603806  77.1112595 173.3038177  32.3133659
  77.4853363 172.4361572  32.8568115  77.8864822 174.0696869  32.2892723
  75.9586258 173.9309235  33.0833511  75.5020370 175.0377655  32.8089066
  75.4845352 173.2438660  34.0725060  74.6992950 173.6652222  34.5478592
  75.7435226 172.2888794  34.2750626  78.0795135 172.4926758  30.1454849
  78.7838745 173.3312836  29.5988407  78.3034592 171.1994934  29.9502811
  77.6522598 170.5327301  30.3394833  79.4097290 170.6535187  29.1500835
  80.2472382 171.3437653  29.2513580  79.8652039 169.2218018  29.5512371
  79.1527481 168.5305481  29.1010532  80.8091736 169.0404510  29.0372906
  80.0535049 169.0116577  31.0048294  79.0693436 169.0358734  31.4727497
  80.4626007 168.0113525  31.1467438  81.0261002 169.9960632  31.6590576
  81.9119034 170.6315002  31.0727119  80.9617157 170.1658630  32.9149437
  79.0658493 170.5368652  27.6682663  79.8854065 170.1542358  26.8390293
  77.8650665 170.8583069  27.2694435  77.1301498 171.1932526  27.8759117
  77.4289856 170.7552185  25.8562641  77.9126892 169.8601379  25.4651470
  75.9003906 170.5876160  25.6988564  75.4253922 171.4356689  26.1921101
  75.5161972 170.6822510  24.2247925  76.1114502 170.0010986  23.6166687
  74.4617157 170.5062714  24.0122013  75.6674576 171.7170258  23.9174652
  75.4274063 169.2418671  26.3494797  75.9513397 168.4255676  25.8522549
  75.6376648 169.3345184  27.4149876  73.9393616 169.0532684  26.1925602
  73.7267380 168.8345032  25.1461201  73.6135788 168.1449585  26.6994495
  73.3278732 169.8667755  26.5829105  78.0063324 171.9335938  25.0364952
  77.8021088 173.0863342  25.4088039  78.6577606 171.7186279  23.9243145
  78.6168900 170.7458496  23.6557045  79.2054367 172.7490234  23.0257969
  78.5889511 173.6282806  23.2127171  80.6208038 173.0819092  23.4250374
  80.8199158 174.1465149  23.3023281  80.7694702 172.7967072  24.4665070
  81.6781540 172.2736816  22.7598324  81.8490219 170.9528046  23.0288143
  81.2319870 170.3925323  23.7156639  82.7734680 170.1289673  22.2663040
  82.8803864 169.0790863  22.4958744  83.5507812 170.7288513  21.3382683
  84.3359909 170.2460632  20.7754517  83.4142914 172.1100006  21.0464401
  84.1223221 172.6607819  20.4450016  82.4670410 172.8306427  21.7713890
  82.3416138 173.8881073  21.5913372  78.9573135 172.4082794  21.5354004
  78.5927277 171.3183441  21.1943340  79.0605469 173.5107269  20.7434044
  79.2117004 174.3665009  21.2580929  78.8738480 173.4108887  19.2699356
  78.4162521 172.4545441  19.0167389  77.9601517 174.4313049  18.8551521
  78.4375992 175.3833466  19.0870171  77.8554764 174.3052368  17.7775402
  76.6292572 174.3053589  19.3805351  76.2140121 175.1685638  19.4443264
  80.2542267 173.4200592  18.4962387  80.7293396 174.4512939  18.0675488
  80.8785324 172.2441101  18.3716393  80.3650589 171.4266052  18.6684895
  82.0079498 172.1334076  17.4179420  82.7530289 172.9001923  17.6300869
  82.6523209 170.7952118  17.7221413  82.7132721 170.6512756  18.8008766
  81.9700241 170.0731659  17.2735577  84.0186691 170.4787445  17.1151333
  83.9399033 170.2861023  16.0451870  85.1079788 171.5594177  17.2778664
  85.3478165 171.6179657  18.3395443  85.9577713 171.2740631  16.6577702
  84.7332687 172.5267639  16.9432735  84.5275116 169.1395111  17.6591320
  83.9329376 168.2991791  17.3007774  85.5408936 169.0089874  17.2794933
  84.5623932 169.1482391  18.7485390  81.6064758 172.2182007  15.9354305
  82.4481201 172.3832092  15.0636263  80.2970886 172.3273315  15.6286612
  79.5957260 172.3386230  16.3553410  79.8127289 172.3800049  14.2786055
  80.6217422 172.4523163  13.5517178  79.0568390 171.0462036  14.0440683
  79.6603165 170.1398163  14.0930061  78.2291565 170.9359741  14.7447128
  78.5207901 171.0024109  12.7568750  78.2517166 170.1074829  12.5370750
  78.8837280 173.5769501  14.0504618  78.1427536 173.9454651  14.9360437
  78.8721161 174.1370850  12.8167610  79.4468384 173.7499390  12.0819750
  77.8378296 174.9463348  12.2376251  77.8310013 175.9220123  12.7235155
  78.0570679 175.3858490  10.7584715  78.2313004 174.5341949  10.1008873
  77.0922852 175.7319489  10.3876247  79.0907745 176.4618683  10.4089785
  80.0474854 176.1174622  10.8016500  79.2353363 176.6694641   8.8518877
  78.2648239 176.8418121   8.3865852  80.0324326 177.3786926   8.6288538
  79.5967102 175.7494507   8.3924437  78.7692337 177.8452759  11.0598345
  78.6916428 177.7697601  12.1444426  79.5050888 178.6122589  10.8182898
  77.8189697 178.2000122  10.6607599  76.3661194 174.4405670  12.3809872
  75.4284210 175.2490540  12.5416431  76.1818085 173.1340637  12.5308199
  76.9884338 172.5348053  12.4291067  74.8709641 172.5295258  12.9337912
  74.1554108 173.0157318  12.2707043  74.8116455 171.0484924  12.6273184
  75.4940948 170.5691223  13.3291464  73.8659515 170.6366119  12.9796085
  75.2423248 170.7127686  10.8772793  75.4517899 169.3973083  10.9800119
  74.2871094 172.8500519  14.2730656  73.0976562 172.6613312  14.4786415
  75.1342010 173.2265625  15.2318249  76.1036072 173.4096069  15.0153847
  74.8489990 173.2744904  16.7053528  75.2947922 174.1753540  17.1270390
  73.7884903 173.3517151  16.9450569  75.4809189 172.1095428  17.4085121
  76.4133911 171.5091095  16.8028717  75.0942154 171.6677246  18.6261635
  73.9145737 172.0949249  19.2730637  73.0666122 171.9708557  18.5995102
  73.9184494 173.1503754  19.5452919  73.8048477 171.1952667  20.4890671
  73.4130783 170.2279816  20.1744633  73.2549210 171.6300812  21.3237038
  75.2380753 170.9791260  20.8730087  75.3040543 170.0908661  21.5012836
  75.7041855 171.8094177  21.4035187  75.8634796 170.7537537  19.4837399
  76.9031677 171.0628967  19.5913315  75.8499222 169.2732697  18.9569206
  76.2818298 168.3712463  19.6484108  75.1844101 168.9632874  17.8626728
  74.7401428 169.7119293  17.3505535  74.9977493 167.6182251  17.3585949
  76.0045929 167.2446747  17.5452061  73.9656143 166.9076385  18.2412395
  74.4288254 166.8851013  19.2276592  73.0367508 167.4701843  18.1470947
  73.6281433 165.4125214  18.0193367  73.5200577 165.2482147  16.9472275
  74.3723755 164.7690125  18.4884872  72.0518417 165.1587067  18.8456402
  70.9744797 165.1259613  17.4743958  71.3739319 164.3232422  16.8545799
  69.9677277 164.8826294  17.8139973  70.9719238 166.0491028  16.8948307
  74.7480164 167.5632629  15.8377123  74.2650146 168.5287323  15.2284155
  75.2668228 166.4914856  15.2220898  75.8269424 165.8490753  15.7640038
  75.1048660 166.2254181  13.8107166  74.2184448 166.6662750  13.3546476
  76.3105011 166.8745880  13.1509094  77.2233429 166.4751740  13.5928268
  76.3717041 166.6131287  12.0945024  76.2491455 167.9505310  13.3142290
  74.9829712 164.6756287  13.6322899  74.9022141 163.9404449  14.5858994
  74.9630127 164.2258606  12.3712778  75.2921982 164.8178101  11.6220551
  74.8405304 162.8135681  11.9352770  74.7997284 162.1958771  12.8324366
  73.4545059 162.7839661  11.2154722  73.4631805 163.3549805  10.2870483
  73.2027130 161.7460022  10.9979124  72.6979446 163.1605072  11.9038897
  76.0664520 162.4629059  11.0071688  76.3426895 163.2793884  10.0929489
  76.7072449 161.3495483  11.1255121  76.5433426 160.7483215  11.9203453
  77.8924332 161.0144958  10.3841400  78.0340424 161.4963684   9.4167480
  79.1227036 161.4798737  11.2227554  79.2578964 160.7200012  11.9924383
  80.0132523 161.3914490  10.6004934  79.2147522 162.9183807  11.7596083
  79.5693893 163.9575043  10.8902292  79.8526535 163.6707306   9.8882694
  79.6792221 165.2655487  11.3804808  79.8785400 166.0851746  10.7060223
  79.4926834 165.5390472  12.7316990  79.6182785 166.7950134  13.1896877
  79.7212067 167.3779602  12.4339190  79.0351181 164.4894257  13.5725574
  78.8626480 164.6651917  14.6241102  78.9330444 163.1632233  13.0802221
  78.7731400 162.3435364  13.7650089  77.9622498 159.4560852  10.2014122
  77.0969696 158.7888794  10.7051897  78.9963837 158.8479919   9.5690937
  79.7553177 159.4114532   9.2132397  79.0483856 157.3564758   9.4703684
  78.4561386 156.8945618  10.2602949  78.5003891 156.7530060   8.1494217
  78.4907837 155.6726379   8.2936554  77.0665131 157.0827637   7.9567556
  76.9486771 158.1653137   8.0048141  76.6049271 156.6279449   7.0802989
  76.4986725 156.7770996   8.8355188  79.3950195 157.2081604   6.9873195
  80.3860092 156.7566376   7.0339985  78.8390656 156.9907074   6.0753322
  79.5579376 158.2832031   7.0639915  80.4590302 156.7473450   9.6795349
  81.4711533 157.2547607   9.1947327  80.4894180 155.5242767  10.2917604
  79.6237717 155.0820923  10.5660257  81.6624374 154.6369324  10.1578465
  82.5171280 155.3036804  10.2720881  81.6892548 153.6998749  11.3395090
  82.7193909 153.4873199  11.6253977  81.1558609 154.2346344  12.1254091
  80.8490295 152.4312744  11.1639080  79.8773346 152.4078674  10.4147139
  81.3116226 151.2782135  11.6165943  80.8540115 150.4617615  11.2370071
  82.1989517 151.2300568  12.0966291  81.7804184 154.0790100   8.7339592
  80.7945251 154.0772400   7.9522967  82.9280396 153.3709259   8.3282957
  84.1326675 153.2575073   9.1266575  84.0259323 152.4681396   9.8707047
  84.3449173 154.2270813   9.5771809  85.2438126 152.7816467   8.1719799
  85.8453064 151.9731445   8.5874815  85.9565811 153.5263672   7.8177910
  84.5027466 152.1955261   6.9519210  84.4125214 151.1136322   7.0492635
  85.0916290 152.4580078   6.0730400  83.1282425 152.8519287   6.9950814
  83.0702667 153.7281342   6.3493295  82.1518631 151.7672882   6.5370965
  81.7295990 151.6365814   5.3813319  81.7465515 150.9396210   7.4285069
  82.2332764 151.0039520   8.3111572  80.6743011 149.9282837   7.3891506
  80.7035141 149.4586792   6.4059286  80.9325867 148.9998322   8.5300779
  80.5316010 149.5139008   9.4035950  80.3966446 148.0801544   8.2954168
  82.3237305 148.7058411   8.9759159  83.1246185 149.5878448   9.6743174
  84.2805405 148.9728546   9.9100962  85.0653992 149.4233704  10.4995337
  84.2573090 147.7524261   9.2714300  85.0381165 147.1167603   9.3512344
  82.9964981 147.5324860   8.7441444  82.7419586 146.7045746   8.0990133
  79.2516937 150.5078125   7.4759974  78.2940292 149.7573090   7.7432609
  79.0470200 151.7904968   7.1232839  79.8579407 152.3771820   6.9879160
  77.7527161 152.3787994   6.8581114  77.9774475 153.3789215   6.4875112
  77.2412186 151.9057617   6.0198331  76.7930527 152.5764465   8.0158529
  75.8144379 153.2736053   7.7845678  77.0843430 152.1519623   9.3053751
  77.9646072 151.7343750   9.5715628  76.1347733 152.3873749  10.4105082
  75.1416321 152.0659332  10.0967522  76.5793915 151.6294250  11.6639853
  76.7836914 150.6273804  11.2867947  77.5579987 151.9703979  12.0018673
  75.5963593 151.6365814  12.8273144  74.6809845 150.6107941  12.9581728
  74.7222977 149.7682648  12.2837505  73.7017899 150.6629486  14.0001488
  72.9397583 149.9102783  14.1387663  73.8488083 151.6450500  14.9886951
  72.9109955 151.7098846  16.0048332  72.5065460 150.8772736  16.2593517
  74.7925491 152.6614990  14.8357515  74.8166199 153.4221649  15.6020460
  75.6040878 152.7196808  13.7092199  76.2872391 153.5495453  13.6041603
  76.2049103 153.8891602  10.6885872  77.2386551 154.5796204  10.7400093
  74.9878159 154.4858093  10.8189096  74.1343536 153.9528656  10.7312250
  74.8463974 155.9128265  11.0286007  75.6454697 156.3669586  10.4426546
  73.5813370 156.5445862  10.3900719  72.6522064 156.1059265  10.7539425
  73.5758896 158.1359558  10.7257185  74.4882736 158.6646576  10.4498053
  72.9145126 158.6577148  10.0340223  73.2093124 158.3804932  11.7226744
  73.6137238 156.2625275   8.8715553  74.0967941 157.0960541   8.3616629
  74.1574402 155.3363495   8.6854010  72.2773514 156.1235657   8.2100801
  71.8129425 157.1078949   8.2694569  72.3797302 155.8213043   7.1678429
  71.6029129 155.4289093   8.7107725  75.0020676 156.1467590  12.5577183
  74.2742004 155.5514221  13.3534937  75.9105606 157.0517426  12.8992805
  76.4575882 157.4749146  12.1632233  76.0806503 157.5446014  14.2790709
  75.4838486 156.9863281  15.0003633  77.5189056 157.4163513  14.6317997
  78.1027298 157.9459076  13.8789291  77.7061996 157.8737335  15.6033058
  77.8786163 156.0069580  14.7867365  77.7121735 155.2496033  15.9719973
  78.2419968 154.0645294  15.6777506  78.2118988 153.1573029  16.2629490
  78.8366318 154.0744934  14.4099636  79.4722748 153.3712311  14.0614233
  78.5872192 155.3149567  13.8186941  78.8516846 155.6388092  12.8229103
  75.6479568 159.0193787  14.3417253  76.1018982 159.7846222  13.5037327
  74.8480835 159.4203644  15.3124924  74.3319397 158.7510071  15.8653593
  74.5225143 160.8208618  15.7018623  74.8935928 161.5310974  14.9629583
  73.0294800 161.0526123  15.9127960  72.5758057 160.3868256  16.6469650
  72.8948135 162.0592804  16.3085194  72.2992783 161.1592712  14.5727367
  72.8549652 161.8125000  13.8999853  72.2119370 160.1166382  14.2671289
  70.8196793 161.6849213  14.7353344  70.1288605 161.2123718  15.6935930
  70.3503723 162.6157074  14.0048418  75.2825623 161.0733032  17.0064888
  75.0688019 160.3242493  17.9593887  76.2176208 162.0275116  17.0151005
  76.2364197 162.6703491  16.2363129  77.0751572 162.2369080  18.1827316
  76.7833862 161.5016327  18.9326210  78.5363998 161.9382935  17.8849049
  79.1479340 162.1786041  18.7546024  78.7351761 160.4633789  17.5410519
  78.3581238 160.2517242  16.5404797  79.8083878 160.3066101  17.4327183
  78.3358688 159.7094116  18.2194157  78.9420013 162.5937958  16.7111816
  79.8501434 162.3285065  16.5483990  76.9513397 163.6051941  18.7800064
  77.0426483 164.6202087  18.0583344  76.6023560 163.7271271  20.0515556
  76.5108871 162.8877411  20.6057816  76.5797272 164.9891815  20.8207130
  76.1385498 165.8246460  20.2771530  75.8983765 164.7278442  22.1621494
  74.8853455 164.4546051  21.8668404  76.3700714 163.8844299  22.6663647
  75.7505264 165.8989563  23.1360855  76.7905502 166.1795197  23.3026123
  74.9393692 167.0707855  22.6324272  74.2157364 166.7958679  21.8650532
  74.4767075 167.6726990  23.4145679  75.6254501 167.7898560  22.1848316
  75.1176224 165.3140106  24.4347763  75.7033463 164.5043793  24.8701191
  74.9067154 166.1390228  25.1151867  74.1832733 164.8294067  24.1514664
  78.0639648 165.3655701  21.1089573  78.8187866 164.5735321  21.6966400
  78.3971634 166.6239319  20.7830925  77.7618103 167.2600403  20.3228970
  79.6953430 167.1725159  21.2329159  80.3677521 166.3158875  21.2794075
  80.3057480 168.1435394  20.1230183  81.2160187 168.5300446  20.5814152
  80.6233215 167.4116364  18.8475170  79.6790695 167.2816772  18.3187370
  81.3288574 168.0118256  18.2729836  81.1930847 166.4985504  19.0199051
  79.5510406 169.2731476  19.7043819  79.6006165 170.0507202  20.2651978
  79.6916275 167.7837067  22.6261482  78.8554459 168.6361084  22.8817463
  80.5018387 167.3323059  23.5718784  81.0813522 166.5104523  23.4779339
  80.6693573 167.8202972  24.9684086  80.2649536 168.8296661  25.0442104
  79.9086990 166.9299927  26.0105991  79.9991226 167.3975372  26.9910717
  78.4379120 166.7784119  25.6016026  78.3403015 166.1646423  24.7061405
  77.8392563 166.3814850  26.4214592  78.0405197 167.7633514  25.3564835
  80.3937683 165.4537659  26.2730007  81.4041061 165.4624023  26.6819687
  79.6853714 164.9811096  26.9533482  80.3175507 164.7808533  25.4188995
  82.1294861 167.9898529  25.3228912  82.9227600 167.0739136  24.9494247
  82.4910965 169.0381470  26.0688705  81.8155594 169.7491913  26.3100643
  83.9174042 169.2248077  26.5536461  84.5547256 169.1611786  25.6716728
  84.0802765 170.5690765  27.2641926  83.4407730 170.6245728  28.1451321
  85.1135864 170.6363983  27.6045322  83.8675613 171.7690887  26.3624496
  84.6817474 172.0002441  25.2594013  85.3456650 171.1955414  24.9799728
  84.5293045 173.1468048  24.4540901  85.1729813 173.3802338  23.6188641
  83.5988235 174.0843506  24.8145008  83.5585556 175.2575531  24.1220512
  84.1486893 175.2480621  23.3649178  82.7873764 173.8938446  25.9800510
  82.1666641 174.7126312  26.3127670  82.9592819 172.7544708  26.7603855
  82.3654785 172.5663605  27.6426640  84.2687073 168.1078339  27.4993172
  85.4902802 167.8597870  27.6291065  83.3704453 167.4998627  28.2051582
  82.4011841 167.6986847  28.0024014  83.6285782 166.6961517  29.3709087
  84.5875778 166.1896973  29.2617474  83.7660065 167.6549225  30.5875397
  84.3488388 168.5172424  30.2637959  82.7960968 168.0834351  30.8400345
  84.4609451 167.0677795  31.8063812  83.9505997 166.1502075  32.0991096
  85.5167007 166.8465118  31.6497803  84.4670486 168.1475525  32.9452820
  85.0804596 169.0016632  32.6583710  83.4534225 168.5329590  33.0554504
  84.7575760 167.5117645  34.3788452  84.6705551 168.2905273  35.1365051
  83.9018021 166.8557434  34.5381966  86.1056137 166.9263306  34.5787201
  86.7844849 167.5379639  34.1484375  86.2972031 166.8786774  35.5692406
  86.1235046 166.0027771  34.1702805  82.5689697 165.6028900  29.5400963
  81.3858109 165.8637238  29.4924145  82.9905396 164.4653473  29.9462109
  83.9855957 164.3044891  30.0101528  82.1387558 163.3620758  30.4350204
  81.1596680 163.7378082  30.7321892  81.8096619 162.4769897  29.2063618
  82.7623367 162.2063751  28.7510853  81.1809082 161.6324921  29.4885330
  81.1791611 163.1448212  28.6193676  82.7676773 162.5672913  31.5843563
  83.9895477 162.4290314  31.7172260  81.9214554 162.0175629  32.5040550
  80.9204330 162.1329498  32.4351540  82.3870392 161.6050110  33.8281708
  83.3926773 162.0254822  33.8278656  81.5946655 162.2950592  34.9200363
  80.5519638 161.9781647  34.8986740  82.0175247 162.0972137  35.9049950
  81.6260834 164.0914154  34.7396240  82.5903091 164.3037262  35.6396828
  82.5053787 160.1251526  33.9909134  83.5759888 159.6669006  34.5250549
  81.4610748 159.3577423  33.8654022  80.6636353 159.7333984  33.3723755
  81.4816742 157.9176331  34.1412239  82.3477859 157.6630096  34.7520523
  80.1676636 157.5245056  34.8272705  79.3030777 157.8676453  34.2590599
  80.2215500 156.4519501  35.0138435  80.0638428 158.1401215  36.2188835
  80.6629562 157.6723328  37.1968460  79.2823868 159.1444397  36.4237442
  79.3280029 159.6314850  37.3073807  78.6583633 159.3886566  35.6680679
  81.6496124 157.0897827  32.7869492  80.7329407 156.2994995  32.3620605
  82.8614349 157.2311707  32.1839905  83.4868240 157.9418182  32.5360870
  83.2785187 156.4851837  30.9688511  82.5399857 155.6965790  30.8247108
  83.3089447 157.4143524  29.7268047  84.0728531 158.1913147  29.7564449
  83.5625381 156.8032837  28.8605633  81.8892593 157.9965210  29.3701096
  81.5047379 158.4800873  30.2681141  82.0807037 159.0757751  28.3422337
  82.5068741 158.6677246  27.4257336  81.1714478 159.5722351  28.0032864
  82.8511963 159.7877655  28.6380501  81.0247803 156.9159241  28.6922703
  80.6408920 156.1847229  29.4036598  80.1540222 157.3972931  28.2471085
  81.5182419 156.3427734  27.9073563  84.6490860 155.8051147  31.2018890
  85.5694962 156.3197632  31.8849640  84.8154831 154.5933380  30.6130905
  84.0004196 154.3451996  30.0706940  86.0698547 153.8642120  30.3878880
  86.8374481 154.2098083  31.0803261  85.9417953 152.3470764  30.7333889
  85.1369858 151.9151917  30.1385326  86.8493042 151.8492432  30.3917713
  85.6685867 152.1211700  32.1786156  85.1005554 152.9718018  32.8800316
  86.0144424 150.9681854  32.6837006  85.6987991 150.7125092  33.6084137
  86.5378494 150.3394012  32.0914459  86.5742645 154.1040802  28.9494724
  85.7808456 154.2909393  27.9960117  87.9050140 154.0345612  28.7733307
  88.4561081 153.7547760  29.5721512  88.6289978 154.0560913  27.5068836
  88.0001678 154.4817810  26.7249241  89.8685074 154.9930115  27.5683365
  90.5350037 154.5470886  28.3065987  90.4185410 154.9891205  26.6273022
  89.5757294 156.4111938  27.9683266  89.1823044 156.4174347  28.9848289
  90.9409332 157.1124725  27.8546333  91.3670349 157.0005341  26.8576336
  90.8530960 158.1795654  28.0587978  91.6637573 156.7804871  28.5998955
  88.6550217 157.0601654  26.8830070  87.7249832 156.5085754  26.7455482
  88.4455948 158.1178131  27.0430470  89.2531967 157.1220398  25.9739094
  88.9925079 152.6475067  27.0782681  89.4391251 151.8337250  27.9625969
  88.7439346 152.3144226  25.8318539  88.1940536 152.9705963  25.2959805
  89.1468735 151.0503082  25.2203903  90.0089035 150.7192993  25.7995739
  88.1311493 149.9305725  25.3860149  88.5428009 149.0067596  24.9795532
  87.9132004 149.8874054  26.4531307  86.8939972 150.2289124  24.8027344
  86.2414398 149.6997986  25.2672863  89.7313995 151.1687775  23.7645416
  89.3096237 152.0403595  23.0099869  90.6945648 150.2989044  23.3714752
  91.0770340 149.6790009  24.0711384  91.4684067 150.3961029  22.2009583
  91.7686691 149.4086304  21.8504581  90.8026657 150.8013153  21.4389267
  92.6867218 151.2954407  22.3078728  93.1401749 151.5663757  23.4002304
  93.1811142 151.8110962  21.1520519  92.7625961 151.5516205  20.2702236
  94.0664673 152.9703674  21.1049557  94.0816269 153.4493561  22.0839558
  95.5296326 152.5943909  20.6444511  95.5190964 152.0100861  19.7243576
  96.1637192 153.4175415  20.3151054  96.3113708 151.7251282  21.5807476
  95.6081238 150.8992004  21.6874561  97.1574173 151.3984833  20.9760971
  96.8386536 152.3139648  22.9012508  97.4064026 153.2296295  22.7360096
  95.9663773 152.6591339  23.4563141  97.5148926 151.2664032  23.6540432
  98.4823990 151.1082001  23.4111500  97.0561752 150.5095978  24.6465092
  95.8480759 150.5461426  25.0480251  95.2282639 151.1450348  24.5214729
  95.5328979 149.8444519  25.7025528  97.7954330 149.5712433  25.1445713
  98.7689590 149.4645386  24.8976727  97.3848267 148.8691101  25.7433281
  93.5041199 154.1213684  20.2335892  92.5840836 153.8554688  19.3963814
  94.0102081 155.3587494  20.4455204  95.0911789 155.8154297  21.3820839
  96.0621414 155.5628662  20.9559975  94.9581833 155.3452301  22.3564186
  95.0139389 157.3504639  21.4735355  95.9350586 157.9017029  21.6626854
  94.2527618 157.5055389  22.2381668  94.3474503 157.7055817  20.1073437
  95.1424789 157.8812866  19.3826637  93.6852264 158.5596008  20.2495136
  93.6055756 156.4035034  19.5777798  92.5301514 156.5297852  19.7027264
  93.9118958 156.1761780  18.0740242  95.0103683 155.7217255  17.6472740
  92.9720383 156.4024963  17.1722240  92.0080032 156.3169250  17.4610367
  93.1651764 156.2976837  15.7119360  94.2122879 156.2792206  15.4097462
  92.5007477 154.9771576  15.1953707  92.8669281 154.1834259  15.8465347
  91.4228287 155.0826874  15.3181171  92.7623749 154.6959381  13.8469763
  92.1677322 153.9787750  13.6152821  92.6539230 157.5289001  15.0198421
  91.7866058 158.2209625  15.5718374  93.2381287 157.9158478  13.8877583
  94.0993881 157.4687805  13.6076555  92.7338104 159.0029755  13.0481634
  92.1732635 159.7765045  13.5730762  94.0070877 159.7583466  12.4762726
  93.6666336 160.5509796  11.8100128  94.8058014 160.4185028  13.5790730
  95.4569321 159.6763916  14.0410175  95.3890076 161.2449188  13.1728582
  94.1521530 160.8146820  14.3561726  94.7848892 158.7715149  11.8921328
  95.1975632 159.1225739  11.0996294  91.8942795 158.4542847  11.8960114
  91.3401413 159.2787476  11.1393623  91.8985901 157.1384735  11.6578770
  92.1932373 156.4179077  12.3013630  91.3594666 156.6231689  10.4083796
  91.9165878 157.1417084   9.6281042  91.5491638 155.0920715  10.3372936
  91.0108643 154.6906891  11.1959209  90.9989929 154.7105865   9.4771214
  93.0099335 154.5760345  10.2003269  93.5378113 154.9471436  11.0788069
  92.9617386 153.4903870  10.2849770  93.7040939 154.9650421   8.8985252
  93.1117783 155.4084625   7.8813348  94.9390335 154.8629456   8.8845730
  89.8447037 156.9572906  10.2795095  89.0542984 156.6619873  11.1824913
  89.5327911 157.5295868   9.1502180  90.2217560 157.7781067   8.4547539
  88.1470337 157.7633514   8.7978821  88.1201019 158.1873169   7.7940755
  87.4538269 156.3678436   8.5758047  88.2498169 155.8010712   8.0928259
  87.2509613 155.8854980   9.5319853  86.2388840 156.3369141   7.7012405
  84.9361572 156.6705322   8.0701761  84.1586533 156.2963715   7.0380416
  83.0790100 156.3221588   7.0283651  84.9313889 155.8308258   6.0166187
  84.5113068 155.5085602   5.1565170  86.1876602 155.8176422   6.4659896
  87.0307465 155.3494415   5.9797688  87.4566574 158.7319183   9.8331003
  86.2363739 158.8042297  10.0395555  88.2365799 159.5694885  10.5787535
  89.2291260 159.5816345  10.3921614  87.6862564 160.2846680  11.7526684
  87.1267700 159.6233521  12.4142847  88.9768677 160.8113556  12.4450312
  89.5765915 159.9636078  12.7763300  89.5599670 161.4328613  11.7654476
  88.6157227 161.7069855  13.5081263  89.4037933 162.1228180  13.8653927
  86.8091736 161.5150452  11.3067532  87.1475754 162.1890564  10.3506451
  85.6962204 161.7724609  11.9396057  85.5335312 161.3889618  12.8596926
  84.7092209 162.7783966  11.5343409  84.5077667 162.6517792  10.4706297
  83.3504105 162.3968811  12.1781101  83.4214325 162.4693604  13.2633753
  82.5896530 163.1210175  11.8865900  82.7617950 161.0963745  11.8472424
  82.8871384 160.3956299  10.7737827  83.3421707 160.7751923   9.8708553
  82.2699738 159.1365051  10.9336786  82.2424774 158.4597168  10.1844769
  81.9371490 158.8960419  12.2031012  81.4262161 157.8456879  12.8945951
  81.1852798 156.9003296  12.4313145  81.1309967 157.9870148  14.2801151
  81.0111389 157.0583344  14.8182478  81.2654724 159.2030640  14.9715309
  81.1850281 159.2157288  16.0484562  81.7399445 160.2996521  14.2022066
  81.9322205 161.2354889  14.7058649  82.1639099 160.1465149  12.8365784
  84.9843674 164.2545319  11.8322477  84.2892838 165.0759735  11.2161455
  85.9588852 164.5535126  12.6577854  86.4875641 163.7765503  13.0278101
  86.4211884 165.9275208  13.0538607  85.8983612 166.7146759  12.5106039
  86.2132416 166.0981598  14.5307865  86.6648102 165.3051453  15.1268625
  86.6488495 167.0518951  14.8286715  84.7274475 166.2504272  14.8869801
  84.0335922 167.4876556  14.7007532  84.6420822 168.3103333  14.3552895
  82.6909866 167.6462555  14.9418087  82.2167511 168.5841370  14.6930094
  82.0292816 166.5545959  15.4428072  80.9963608 166.6978302  15.7238026
  82.6210709 165.3165436  15.5874395  81.9916916 164.5037384  15.9185038
  83.9588776 165.1501312  15.3539400  84.4736176 164.2188568  15.5388145
  87.9973831 166.0667419  12.7677422  88.7946548 165.4834747  13.5383930
  88.3857269 166.8534698  11.6720839  87.6165924 167.5672607  10.6630735
  87.4122620 168.5890350  10.9829597  86.6854019 167.0322418  10.4766903
  88.4085236 167.5849457   9.3215494  88.0662994 168.4174042   8.7067499
  88.1778564 166.6273193   8.8548117  89.8801041 167.5572357   9.8103857
  90.2249527 168.5857239   9.9171486  90.4608154 167.1019745   9.0081291
  89.7769623 166.7772064  11.1571016  89.8412552 165.7205353  10.8974581
  90.8285370 167.1265869  12.1667356  90.9278336 168.2437134  12.7319317
  91.8150406 166.2166595  12.4053545  91.7544632 165.2903290  12.0074186
  92.9458618 166.3918915  13.2614641  93.7192307 165.6461029  13.0775843
  93.3543701 167.3981018  13.1678600  92.7187347 166.1510925  14.7255974
  93.3578415 166.7957153  15.5322618  91.8140106 165.2333832  15.0505362
  91.1972275 164.8601837  14.3431454  91.5839615 164.6070862  16.3496304
  92.4377594 164.9297180  16.9454823  90.3236389 165.1006927  17.0637379
  89.4925308 164.8907318  16.3904743  90.2124710 164.4575195  17.9366970
  90.2729568 166.5549316  17.4723606  90.4172440 166.8115540  18.8473415
  90.4707031 166.0120697  19.5714703  90.3991776 168.1278992  19.2990723
  90.4897461 168.3765259  20.3461514  90.1413727 169.1411743  18.4007454
  90.0861359 170.4066467  18.8418026  90.3317261 170.4520416  19.7687473
  89.9312897 168.8787689  17.0775223  89.7097321 169.7303162  16.4512825
  90.0132141 167.5411987  16.5592003  89.8168869 167.2489014  15.5382090
  91.6398468 163.1219940  16.2399750  91.0072250 162.5406494  15.4003315
  92.3579407 162.4772491  17.1635265  92.9184570 162.9647980  17.8477993
  92.3221893 161.0445251  17.2946854  92.1556168 160.5705414  16.3273716
  93.6496353 160.5334320  17.8825779  93.8538742 160.9818573  18.8548508
  93.5539246 159.4743347  18.1218433  94.4550934 160.7073364  17.1690636
  91.1955261 160.5738525  18.2067146  91.0229492 160.9947815  19.3502712
  90.2881927 159.6792145  17.6507969  90.4637680 159.3239136  16.7218018
  89.2256927 159.0119629  18.3816013  88.8019791 159.8293457  18.9650784
  88.1202240 158.6866913  17.3794479  87.2966690 158.3069458  17.9841423
  87.7293549 159.6340332  17.0081387  88.3747559 157.8462830  16.2046757
  88.3832550 158.2687988  14.9387827  88.3264694 159.3056793  14.6420517
  88.6895905 157.2390137  14.0906620  88.7809525 157.3249817  13.0884838
  88.7866211 156.0247040  14.7254791  89.1399078 154.7311249  14.3407345
  89.3048248 154.4639740  13.3073750  89.2360535 153.7382965  15.3467407
  89.6538544 152.7852936  15.0575733  88.9659958 154.1067657  16.6810646
  89.0961761 153.4157562  17.5007877  88.6231537 155.3888855  17.0033607
  88.5238647 155.6629486  18.0432816  88.5745010 156.4102936  16.0808983
  89.6286926 157.8183289  19.2453728  90.4844971 157.0494690  18.7943516
  89.0915222 157.5675354  20.4048672  88.5241547 158.3560028  20.6814938
  89.4272766 156.4113159  21.2882824  89.7089233 155.5954437  20.6225891
  90.6282501 156.6433258  22.1877804  91.4804230 156.6630554  21.5084343
  90.7882767 157.9090424  23.0125561  90.0179367 157.9177246  23.7836590
  91.7685928 157.8334503  23.4830570  90.7665100 158.8879700  22.5336761
  90.6797485 155.5972900  23.1229744  90.9624252 154.8312531  22.6181221
  88.1038818 156.0379181  21.9655819  87.3952866 156.9117432  22.5054150
  87.5746536 154.8067322  21.7990532  88.2494431 154.0573730  21.7423420
  86.1683655 154.4430847  22.1188946  85.5431900 155.1085052  21.5235233
  85.9207535 152.9868164  21.7548332  86.8026047 152.3886261  21.9842377
  84.7308273 152.3418121  22.4408436  83.7890549 152.8749237  22.3105736
  84.5593796 151.3977203  21.9237614  84.9377518 152.0859070  23.4799747
  85.6963425 152.8485107  20.2224045  84.8602600 153.4764099  19.9144955
  86.6437912 153.1457520  19.7728767  85.3426819 151.4520111  19.6369114
  84.2845078 151.1910706  19.6533890  85.7388687 151.4055176  18.6225281
  85.9347992 150.7435455  20.2161922  85.7947311 154.6937408  23.6207104
  86.4607010 154.1844330  24.4960880  84.7083969 155.4447479  23.7927761
  84.2471085 155.8550262  22.9934139  84.0327225 155.6158142  25.0945988
  84.7419357 155.6270905  25.9222374  83.2500305 156.9576111  25.0203514
  82.6366119 156.9058380  24.1208324  82.5010757 156.9060364  25.8106117
  83.9368668 157.8013458  24.9535179  83.0896606 154.3991089  25.2417660
  82.1640244 154.1692810  24.4400635  83.4309006 153.5142212  26.2329407
  84.2651062 153.6341400  26.7895546  82.3737030 152.6758423  26.8816547
  81.6098175 152.6835632  26.1041489  83.0277557 151.2514343  27.0998249
  84.0061035 151.3019714  27.5777283  82.3889160 150.6545410  27.7507401
  83.2137680 150.4042053  25.7927532  82.2421875 150.3312988  25.3040619
  83.9853821 150.8688507  25.1789093  83.8831787 149.0795288  26.0869961
  85.0520630 148.9121094  26.2746811  83.0849152 148.0287933  26.2696571
  83.5049667 147.1409912  26.5051327  82.0877686 148.1568604  26.3666096
  81.8028107 153.2542419  28.1027050  82.3580322 153.9636383  28.9265766
  80.5661697 152.9347076  28.3932381  80.0507889 152.3777618  27.7266808
  79.9287567 153.1671295  29.6593132  79.8112488 154.2356262  29.8399124
  78.4529648 152.6807709  29.6230221  77.9698181 153.0618286  28.7233238
  78.4969635 151.5922241  29.5878830  77.6317291 153.3073883  31.1088943
  76.3710098 153.0551300  30.7458019  80.6586456 152.4775543  30.8718300
  80.8787689 151.2966003  30.8607674  80.9691620 153.1941681  31.9427719
  80.7701416 154.1760559  31.8147488  81.6972504 152.7675018  33.1116180
  82.6229782 152.2532654  32.8533707  82.1244431 153.8905640  33.9252739
  82.8935165 154.4400787  33.3824425  81.2609940 154.5051270  34.1799278
  82.7873688 153.5010071  35.2608719  82.0876923 152.9617767  35.8994484
  83.5428543 152.7358704  35.0822487  83.4804993 154.6813354  35.8943024
  82.7501373 155.4786682  36.0318565  83.8849258 154.4438019  36.8782272
  84.6400528 155.1563568  35.0659752  84.9840012 154.5293884  34.3527222
  85.4888077 156.1726990  35.3119431  85.4154892 156.9650879  36.3202400
  84.6226501 156.8666992  36.9381638  85.9772034 157.8028870  36.3717537
  86.5178833 156.3366852  34.4608040  86.4595490 156.0634918  33.4902039
  87.2602310 157.0019836  34.6233253  80.9796448 151.6309357  33.8900414
  81.6395035 150.7353058  34.3807259  79.6069946 151.6707001  33.9751663
  79.0741119 152.3317108  33.4281807  78.9401093 150.6910095  34.8566322
  79.5995255 150.3126221  35.6377182  77.7735596 151.4756775  35.6308403
  77.1542435 151.9645386  34.8788033  76.8774338 150.6301422  36.4305267
  77.3949890 149.9866028  37.1419373  76.1235504 151.2318726  36.9381409
  76.3539505 149.9088593  35.8029671  78.3819580 152.6929779  36.5126839
  78.6949463 153.4784393  35.8247986  77.5039215 153.1497803  36.9692879
  79.4571381 152.3209686  37.5040894  80.3731995 151.9444275  37.0489616
  79.7859421 153.1419220  38.1413002  79.0415878 151.5508118  38.1539154
  78.4369507 149.3977509  34.1922150  78.3336716 148.3655396  34.9006958
  78.1498718 149.4156036  32.8969917  78.3247299 150.2907867  32.4241562
  77.6278000 148.2401276  32.1482048  77.5017776 147.3832703  32.8100357
  76.1688919 148.6056213  31.6926155  75.7306900 147.7267761  31.2196274
  75.5530701 148.9114532  32.5383949  76.3372269 149.9648590  30.5131054
  75.1746521 149.7764435  29.8823719  78.5144424 147.7306519  30.9829750
  78.2714081 146.6587219  30.4175663  79.5018539 148.5235748  30.5439510
  79.6315384 149.3815765  31.0607758  80.4001312 148.2367096  29.4275017
  81.2943039 148.8457031  29.5604401  80.7590103 147.2124634  29.5287418
  79.7920456 148.4147949  27.9706535  80.3291931 147.8505249  27.0066452
  78.6685181 149.1632538  27.8217030  78.1332169 149.3890991  28.6478672
  78.0514069 149.5744629  26.5203094  77.8989792 148.7139587  25.8688583
  76.6359558 150.0753021  26.8088226  76.1443253 149.2584381  27.3371696
  76.6564026 150.9876404  27.4048939  75.8202209 150.3835297  25.5738964
  75.7249146 149.6221313  24.6205845  75.2303467 151.5471802  25.5168400
  74.8920593 151.7385101  24.5846081  75.2708359 152.2587585  26.2324600
  78.8544922 150.6421967  25.7757969  79.5839615 151.3870239  26.3808517
  78.7714081 150.6727295  24.4580288  78.2836990 149.8571320  24.1159267
  79.3860397 151.6313019  23.5276470  80.4506836 151.7877197  23.7013378
  79.2244873 151.1617126  22.0848942  79.8164597 150.2545776  21.9633083
  78.1908417 150.9598236  21.8039627  79.7311249 152.0888367  21.0185547
  79.3396072 152.0625153  19.6665173  80.0827103 153.0724792  19.1258392
  79.9075546 153.3924713  18.1093140  80.9422989 153.6017609  20.0078716
  81.6356430 154.3255615  19.8834114  80.7795563 152.9458313  21.1768589
  81.3557510 153.1416626  22.0690746  78.6679459 153.0397034  23.6671829
  77.4307404 153.0128021  23.6366959  79.4158173 154.1495209  23.8744926
  80.4195786 154.0399170  23.8978882  78.8900833 155.4674530  24.1084518
  77.8114395 155.4409180  23.9538021  79.0477905 155.8834839  25.5857048
  80.0824585 155.6776428  25.8599186  78.7931519 156.9294739  25.7564487
  78.1817322 155.0412598  26.5656662  78.3770294 153.9800262  26.4115601
  78.4915009 155.2192078  27.5954628  76.4081039 155.1850586  26.2690926
  76.1553192 156.9130402  26.6906147  76.6494904 157.6552582  26.0637245
  75.0795135 157.0882568  26.6976986  76.5421829 157.1222992  27.6879368
  79.4780655 156.4408722  23.1032429  79.1941376 157.6117859  23.2769852
  80.2414474 156.0680847  22.0987759  80.3595581 155.0803833  21.9238682
  80.8277206 156.9405670  21.1049843  80.6265564 156.6393738  20.0769196
  80.4197617 157.9496307  21.1638184  82.3391113 157.0389862  21.3294086
  82.9753571 156.0159454  21.5439205  82.8823624 158.2269440  21.2946930
  82.2390900 158.9797821  21.0958576  84.3592377 158.4602966  21.3345699
  84.9402542 157.7069702  21.8665562  84.9358597 158.4587402  19.8763180
  84.5162430 159.3377228  19.3870220  86.0028381 158.6425171  20.0023785
  84.6729813 157.2692566  19.0538349  85.5539322 156.2607117  18.8553619
  86.5726013 156.2073517  19.2101517  85.0356827 155.3030243  18.0877762
  85.6035309 154.5406189  17.7466145  83.7212677 155.5079651  17.8994274
  82.7949219 154.7505951  17.2071800  82.9817963 153.7037506  17.0184498
  81.4934311 155.3253632  17.0053234  80.7165298 154.7284393  16.5508995
  81.1830978 156.6486664  17.4129066  80.1934967 157.0741730  17.3352795
  82.1992798 157.3969879  18.0861454  82.0407562 158.4341736  18.3421230
  83.4655380 156.8555298  18.3586044  84.7666626 159.7293549  22.0426369
  84.2743301 160.8415985  21.8282948  85.8730927 159.5642548  22.7726917
  86.2965698 158.6844330  23.0309010  86.7545395 160.7432861  23.1851902
  86.2000427 161.6267242  23.5016766  87.7227783 160.2126923  24.3026543
  87.2170639 159.9502563  25.2318916  88.2862167 159.3582458  23.9277134
  88.6954346 161.3006744  24.7312508  89.4686890 161.4539337  23.9784565
  88.1649323 162.2380981  24.8983326  89.3662491 160.9974365  26.1089211
  88.6294403 160.9292908  26.9092770  89.8925095 160.0507355  25.9867649
  90.2695541 162.2074890  26.4593716  91.0894012 162.3128204  25.7488308
  89.6974411 163.1267395  26.3337822  90.8638916 161.9907990  27.7869778
  91.4397430 161.1613617  27.8104134  91.6112289 162.6439514  27.9739857
  90.2130814 161.8988800  28.5538502  87.6329727 161.0447083  21.9137535
  87.9623337 160.1194000  21.1725140  87.9810333 162.3423615  21.8447590
  87.7197952 162.9766846  22.5860348  88.7632446 163.0583496  20.7643623
  89.3185196 162.3645172  20.1332092  87.8059387 163.8498230  19.8891640
  87.1639099 164.4338226  20.5485783  88.4031906 164.4296265  19.1854534
  86.9807358 163.0090485  18.9687080  87.5312653 162.6631775  17.7154884
  88.5808945 162.7940063  17.4973850  86.7057114 162.0852966  16.7372952
  87.1240158 161.8001862  15.7832861  85.3585663 161.8414307  16.9640179
  84.7766190 161.4101562  16.1629372  84.8326721 162.1537476  18.2115345
  83.7788620 161.9550629  18.3396244  85.5906754 162.7229919  19.2211132
  85.0492020 163.0000153  20.1135635  89.8394089 163.8887939  21.4112988
  89.5891495 164.8589630  22.1334076  91.1035843 163.5523529  21.1826839
  91.3133850 162.7361298  20.6260281  92.3538895 164.2706909  21.5668697
  92.0337296 165.0086060  22.3024559  93.3493118 163.3745270  22.3846436
  94.2410583 163.9835510  22.5329018  92.8965073 163.0193939  23.7657585
  91.9876404 162.4326782  23.6322079  93.5613403 162.3240814  24.2782555
  92.5830688 163.9043579  24.3195610  93.7496033 162.0676575  21.8660774
  94.3796692 162.2027740  21.1544876  92.9653015 164.9114990  20.3502197
  93.0047989 164.2816010  19.3357639  93.5149918 166.1132507  20.4661369
  93.5496445 166.6677551  21.3096027  94.0686798 166.7488251  19.3047123
  93.3269348 166.6045227  18.5191612  94.1404190 168.2515106  19.5551434
  94.6442642 168.4704132  20.4965897  94.6075745 168.7939606  18.7331886
  93.1044617 168.5860138  19.5003033  95.3919220 166.1437531  18.8545170
  96.2263184 165.8343353  19.6688423  95.6640625 166.0990448  17.5110035
  94.9588242 166.3108215  16.8197002  96.9994507 165.7138824  17.0332508
  97.4172745 164.9921875  17.7351589  97.0015793 165.0653687  15.6327639
  98.0136948 164.7270966  15.4107542  96.2392197 163.7417297  15.6929121
  95.1646194 163.9243011  15.6893024  96.4551086 163.1427002  14.8082390
  96.5556946 163.2477875  16.6115856  96.5145569 165.8644562  14.5996609
  97.1133881 166.5819550  14.3801298  97.9914780 166.8274078  17.0771999
  99.1008682 166.6815643  17.5466061  97.6328964 168.0249939  16.6411667
  96.7173843 168.2599030  16.2851410  98.4638443 169.2347870  16.7814255
  99.5065994 168.9197998  16.7422256  98.2968674 170.1499786  15.5948458
  97.2490082 170.4376221  15.5090723  98.8167953 171.0934296  15.7612076
  98.7278442 169.5413666  14.2109184  99.7835159 169.3098602  14.3525848
  98.1668549 168.6309204  14.0000172  98.5599747 170.4339600  12.9714689
  99.3399353 171.1953735  12.9721966  98.7021942 169.7717438  12.1174536
  97.1784515 171.1402893  12.8579702  96.4428787 170.5337982  13.3863649
  97.3342972 172.0538788  13.4317007  96.8117142 171.5176697  11.4682007
  96.6171417 170.7025146  10.9045048  95.9544754 172.0499268  11.5124693
  97.5942078 172.0008545  11.0506687  98.3516617 169.9114838  18.1006947
  97.2457428 170.0236969  18.6406231  99.4768982 170.4919739  18.6146564
 100.3276825 170.3312988  18.0946045  99.6356277 171.1118622  19.9566135
  99.2824020 170.3554382  20.6574383 101.1497498 171.1606598  20.1994591
 101.2872467 171.3076172  21.2707195 101.6950455 170.2545013  19.9355946
 101.8587952 172.3581390  19.4621925 101.7833939 172.2359467  18.3816910
 101.3963852 173.2987976  19.7612782 103.3837357 172.3995056  19.8832264
 103.5088882 172.4600983  20.9643192 103.9666138 171.5663300  19.4905739
 103.9829865 173.6782227  19.3588448 103.4263840 174.5248871  19.7606392
 104.9889832 173.6929932  19.7781963 104.0987167 173.6993408  17.8627644
 103.2919693 173.3203735  17.3877354 104.1259384 174.6277924  17.4661102
 104.8676682 173.1365509  17.5279694  99.0455475 172.5156860  20.1903744
  98.9472275 172.9180908  21.3239918  98.7412491 173.3071442  19.1081085
  98.8082733 172.9341583  18.1718998  98.1496124 174.6693726  19.1498165
  98.3207474 175.1668396  20.1044521  98.8667145 175.5606384  18.0567207
  98.4066238 176.5484924  18.0326042  99.9023743 175.8106842  18.2869129
  98.8702698 175.0679474  16.5963268  98.3092422 173.9670563  16.3483047
  99.3707809 175.7915649  15.7764463  96.6355743 174.6879730  18.9646721
  95.9862823 175.7238464  19.1474304  95.9849243 173.5286560  18.7760983
  96.5713272 172.7293396  18.5828724  94.5490570 173.4308777  18.6705551
  94.1944733 174.1967316  17.9807510  94.1582260 172.0598602  18.1182938
  94.6198578 171.2917633  18.7387981  93.0698853 172.0726318  18.1769257
  94.6663361 171.8569641  16.6886387  94.1528244 172.5753479  16.0496387
  95.7524261 171.9458160  16.6636829  94.3122177 170.1373749  15.9772959
  92.5659790 170.3644409  15.7302437  92.3842316 171.0143433  14.8742685
  92.1405792 169.4000702  15.4525576  92.0875854 170.6649475  16.6624107
  93.7832489 173.6203918  19.9571362  94.2546692 173.2170563  21.0371037
  92.6098862 174.1877594  19.8562069  92.3408432 174.5859833  18.9678802
  91.6560745 174.3680725  20.9286060  91.8587570 173.6819305  21.7509308
  91.7043152 175.7918091  21.4145908  92.6200333 175.9426727  21.9862537
  91.6019287 176.4514313  20.5528927  90.5853195 176.0024567  22.2402954
  90.8075714 175.8825836  23.1664886  90.2433701 174.1118927  20.2982578
  89.9458466 174.7084656  19.2377186  89.4045410 173.2993011  21.0092602
  88.0060196 172.9783936  20.6203384  87.8734894 172.6307526  19.5958023
  87.3150253 173.8138885  20.7325325  87.6424866 171.8509674  21.6253204
  88.1488571 170.9190979  21.3737087  86.5609207 171.7462921  21.7110481
  88.3673248 172.2481232  22.8805676  88.6120834 171.4197693  23.5454235
  87.8966141 173.0690460  23.4215050  89.7470551 172.7510223  22.3197556
  90.2024994 173.5184174  22.9456787  90.7598724 171.5787659  22.3502674
  90.8334274 170.8333740  21.3718719  91.6125107 171.4502258  23.3569469
  91.6725388 172.2716827  23.9415016  92.6432114 170.3723450  23.4508495
  93.2417984 170.4778595  22.5460491  93.6165848 170.6401978  24.6468143
  94.2421188 171.4896393  24.3725071  93.0483551 170.8944855  25.5415516
  94.5279922 169.5198669  25.1100025  95.0498505 169.9679718  25.9555626
  93.9951859 168.6787872  25.5536385  95.5432129 169.0018463  24.1099224
  96.0720978 169.7061615  23.2450199  95.9203110 167.7680359  24.2327003
  96.6627808 167.4436798  23.6296730  95.5246658 167.1560669  24.9320221
  92.1197510 168.8854370  23.5026360  92.8545837 167.9488678  23.0704880
  90.8828888 168.7094879  23.9422321  90.3837814 169.5742340  24.0945702
  90.0489197 167.4324799  23.9566345  90.3384933 166.7923431  23.1232758
  90.3418045 166.7515106  25.3288670  89.7943954 165.8099365  25.2856369
  91.3894196 166.4651947  25.2359924  90.0561142 167.5555420  26.5705223
  90.4433823 168.5739746  26.5404510  88.9740295 167.6408081  26.6700993
  90.4786301 166.8620605  27.8873425  89.7451477 167.1166840  28.6523647
  90.5063553 165.7821808  27.7417469  91.8462219 167.3290710  28.3857937
  92.5702744 167.0013428  27.6398296  91.7713394 168.4091492  28.5118713
  92.2664261 166.7601471  29.7104740  92.2039871 165.7708435  29.9040623
  93.2434158 166.9820251  29.8384247  91.7574005 167.2797699  30.4111862
  88.5693359 167.7568970  23.8568211  88.0416946 168.8057556  24.2756729
  87.7500381 166.8019104  23.3174152  88.2500687 165.9708099  23.0357609
  86.3093643 166.7233429  23.4958744  85.9512482 167.1118622  24.4492435
  85.6513977 167.6314697  22.4890633  84.5968704 167.7444000  22.7407055
  86.0802231 168.6283569  22.3870182  85.6182251 166.9924316  21.0483360
  86.6644363 167.3213043  20.1769390  87.5221405 167.9076385  20.4718399
  86.6191254 166.9520416  18.8315849  87.3594818 167.1615601  18.0737076
  85.5041428 166.2101288  18.3861179  85.4142456 165.8863831  17.3597183
  84.3999329 165.9032288  19.2140064  83.5456314 165.3802795  18.8101540
  84.4535751 166.3182831  20.5671654  83.6030579 166.0929565  21.1934643
  85.7760086 165.2812500  23.4741173  86.5155945 164.3382111  23.3292942
  84.5114899 165.1164398  23.6520271  83.9927826 165.9523468  23.8807125
  83.7776108 163.9235840  23.6420479  84.3595428 163.1176300  23.1949596
  83.4684296 163.3532562  24.9866371  82.8151550 164.0747223  25.4773788
  82.8462219 162.4603271  24.9263897  84.5879974 163.0430450  25.9065304
  85.2285995 163.9454498  26.6515141  85.0745697 165.0086060  26.5402317
  86.0202637 163.4284973  27.5871258  86.5332489 163.9998474  28.2432575
  85.9178238 162.0235138  27.5451012  86.3130417 161.0843506  28.4376602
  86.8673477 161.3600006  29.3226280  86.0530167 159.7127838  28.1592407
  86.2767181 158.9844513  28.9246922  85.3436279 159.3669586  26.9997883
  85.0283356 158.3515778  26.8100815  84.8090210 160.4095612  26.1755943
  84.2342834 160.1616364  25.2954769  85.1156998 161.7697449  26.4047718
  82.5274200 163.9453278  22.7053699  81.6617355 164.8225708  22.7986717
  82.5571899 163.1313477  21.7100048  83.3150558 162.4641113  21.7333755
  81.5371933 162.8098755  20.7474957  80.7625961 163.5621796  20.5986996
  81.9730835 162.6045074  19.7697754  80.7676239 161.5109711  21.1516800
  81.1583939 160.4155121  20.8258591  79.7051620 161.6939697  21.9156055
  79.3642731 162.6439972  21.9522552  78.8912354 160.6378937  22.5021591
  79.4922333 159.7314606  22.5748310  78.5116806 160.9420166  23.9526882
  77.7672577 161.7342529  23.8732891  77.9428024 160.1018219  24.3508835
  79.6655884 161.4044342  24.9040260  80.0414963 162.3296814  24.4673214
  78.9922256 161.7549133  26.1915436  78.7427826 160.8212585  26.6957188
  79.7421875 162.3559875  26.7056999  78.1199493 162.3782349  25.9948387
  80.7754593 160.3893738  25.1144485  81.4095840 160.2463379  24.2395039
  81.4151001 160.6526947  25.9568405  80.3467789 159.4077454  25.3163109
  77.6788712 160.2813263  21.6540089  77.1205292 161.2853241  21.1910706
  77.4078903 159.0167542  21.4668217  77.7413940 158.2825012  22.0748901
  76.3060455 158.5229950  20.5762691  76.4606323 159.1311340  19.6849937
  76.5642853 157.0100708  20.1284332  75.6402054 156.6548309  19.6723919
  77.6607742 156.7942047  19.0882797  78.5703354 157.3002167  19.4119587
  77.9587631 155.7546539  18.9518127  77.3176804 157.2463837  18.1577301
  76.9348068 156.2194672  21.2385159  76.1992340 156.1472168  21.8511448
  74.9431229 158.7613068  21.2693806  74.5752945 158.1310425  22.2504501
  74.1929703 159.7732391  20.7410984  74.6336594 160.2588196  19.9729042
  72.8964005 160.2808380  21.2426071  73.0954514 160.4870453  22.2942524
  72.5205154 161.6567078  20.6603012  71.7665176 162.1226196  21.2947369
  73.4482422 162.2222290  20.7474422  72.0239563 161.5831299  19.2090740
  72.6875534 162.1979980  18.6010513  72.1238098 160.5439148  18.8957901
  70.6122360 162.0283508  18.9984970  70.4276047 163.0244751  19.4006615
  70.4602280 162.0165405  17.9192123  69.6399460 161.1431885  19.6792393
  69.2857056 161.3732147  20.5966797  68.9000473 160.2612762  18.9916916
  69.0140915 159.8783417  17.7575626  69.5740433 160.3823090  17.0848236
  68.1756287 159.4676361  17.3723221  67.9201813 159.7862091  19.6648808
  67.7987976 160.1720581  20.5903454  67.2335510 159.1694031  19.2547684
  71.7272339 159.2639923  21.2614670  70.8637009 159.3272400  22.1262569
  71.8464737 158.2584534  20.3235588  72.4832077 158.4732666  19.5695496
  71.0618134 157.0467987  20.3082237  70.0082092 157.3244324  20.3390598
  71.4445648 156.2914276  19.0417480  70.8870316 155.3731995  18.8570518
  71.2231598 156.9048462  18.1683617  72.7680206 155.7817841  19.0667725
  72.7696838 154.9530945  18.5821114  71.2474136 156.0674133  21.5242100
  70.3234787 155.3341522  21.8795414  72.3462677 156.2294159  22.2721081
  73.0448761 156.8218231  21.8465443  72.7168961 155.5229645  23.5561409
  72.0847015 154.6359100  23.5955429  74.2172012 155.0635376  23.3902206
  74.8772278 155.9287872  23.4521751  74.4562073 154.3801117  24.2050152
  74.3805237 154.6323547  22.4025478  72.4141846 156.3771973  24.8484898
  72.5485611 155.8563690  25.9228344  72.0275650 157.6066437  24.7181015
  71.7240753 158.0186615  23.8473396  71.7465057 158.4237213  25.9048271
  72.1490021 157.9059601  26.7754726  72.5007935 159.8100281  25.7179394
  72.0742035 160.2943726  24.8395691  72.2116623 160.4004059  26.5874004
  73.9979858 159.8946686  25.6300430  74.4389343 159.1113281  25.0135670
  74.3981628 161.3112640  25.1246147  73.7087708 162.0454407  25.5415554
  75.4274826 161.5400238  25.4008045  74.4173889 161.2666626  24.0356960
  74.5268478 159.8252716  27.0142097  74.0341263 159.0817108  27.6406670
  75.5850143 159.5641937  27.0294113  74.4634323 160.8091583  27.4790115
  70.2938232 158.7409210  26.2963428  69.4235840 158.7917328  25.4255524
  70.0573730 158.8259430  27.6205387  70.8496780 158.7828979  28.2454414
  68.7418442 158.9837646  28.2603550  67.9543457 159.2256927  27.5466290
  68.3305130 157.7104645  28.9686337  68.5062637 156.8548431  28.3166313
  69.0797577 157.5287170  29.7391472  66.9170303 157.6337280  29.4702530
  66.7799911 158.5559998  30.0348396  65.8913040 157.4418030  28.3577442
  66.1423340 156.5506134  27.7825336  64.8878784 157.3139343  28.7637978
  65.8324585 158.3322296  27.7318325  66.7381516 156.4458466  30.4370289
  67.4303513 156.5750732  31.2690563  65.6866379 156.4674530  30.7232990
  66.9260941 155.5106964  29.9095249  68.7524796 160.1856995  29.2057686
  69.4294205 160.1702576  30.2052021  68.0095139 161.2798157  28.8901978
  67.3423767 161.6171265  27.6751537  66.2971725 161.3185425  27.7557564
  67.7010269 161.0765381  26.7992344  67.6724167 163.1158905  27.4247055
  66.8678589 163.4961700  26.7952805  68.6830292 163.3059235  27.0632553
  67.6311951 163.6410980  28.8741512  66.6085205 163.9909515  29.0150414
  68.3651352 164.4389496  28.9877052  67.9396133 162.4428711  29.7719746
  68.8942032 162.5984802  30.2746143  66.9160233 162.2262573  30.8983612
  65.8533554 162.8099823  30.9289398  67.2537079 161.3918152  31.8616085
  68.0982361 160.8575592  31.7151794  66.5780869 161.1542511  33.1374435
  65.5159683 160.9668884  32.9796448  67.2601700 159.8736877  33.8159523
  67.1542130 159.0450439  33.1157913  68.3163834 159.9769440  34.0646629
  66.6327133 159.4362335  35.1538925  67.0425720 160.0899658  35.9237976
  65.5570984 159.5979004  35.0829926  66.9713440 158.0406799  35.5617943
  68.0011902 157.8118134  35.2876968  66.8658142 157.8828888  36.6351395
  66.1037369 157.0289917  34.9168129  65.5158844 157.4604340  34.2179680
  65.8085709 155.8648224  35.3632469  66.2891083 155.4722748  36.5331993
  66.9529114 155.9668427  37.1118774  65.9886551 154.6194000  36.9831314
  65.0448990 155.0505066  34.7142105  64.6955719 155.2907867  33.7975082
  64.7421494 154.2036896  35.1739388  66.6209641 162.3586426  34.1063881
  65.5502090 162.8168488  34.5568504  67.7332458 162.8188477  34.4564323
  88.1348343 150.4963074  18.3164864  88.2530060 150.7838593  16.8700123
  87.4738083 149.3520660  17.6494198  87.9634399 150.6033173  15.6463795
  86.9011459 148.7688446  16.6562519  87.1219482 149.3436737  15.2187548
  87.8123169 148.4325867  14.3130493  85.9013367 149.4858856  14.1660681
  86.7920074 148.7630157  13.6432819  85.4410477 150.7143402  13.7946091
  84.2562103 151.4300232  14.1877232  86.3429489 151.7463684  13.2116728
  83.8126373 152.7448730  14.1804600  85.9240265 152.9048004  13.2854023
  84.8474197 153.6296234  13.7194195  84.6783066 155.0127411  13.6395855
  85.0701828 155.9460907  12.5165672  84.4224167 155.7913055  14.6363630
  85.3785553 155.5464478  11.4179449  85.0950851 157.3821564  12.7503357
  84.5294876 156.9361877  14.9338169  84.9602203 158.0419159  13.9898567
  85.1181564 159.2453918  14.1667070  85.4035645 157.8647003  11.9145317
  82.5980835 153.1879272  14.5643559  81.6524048 152.3226013  15.0144014
  89.0876923 149.6755676  17.8986397  93.4182739 146.5447540  17.5359650
  92.4390640 148.0184479  17.8016815  91.0726395 148.0332336  17.7186108
  92.9285889 149.2025146  18.1391621  90.3300858 146.9863739  17.5323296
  90.5112991 149.3402252  17.8735561  92.6471329 150.3702087  18.2328491
  91.4081192 150.4410400  18.1700211
