Cpptraj Generated Restart                                                       
 6218  4.0000001E-01
  91.3436737 180.9460297  23.7148228  91.9647141 181.1977539  22.9591446
  91.7258911 180.0205231  23.8468704  91.3845139 181.4978180  24.5597820
  89.9321823 180.8386230  23.0918198  89.2475281 180.6787567  23.9247608
  89.4847260 182.2197723  22.4985600  90.1591568 182.4374847  21.6704006
  88.5208817 182.1662140  21.9923744  89.4773178 183.4895782  23.3900604
  88.7185440 183.4444275  24.1712894  90.4323730 183.6287079  23.8966331
  89.3442841 185.1046600  22.5694427  87.5484695 185.1384125  22.1105957
  87.0090942 184.6106567  22.8971405  87.2601318 186.1875610  22.1757660
  87.3042068 184.7903595  21.1069527  89.8421249 179.6055908  22.1725540
  90.8681641 179.0535583  21.7639542  88.6644745 179.2172089  21.7561569
  87.8230667 179.6965179  22.0432014  88.5391693 178.1501007  20.6916389
  89.0867004 177.2582245  20.9963417  87.0447083 177.6952667  20.6113682
  86.4621658 178.6108246  20.5089893  86.7902222 176.8667297  19.3823566
  87.3898621 175.9606476  19.4693375  85.7257080 176.6437225  19.3103905
  87.0401001 177.4243469  18.4797325  86.6666946 177.0314484  21.9225063
  85.6518173 176.6835175  21.7299709  87.3420486 176.1950378  22.1025143
  86.4386215 177.8059540  23.1662769  85.8596268 178.6885223  22.8943233
  85.8944855 177.1022949  23.7962475  87.4115601 177.9848175  23.6239834
  89.1173706 178.6210480  19.3378258  89.1066132 179.8240662  19.0161972
  89.5961990 177.7075043  18.4980564  89.6057510 176.7498016  18.8187027
  90.3479614 178.1034546  17.2544174  90.0973969 179.1092834  16.9173450
  91.8524246 178.2306519  17.5815353  92.3636856 178.7964172  16.8026810
  91.9051056 178.9334106  18.4130726  92.6368637 177.0070801  17.7883472
  92.2563858 175.8554840  17.6547813  93.8030243 177.1671753  18.4165821
  94.3467407 176.3754730  18.7291012  94.2856216 178.0543365  18.4287949
  90.0390854 177.1486816  16.0947380  90.3692017 177.4651947  14.9453039
  89.4045181 176.0051117  16.2803364  89.0539856 175.7536774  17.1935787
  89.0669479 175.1104584  15.2182322  89.9294586 174.8440399  14.6073332
  88.4582520 173.8250122  15.8252821  89.2056885 173.3004913  16.4205360
  87.6172028 173.9976349  16.4967957  87.9401321 172.8016357  14.9215345
  88.7965317 171.8903961  14.2741175  89.8746567 171.9335022  14.3210773
  88.2905426 170.8471680  13.4929266  88.9052963 170.0602112  13.0816221
  86.9306717 170.7729340  13.2657003  86.4862289 169.9481812  12.7284403
  86.0343552 171.7804260  13.8280811  84.9643784 171.6934967  13.7097597
  86.5722733 172.7837830  14.6360674  85.9864883 173.5320892  15.1492014
  88.0364304 175.8937073  14.2695904  87.1214447 176.5160675  14.7452049
  88.2145386 175.7592010  12.9309740  89.0214539 175.2609253  12.5835476
  87.1577682 176.2187195  11.9884129  86.9351501 177.2529449  12.2509060
  87.8333817 176.2942047  10.6152067  88.7366257 176.8902435  10.7455626
  88.2076797 175.3177948  10.3075790  86.9130478 176.8013153   9.5283194
  85.6806183 176.8969269   9.7280884  87.3977509 177.1183167   8.4376411
  85.8664703 175.3335571  12.0760145  85.8358841 174.1974640  11.5503912
  84.7937927 175.8749695  12.6802597  84.8635330 176.7601166  13.1616554
  83.4765091 175.0847473  12.8435307  83.7608795 174.2486420  13.4824076
  82.4725418 175.8217926  13.7463608  81.5251923 175.2827148  13.7441931
  83.0520630 175.9387665  15.1692238  83.9989243 176.4751740  15.1072645
  82.3630676 176.4985962  15.8016548  83.3700638 174.9781647  15.5744715
  82.3483200 177.1591339  13.3037338  81.7806702 177.6230011  13.9235668
  82.8523331 174.5749817  11.5255566  81.9403534 173.7552032  11.5126820
  83.2824249 175.1025543  10.3786497  84.0366898 175.7727814  10.4230328
  82.8762741 174.5962219   9.0805349  81.7913513 174.5104828   9.0197430
  83.1734695 175.6519318   7.9674854  82.5614166 175.4616852   7.0858369
  82.8616028 176.6396637   8.3069572  84.5158615 175.8216705   7.6152797
  84.8486938 176.2071381   8.4290543  83.4109116 173.2683105   8.6357164
  82.7484589 172.6079102   7.8556018  84.5718231 172.8389740   9.1586609
  85.0122681 173.5032959   9.7789726  85.2504654 171.5416565   8.8237963
  85.4064865 171.5904388   7.7461238  86.6081696 171.4090576   9.5308332
  86.5696793 171.5659790  10.6087914  87.0235672 170.4067383   9.4263554
  87.6905365 172.4648132   9.1050291  87.2740173 173.4620514   9.2469578
  88.9136429 172.4491272   9.9769039  89.2236557 171.4050140  10.0195026
  89.6896057 173.0438995   9.4949932  88.6557770 172.8188782  10.9693270
  88.0866852 172.3341522   7.6101151  87.2070007 172.5056763   6.9897666
  88.7518234 173.1337433   7.2840028  88.5092087 171.3437195   7.4409046
  84.3690033 170.2679138   8.9153996  84.3770294 169.4342651   7.9968028
  83.5540009 170.0580444   9.9842997  83.5077286 170.7985229  11.2229767
  82.7116699 171.5430450  11.2133741  84.4352570 171.3323059  11.4300356
  83.0941391 169.7765503  12.2859344  82.6698761 170.3309784  13.1230173
  83.9264755 169.1365662  12.5787325  82.1033707 168.8788300  11.5424976
  81.1205063 169.3491974  11.5715799  82.0785065 167.9048615  12.0312223
  82.6220474 168.8786926  10.1018410  83.2737350 168.0160370   9.9632015
  81.5283737 168.9313202   9.0566645  81.1515808 167.8580017   8.5951118
  80.9398880 170.1000366   8.7704983  81.3534698 170.9563446   9.1107655
  79.7096558 170.2413940   8.0696259  79.0416031 169.4721985   8.4571152
  78.8921814 171.5579224   8.2045612  77.9958191 171.3997040   7.6048803
  78.5036774 171.8123169   9.6292810  79.4620361 172.0565033  10.0875635
  77.7051773 172.5536194   9.6606026  78.2488785 170.8871765  10.1462927
  79.5967484 172.7227783   7.8248191  79.5327835 172.8088684   6.8708286
  79.8392715 170.0505524   6.5597763  78.8966522 169.6772766   5.9156499
  81.0546570 170.1584930   5.9965239  81.8020096 170.3437500   6.6501675
  81.4070358 169.7196960   4.6387696  80.5500565 169.9160461   3.9944606
  82.5439148 170.5129089   4.0174913  82.5347061 170.2550964   2.9584582
  82.2676773 171.5475616   4.2207232  83.8223190 170.2229309   4.5775294
  84.4814606 170.8737183   4.3253016  81.6718063 168.1813965   4.4977655
  81.6259842 167.6941986   3.3485944  81.7528458 167.4254456   5.5646834
  81.5814514 167.9164124   6.4305172  81.9514008 165.9428253   5.6884823
  82.1553345 165.7346039   6.7387948  80.6924820 165.2039185   5.2806568
  80.4690475 165.4423981   4.2407970  80.9462357 164.1542053   5.4283042
  79.5648651 165.5895691   6.2039542  79.4161224 165.1116638   7.4769487
  78.3240280 165.6139679   8.0001516  77.9952011 165.2813568   8.9736214
  77.8136292 166.5605316   7.1511970  76.9455261 167.0424652   7.3362331
  78.5837708 166.5506439   5.9898815  78.4383392 167.1288147   5.0893455
  83.2023697 165.3673706   5.0306501  83.1493835 164.4306946   4.2092261
  84.3296585 166.0203552   5.2729335  84.2187119 166.8220520   5.8771563
  85.5881805 165.7220459   4.6381783  85.5391083 166.0379791   3.5961244
  86.7205658 166.4759979   5.3408356  86.7270508 166.2945557   6.4156094
  87.6563644 166.1416779   4.8929424  86.5555344 167.9785919   5.0599875
  86.4992828 168.0781708   3.9760048  85.5485077 168.2817383   5.3465142
  87.7949295 169.1052246   5.8210282  89.3194580 168.4340668   5.0732470
  89.2458954 168.4602203   3.9860456  90.2029419 168.9579010   5.4381752
  89.3346329 167.3537903   5.2176652  85.9811096 164.2469635   4.5992332
  86.3269501 163.6976318   3.5772943  85.8270264 163.5935364   5.7525678
  85.4036407 164.0912323   6.5227308  86.2078247 162.1614380   5.9104214
  87.2771759 161.9510193   5.9280295  85.7462082 161.6634979   7.3500404
  86.0686035 160.6463928   7.5729022  86.1864548 162.2828674   8.1314859
  84.2352982 161.5504456   7.5308065  83.5249863 162.7942200   7.8368397
  84.0589142 163.7088470   8.0484886  82.1492310 162.7614288   7.8545198
  81.6253586 163.6855316   8.0494919  81.3620911 161.5788116   7.7422051
  80.0220032 161.5236664   7.8044043  79.6622009 162.4091949   7.7150621
  82.0356674 160.3643188   7.4808607  81.5441208 159.4347076   7.2346749
  83.5009079 160.3619385   7.3283138  84.0264664 159.4850006   6.9802094
  85.5558243 161.2190552   4.9166932  86.1617279 160.1859131   4.6617112
  84.3760681 161.5530853   4.2811513  83.9022751 162.3943481   4.5776272
  83.7221146 160.7549744   3.3386154  83.9212646 159.7277832   3.6440749
  82.2486649 161.0941925   3.3892107  81.7991104 160.9378662   4.3698030
  82.1748810 162.1514130   3.1343243  81.2965698 160.3853912   2.3686647
  81.6793365 160.3708496   1.3481838  80.9888687 158.9319611   2.7430303
  80.2504959 158.9134674   3.5446353  80.6174774 158.3464355   1.9020047
  81.9346390 158.4767761   3.0370069  80.0235519 161.1774597   2.2675507
  80.2098389 162.1554413   1.8237489  79.3553314 160.6369171   1.5971766
  79.6066437 161.1833496   3.2746553  84.3276901 160.8855743   1.9573022
  84.1081314 159.9759369   1.1472868  85.0991821 161.9348755   1.7067904
  85.3206406 162.6250000   2.4102015  85.6896362 162.1330872   0.3729370
  86.7629242 161.9435425   0.3878797  85.2091904 161.4810791  -0.3565564
  85.4755020 163.5456543  -0.1325706  84.3327637 163.9720154  -0.3357769
  86.5792465 164.2192078  -0.4848657  87.4623718 163.7439880  -0.3650549
  86.6601410 165.3628082  -1.3877560  85.8300552 166.0072327  -1.0982949
  88.0028381 165.9977264  -1.0696770  87.8088837 167.0663452  -0.9773477
  88.3295517 165.7627106  -0.0566995  89.0025482 165.7264709  -2.0457492
  89.8130875 166.0342712  -1.6335738  86.4646988 165.0169067  -2.8986385
  86.4908829 163.8480682  -3.3343968  86.2362442 166.0276031  -3.7462254
  86.3343048 166.9781494  -3.4192071  85.9025269 165.8258820  -5.1746540
  85.7017746 166.8239136  -5.5641913  87.1730194 165.3278046  -5.9757061
  88.1035690 165.7678375  -5.6171608  87.3441238 164.2626190  -5.8201871
  87.2222595 165.5666656  -7.5314121  86.3626556 166.3071442  -8.0798445
  88.1645279 165.0850677  -8.2087336  84.6180954 164.9964600  -5.4813223
  84.6778259 164.0460358  -6.3416452  83.5416260 165.1896667  -4.7789950
  83.6004715 165.9739685  -4.1453404  82.2238693 164.7340698  -5.2428379
  82.3489761 163.7747650  -5.7450213  81.2399292 164.5873718  -4.0956225
  80.9423065 165.5697937  -3.7290306  80.3726883 164.0600891  -4.4930811
  81.8758621 163.7722473  -2.9305823  82.4209595 162.9092102  -3.3128355
  82.6690140 164.4176331  -2.5530951  81.0058594 163.3819885  -1.4549363
  79.6743774 162.3076782  -2.0802050  80.2041168 161.5022888  -2.5889399
  79.1566620 161.8234406  -1.2522055  78.9630814 162.9571533  -2.5904577
  81.6370850 165.6621246  -6.4098969  81.9928513 166.8341064  -6.5976143
  80.7256927 165.1040955  -7.2530413  80.4812622 164.1386261  -7.0850081
  79.7865219 165.8166656  -8.1103430  80.2840424 166.6012573  -8.6804314
  79.1752396 164.8324432  -9.0871944  79.9353256 164.2438660  -9.6009607
  78.6620941 164.0492554  -8.5291739  78.2444000 165.3643036 -10.1253586
  77.4789581 165.8762665  -9.5421782  78.6369171 166.1675415 -10.7489376
  77.5694733 164.2317963 -10.9833269  77.5492859 162.9834442 -10.6372957
  77.0930405 164.6110687 -12.0523834  78.7039642 166.5277710  -7.2319551
  78.3601761 166.1131439  -6.1078830  78.0473709 167.5562286  -7.7853765
  78.4020386 167.8966980  -8.6676426  76.9375916 168.3095398  -7.1684413
  76.5894012 167.7890015  -6.2763062  77.4488373 169.6172028  -6.5819402
  77.6889648 170.3088226  -7.3894749  76.6310883 170.0369720  -5.9961262
  78.6610107 169.4057922  -5.6358075  78.5199738 168.5329742  -4.9983139
  79.5227814 169.2114410  -6.2743030  79.0434494 170.6079254  -4.7613702
  78.3948975 171.6684113  -4.8685546  80.0550156 170.5044861  -4.0222340
  75.6425323 168.5796509  -7.9869528  75.7294846 168.7061615  -9.2093163
  74.4984970 168.6388855  -7.3383136  74.5856094 168.4147339  -6.3573594
  73.2128525 169.0126495  -7.9753027  73.2929077 169.0719757  -9.0607386
  72.2474899 167.8671570  -7.6452227  72.2849274 167.7855225  -6.5589285
  71.2366791 168.1921387  -7.8916931  72.5918427 166.4848938  -8.2061281
  72.1123276 166.1189423  -9.4708261  71.5436859 166.8258209 -10.0568018
  72.4419479 164.8809052  -9.9691057  71.9520721 164.5076294 -10.8562918
  73.3260956 164.0276337  -9.2935610  73.5999603 163.0698090  -9.7106647
  73.7368927 164.4148560  -8.0237913  74.3220673 163.7545471  -7.4009190
  73.3491898 165.6237488  -7.4481945  73.7494583 165.8909454  -6.4813457
  72.6513596 170.3731689  -7.4125147  72.4393539 170.5703430  -6.2268767
  72.5327911 171.3474121  -8.2511063  72.6009979 171.1604614  -9.2413054
  72.0260391 172.6989441  -7.9967480  72.1489029 172.9296112  -6.9385424
  72.8863297 173.6433716  -8.8788109  72.6933441 174.7088318  -8.7537127
  73.9156113 173.4503479  -8.5764437  72.7799301 173.3762054 -10.3756704
  73.2682724 172.2501068 -11.0112238  72.7668228 172.2797852 -12.2514400
  72.9452362 171.4343719 -12.8993826  71.9860992 173.3614044 -12.4435549
  71.4772720 173.4990845 -13.3050871  71.9556808 174.0486755 -11.2226229
  71.2491760 174.8419342 -11.0276718  70.5007019 172.9668732  -8.3250399
  69.9424133 173.9660950  -7.8078332  69.8178711 172.0670471  -9.0503368
  70.2984390 171.3381042  -9.5580778  68.3447723 172.0313568  -9.2294445
  67.8918228 173.0141602  -9.3599854  68.1595688 171.5918274 -10.2095547
  67.6522446 171.2999268  -8.0395489  68.1629639 170.2714996  -7.5475674
  66.6039124 171.9286194  -7.4494042  66.1933365 172.7434692  -7.8824801
  65.9048004 171.4777985  -6.1865349  66.5813293 170.8285675  -5.6307373
  65.5294342 172.7689056  -5.4210296  64.8989410 173.4307709  -6.0147624
  64.9100418 172.4733429  -4.5742159  66.7388916 173.5562897  -4.8359323
  67.2620850 173.9607849  -5.7023921  66.3259430 174.3509216  -4.2145309
  67.6410904 172.7065887  -3.9467089  67.0289917 172.1695709  -3.2221093
  68.0567856 172.0168610  -4.6812644  68.6961517 173.5251312  -3.2637861
  69.6106949 173.6553955  -3.6721253  68.6453629 174.2099609  -2.0987093
  67.5263290 174.3833466  -1.4818013  66.7535248 173.8713531  -1.8827049
  67.5018463 174.8529816  -0.5879630  69.6731262 174.8168945  -1.5731194
  70.5339661 174.8230438  -2.1013334  69.6377335 175.5050659  -0.8347008
  64.7086182 170.5669250  -6.4452620  64.1452637 170.4017944  -7.5284801
  64.2840729 169.8353729  -5.4196973  64.7106628 169.9848328  -4.5164857
  63.1743164 168.8279572  -5.5478587  62.7572174 168.8223419  -6.5548849
  63.6650238 167.4006195  -5.3255882  64.0073471 167.2145386  -4.3076057
  62.6882744 166.3181152  -5.7957568  62.4303398 166.5053711  -6.8381114
  63.0674820 165.3212738  -5.5708237  61.7786789 166.3721313  -5.1975856
  64.8188095 167.1446381  -6.1053233  64.6836472 166.2585754  -6.4491887
  62.0969086 169.2270355  -4.5482130  62.3130341 169.2617950  -3.3686664
  60.9477806 169.5090942  -5.0814981  60.9053726 169.5061951  -6.0906038
  59.7360878 169.7853088  -4.2451248  59.8923187 169.2288971  -3.3209438
  59.5995712 171.3144531  -3.9487627  59.8570480 171.8101959  -4.8847399
  58.5918732 171.6714630  -3.7361612  60.3815880 171.7194977  -2.7164536
  61.4283218 171.4349670  -2.8236463  60.2734604 173.2425537  -2.4871426
  59.2253418 173.5370483  -2.4340100  60.8254471 173.6271210  -1.6295203
  60.6818924 173.8153992  -3.3196900  59.8379097 171.1428680  -1.4096475
  60.1114540 170.0881653  -1.3801994  60.3970680 171.7382965  -0.6879024
  58.7603188 171.2581177  -1.2929653  58.4545135 169.2789459  -4.9198418
  58.3652763 169.1747284  -6.1327667  57.4920540 168.8652344  -4.1122084
  57.6051102 169.0543365  -3.1265311  56.0954323 168.3742828  -4.4315352
  55.9674568 168.2404938  -5.5056968  55.9530067 166.9933014  -3.7165873
  55.7047234 167.0922852  -2.6598668  55.0515289 166.5662384  -4.1559639
  57.0983925 165.9491882  -3.9738314  57.9146233 165.2409821  -3.0660489
  58.6502495 164.4314575  -3.7997587  59.4662590 163.8086700  -3.4640977
  58.3479652 164.4971161  -5.0574231  58.7212448 163.9118042  -5.7910175
  57.3037529 165.4189758  -5.1825199  56.9019432 165.8448792  -6.0900216
  55.0277367 169.3916473  -3.9804933  55.2278557 170.1490326  -3.0027962
  53.7871780 169.3985138  -4.5355372  53.5888977 168.8472290  -5.3582573
  52.7245445 170.2123108  -4.0000939  53.1542892 171.1894989  -3.7798245
  51.5940399 170.4515991  -4.9945383  51.1404076 169.5209045  -5.3352995
  50.8328171 171.0479126  -4.4914908  52.0222626 171.3109894  -6.1447058
  51.8286095 172.5628662  -6.0746226  52.4364853 170.7275848  -7.1799593
  52.2677460 169.7154083  -2.6385868  52.2826080 168.5048981  -2.3021853
  51.8761749 170.6629639  -1.7389795  51.9287071 171.6139526  -2.0750973
  51.3770409 170.3480835  -0.4111392  52.1919518 169.8578949   0.1215383
  50.9858360 171.6161194   0.2554701  50.3297462 172.2145691  -0.3765874
  50.4465370 171.2974854   1.1475080  52.2060585 172.4685669   0.7177200
  53.3007088 171.8984680   1.0468518  52.2143478 173.7043304   0.7784026
  50.1798897 169.3506622  -0.4028598  49.2868233 169.3366699  -1.2678654
  50.2175674 168.5013275   0.6085147  50.9398956 168.6352539   1.3016336
  49.2526779 167.4163971   0.9147797  49.7557030 166.7224274   1.5881976
  48.0121231 168.0510559   1.5997393  47.8131676 168.9968719   1.0957804
  47.1529083 167.4104156   1.4012113  48.1595612 168.3394928   3.0820127
  48.6947060 167.4624939   3.7805254  47.6678276 169.4457245   3.4609172
  48.8697014 166.5366211  -0.3099281  47.8174858 165.8912201  -0.3272848
  49.6431580 166.5158234  -1.3773477  50.3595467 167.2238464  -1.4520630
  49.4843521 165.6226807  -2.5093369  48.4210968 165.4739838  -2.6976750
  50.1560173 166.2421417  -3.7309048  49.8297234 165.6911774  -4.6129885
  49.8219032 167.2750702  -3.8285494  51.5784531 166.0946655  -3.7616305
  51.9467316 166.8185425  -3.2498105  50.0069084 164.1987915  -2.0963142
  50.8640671 164.1388550  -1.2341017  49.3952255 163.1309662  -2.6116102
  48.7512970 163.2601013  -3.3789313  49.8418274 161.7656555  -2.4032943
  50.0575523 161.6121368  -1.3459437  48.7901993 160.7688446  -2.8361044
  47.8733292 161.1694183  -2.4036846  48.5288429 160.8080292  -3.8935843
  49.1709785 159.0738068  -2.3438041  48.7996521 159.2961121  -1.0798447
  51.1559067 161.6255951  -3.2229750  51.1419983 162.0949707  -4.3619542
  52.1478310 160.8445282  -2.7262590  51.9360924 160.4669342  -1.8137434
  53.3235016 160.4976959  -3.5226750  53.0720177 160.5746613  -4.5804696
  54.4328423 161.5652771  -3.3231444  54.7980728 161.4911957  -2.2988312
  55.3259201 161.1972656  -3.8282015  54.1346550 163.0147705  -3.6469731
  53.3038101 163.3496246  -3.0259490  55.0285645 163.6056671  -3.4473367
  53.7911911 163.2693787  -5.1151714  54.1933556 162.5514069  -6.0186300
  53.0022774 164.2348480  -5.5446439  52.6914635 164.1827698  -6.5042191
  52.5931244 164.9438629  -4.9530401  53.8334732 159.0348969  -3.2583888
  53.4321098 158.4946442  -2.2494097  54.6948433 158.4786377  -4.0858984
  54.8978882 158.8831482  -4.9888086  55.3310776 157.2195435  -3.8922901
  55.1281891 156.9355164  -2.8596895  54.7840576 156.1503296  -4.8209090
  53.7065392 156.0820465  -4.6712561  55.0659180 156.2207947  -6.3104863
  56.1352425 156.3332977  -6.4893332  54.7089500 155.3403625  -6.8448243
  54.5316925 157.1226349  -6.6094618  55.3789902 154.8144531  -4.3909063
  55.0187149 154.6184082  -3.3810153  54.9592361 154.0150452  -5.0015378
  56.4680748 154.7773285  -4.4156265  56.8224716 157.3972321  -4.0777078
  57.2656898 158.0544739  -5.0096550  57.6275253 156.8578339  -3.1042011
  57.1662178 156.3981781  -2.3321822  59.0981369 157.1226196  -2.8761015
  59.5222359 157.3693695  -3.8494236  59.2779007 158.3818817  -2.0261149
  58.9658318 158.1006927  -1.0203089  60.7300644 158.8943024  -1.9903017
  61.0423050 159.4961853  -2.8437312  60.8597755 159.5143585  -1.1032732
  61.4844780 158.1082001  -1.9587137  58.3604469 159.5757294  -2.4148741
  58.6082993 159.7501678  -3.4618907  57.3544922 159.1842194  -2.2636445
  58.4757538 160.8947601  -1.6626116  59.2729378 161.5461426  -2.0207808
  57.5690231 161.4916382  -1.7609349  58.5652275 160.7291565  -0.5889833
  59.8601990 155.9117889  -2.2638786  59.3176308 155.3016510  -1.3407948
  61.0506668 155.4825897  -2.7703524  61.6563263 155.9478607  -4.0281124
  61.9433136 156.9993896  -4.0215573  61.0206604 155.7980499  -4.9008007
  62.9774361 155.2185364  -4.1611900  63.8066483 155.8508606  -3.8439202
  63.1777840 154.8132477  -5.1530085  62.8805580 154.0158234  -3.2072623
  63.8386269 153.6974640  -2.7963400  62.4811440 153.2100677  -3.8231602
  61.8789177 154.4312897  -2.1307926  61.0733147 153.7083130  -2.0027437
  62.5154457 154.8655853  -0.7590436  62.9261208 155.9851532  -0.6225424
  62.5896263 153.8740997   0.1704966  62.1398659 152.9814453   0.0255668
  63.3606834 153.9581299   1.4037992  63.6181450 154.9936371   1.6264288
  62.6170692 153.4504089   2.6846256  62.1958351 152.4872742   2.3964555
  63.4366570 153.3069611   3.9916501  63.9041367 154.2263031   4.3443389
  62.8584213 152.9612579   4.8485193  64.2025375 152.5435791   3.8545859
  61.4342270 154.3523560   3.0139408  60.8443260 154.3337708   2.0975444
  60.8060303 153.9209747   3.7932906  61.7576485 155.3477173   3.3184843
  64.6378326 153.2006989   1.2060158  64.5452728 152.0325623   0.8344468
  65.7857208 153.7281189   1.7092665  65.9463120 154.7073822   1.8973372
  67.0096054 152.9120636   1.9981856  67.0783920 152.2922363   1.1042143
  68.2474670 153.7969971   2.0313458  68.0218048 154.5272369   2.8084791
  69.1813583 153.3238525   2.3347893  68.6753693 154.4883423   0.6572340
  67.8132401 154.9366760   0.1634280  69.5555801 155.7042542   0.9511990
  70.5250168 155.4208679   1.3610668  69.6764984 156.4026794   0.1231421
  69.0131149 156.3745270   1.6179684  69.4625015 153.4868317  -0.2455303
  68.9368057 152.5335999  -0.3010992  69.7651215 153.9017639  -1.2069660
  70.3681259 153.2812805   0.3251607  66.8918076 151.9717712   3.2624078
  66.6734085 152.5725861   4.3143721  67.0793610 150.6391754   3.2322869
  67.3408508 149.8363647   2.0639501  68.2838135 150.1602478   1.6234711
  66.5596390 149.9123230   1.3076192  67.4392319 148.4071808   2.5688519
  68.4773407 148.1250916   2.7445226  67.0563812 147.7197876   1.8145132
  66.5429535 148.4070282   3.8364203  66.7956696 147.6177673   4.5444465
  65.5154877 148.2872925   3.4928002  66.7599945 149.8177643   4.3753238
  65.7613068 150.1343231   4.6761832  67.7014389 149.9154510   5.5677843
  67.3138657 149.7559814   6.7260256  68.9973221 150.2291107   5.3193097
  69.2476120 150.4042358   4.3566117  69.9633484 150.4528046   6.4590783
  69.7206650 149.7879486   7.2880349  71.3181458 149.8705902   6.0350518
  71.5880966 150.4331970   5.1413579  72.0654984 150.1972046   6.7581658
  71.4496460 148.3831177   5.7732120  70.7041168 147.6812286   4.8494468
  71.0559540 146.3773193   4.9251475  70.5847626 145.5421143   4.4283276
  71.9296112 146.2763977   5.9580531  72.2906342 145.3505402   6.1384163
  72.1919785 147.5097046   6.4812989  72.8937531 147.7452393   7.2677050
  69.9712143 151.8225403   7.1730781  70.7985535 151.9501343   8.0765619
  69.1495361 152.7963409   6.6610017  68.6692429 152.5261688   5.8145795
  68.9574890 154.0772552   7.3713818  69.8959045 154.4539490   7.7782946
  68.3690262 155.1318207   6.4119968  67.4180069 154.7786102   6.0133777
  68.2279739 156.4907532   7.1592097  69.2136383 156.7482758   7.5468435
  67.9482956 157.3256683   6.5167160  67.4888077 156.3698730   7.9511137
  69.3634949 155.2242432   5.2586117  69.2149200 154.3638458   4.6061168
  69.0821686 156.1058807   4.6827068  70.3688889 155.2974854   5.6732450
  67.9027252 153.7863617   8.4668217  66.7528610 153.5566101   8.1934214
  68.3115082 153.9302673   9.7465000  69.2908020 153.8347015   9.9744434
  67.4529037 153.6809387  10.9760075  66.4209900 153.5016632  10.6741600
  67.8847198 152.3943634  11.7419653  68.8429413 152.6541290  12.1918840
  67.1545792 152.0795135  12.4875355  68.2074432 151.1646271  10.8750210
  67.3434296 151.1067047  10.2130337  69.0729675 151.3884583  10.2514277
  68.4784241 149.5946198  11.7228384  69.2452393 148.6136017  10.4048109
  70.1594162 149.0590973  10.0124769  69.4993210 147.6309357  10.8021851
  68.5102386 148.5751343   9.6008244  67.2947388 154.8531952  12.0021734
  66.3692017 154.8796387  12.8099174  68.1482162 155.8553619  11.8343439
  68.8988876 155.6848602  11.1804924  68.0725327 157.2089996  12.4498987
  67.6591949 157.0325470  13.4429331  69.4513397 157.8605499  12.6959705
  69.3289948 158.8307648  13.1774178  70.1588974 156.9470062  13.7642765
  70.4884109 155.9631805  13.4301624  71.0787277 157.3492889  14.1887503
  69.4691620 156.7852631  14.5926504  70.3017731 157.9152222  11.3825064
  69.6624527 158.1481171  10.5309563  71.0420609 158.6991730  11.5422335
  70.7413101 156.9191742  11.3295717  67.0509644 158.1222992  11.7162066
  66.7859879 158.0166626  10.5126076  66.4344254 158.9741211  12.5380344
  66.7735443 158.9409485  13.4888239  65.3841629 159.8596344  12.0967808
  64.8513489 159.2443542  11.3717613  64.5038605 160.1545715  13.2970104
  64.2618103 159.2026978  13.7697115  65.1436234 160.7640686  13.9352236
  63.2559433 160.9624023  12.9642792  63.5495567 161.8493958  12.4029198
  62.6809120 160.4367065  12.2019796  62.2991753 161.5843201  14.3430233
  62.4328575 160.2493744  15.5346012  63.4752045 160.1914825  15.8480806
  61.6697884 160.3923340  16.2997074  62.1990967 159.2735291  15.1089611
  65.9226227 161.1825867  11.4809656  66.5310593 162.0281067  12.1581583
  65.6642151 161.3409882  10.1745453  65.3369293 160.5150757   9.6940708
  65.9183426 162.5835114   9.4852238  66.9050522 162.9666138   9.7454681
  65.8358688 162.3227692   7.9617844  66.5474396 161.5249329   7.7491031
  64.8516617 161.9622498   7.6626716  66.1331711 163.5128326   7.0261979
  65.3810425 164.2821655   7.2009501  67.5626221 164.0251007   7.2254038
  68.3665924 163.2935791   7.1441479  67.7971268 164.7685242   6.4635525
  67.5573349 164.5208740   8.1961155  66.0722122 163.0565948   5.5304146
  65.0654678 162.7321320   5.2671866  66.4540405 163.8637695   4.9052806
  66.6622696 162.1447754   5.4381204  64.8966827 163.6561432   9.9966793
  63.6630249 163.4663239   9.9612961  65.3217850 164.9307404  10.2413559
  66.3035126 165.0545044  10.4438334  64.4714050 166.1358337  10.4046097
  63.4285507 165.8480682  10.2713509  64.7485657 166.8024139  11.7804661
  65.7694092 167.1844025  11.7720680  63.7608528 167.9747620  12.0224886
  62.7370338 167.6138458  12.1206026  64.1099014 168.4394684  12.9446163
  63.8969917 168.6706085  11.1946201  64.6086349 165.8387909  12.9796486
  65.3450699 165.0492859  12.8297434  64.9142685 166.4426270  13.8340836
  63.3316689 165.0543365  13.2058086  63.0841599 164.4149017  12.3584871
  63.4350128 164.4460297  14.1043510  62.4933128 165.7349243  13.3544102
  64.6947021 167.0571289   9.1797676  65.8832932 167.0647278   8.7672501
  63.7204933 167.7706146   8.5514584  62.2751083 167.8454437   8.7201939
  62.1065636 168.4280701   9.6258650  61.8864784 166.8338623   8.8376122
  61.7159424 168.4715424   7.4135838  60.8280983 169.0500031   7.6689453
  61.5725555 167.8036346   6.5642080  62.8848152 169.3862915   7.0933108
  62.8720398 170.2908173   7.7013984  62.8993454 169.6920471   6.0471735
  64.1978378 168.7076874   7.4373813  64.4671783 168.1205292   6.5594187
  65.2917480 169.6334686   7.9147215  65.4261169 170.0121307   9.0968628
  66.0404816 170.1271667   6.8776984  65.7795410 169.9466400   5.9188356
  67.1616974 171.0460968   7.1429729  67.3387222 171.6014709   6.2219200
  66.8925247 171.7395477   7.9397049  68.4738922 170.3283234   7.6066618
  69.5729980 170.9265594   7.5137305  68.3606796 169.0841675   8.1120539
  67.4347610 168.6818695   8.0815525  69.5662231 168.2358551   8.6318970
  70.1726837 168.8751526   9.2734613  69.0238266 167.1018829   9.5519142
  68.4025421 167.5613251  10.3206930  68.3286133 166.4757843   8.9926510
  70.0997162 166.3090668  10.2905951  70.7350159 165.8518372   9.5320263
  70.7450256 166.9396973  10.9021425  69.4896851 165.1831970  11.1551704
  68.2745590 165.0882263  11.4772530  70.2529907 164.1531830  11.5550747
  69.9311752 163.5262909  12.2786379  71.2063751 164.0041656  11.2568264
  70.2777176 167.7321014   7.4258575  69.7022400 167.0193939   6.5918846
  71.6023026 167.8246307   7.3657880  72.0744247 168.4201660   8.0310163
  72.4345093 167.1558533   6.3386364  71.9329300 167.1288452   5.3712730
  73.7309723 167.9313202   6.1133995  74.1448212 168.2604980   7.0665302
  74.7916718 167.1388397   5.3364081  74.2195129 166.7529907   4.4926929
  75.6338501 167.7889252   5.0992794  75.1519775 166.3145599   5.9519200
  73.4367294 169.0864716   5.3058634  74.2321777 169.2522430   4.7946048
  72.5822220 165.6786499   6.7817364  72.8057098 165.3407593   7.9779243
  72.5953827 164.7838287   5.8099122  72.3277969 165.1436310   4.9049063
  72.7635498 163.3153687   5.9310021  73.0412064 163.1662445   6.9744482
  71.3090973 162.7663727   5.7353148  70.6315002 163.2520905   6.4374838
  70.9722061 162.8683319   4.7037072  71.1098251 161.2668457   6.0689931
  71.7432632 160.6340485   5.4473615  71.4193497 160.8722839   7.4977951
  70.8230896 161.3624115   8.2674341  71.2987747 159.7960663   7.6216249
  72.4858398 161.0436401   7.6438475  69.6240997 160.8937988   5.8089938
  69.2785492 161.2703705   4.8462348  69.5909882 159.8109283   5.6891074
  68.9679260 161.3088531   6.5740299  73.8247375 162.7539215   4.9221091
  73.5024185 162.4635162   3.8016927  75.0519638 162.5659485   5.3565435
  75.5253983 163.0640411   6.7052660  74.8580399 162.7113647   7.4916162
  75.5823593 164.1513977   6.6550837  76.9061508 162.4095154   6.8536448
  76.8610535 161.4249420   7.3191342  77.5973816 163.0696411   7.3776097
  77.4075546 162.1617737   5.4408884  78.1039352 161.3322601   5.3181467
  77.7214432 163.1263733   5.0419874  76.1282883 161.8153076   4.7049723
  76.1950455 162.1170197   3.6596880  75.7991943 160.3380280   4.7408843
  75.3586655 159.8872070   5.8131657  76.0895996 159.5918579   3.6741104
  76.2155914 160.0216217   2.7688320  75.8522034 158.1312256   3.6431928
  75.8067627 157.7849426   4.6757293  74.4855957 157.8332672   2.9615183
  74.5228882 158.2187347   1.9426372  74.3649063 156.7550507   2.8566599
  73.2320023 158.3030548   3.7195301  73.2798233 159.3536987   4.0058436
  72.0181351 158.1810455   2.7794027  72.0786057 157.2425385   2.2283471
  71.1549377 158.3510742   3.4228909  72.0499496 159.0000000   2.0607879
  72.9246445 157.3921967   4.9054914  73.8525772 157.2729645   5.4648066
  72.1765823 157.8332977   5.5642242  72.6467896 156.3874054   4.5872226
  76.9512024 157.3569336   2.8876376  77.6985855 157.9304810   2.1074166
  77.0284424 156.0215149   3.0298994  76.3986435 155.6210022   3.7103744
  78.0013809 155.2220001   2.3420651  78.2305603 155.6274109   1.3565603
  79.3303909 155.1856995   3.1022806  79.6682358 156.2208557   3.0532460
  79.0480957 154.9101410   4.1183929  80.4858932 154.2450714   2.6863823
  80.3529129 153.2152710   3.0179482  80.5383301 154.2288208   1.5977653
  81.8945389 154.5998993   3.1621132  82.1178894 155.6353912   3.8049603
  82.8590393 153.7947083   2.7413630  83.8212585 153.9459686   3.0084972
  82.5323105 153.0574646   2.1332309  77.3984909 153.7920685   2.0982461
  77.0365143 153.0644684   3.0040123  77.0430984 153.5121918   0.7963950
  77.2757111 154.1695099   0.0656927  76.1589279 152.4288025   0.4650500
  75.8813400 151.9509277   1.4045624  74.8802643 152.9822083  -0.2520554
  75.1852341 153.1863251  -1.2784220  74.1565933 152.1702728  -0.3238608
  74.1979141 154.1914825   0.3426396  74.9056473 155.0185394   0.3990609
  73.1011658 154.7318726  -0.5661234  72.3697815 153.9309998  -0.6746730
  72.7285156 155.6627350  -0.1386542  73.5838470 154.8212433  -1.5393305
  73.7137070 153.8487396   1.7638007  74.5300598 153.4835663   2.3869543
  73.1785202 154.6767883   2.2285666  73.0338287 152.9971466   1.7381809
  76.9404373 151.4702148  -0.3752689  77.4916840 151.8314514  -1.4393737
  76.8850021 150.1518860  -0.0310517  76.2516632 149.9602051   0.7319978
  77.8412476 149.1241913  -0.5199193  78.2740479 149.4608612  -1.4619532
  79.0447464 149.0142212   0.4376412  79.7755890 148.2925415   0.0727365
  79.5004349 150.0043640   0.4440677  78.8387375 148.6764069   1.8953629
  78.1876907 149.5747375   2.8025248  78.0316696 150.6232452   2.5959671
  77.9620132 149.1284790   4.1134052  77.5048370 149.8333282   4.7920613
  78.2293015 147.8110504   4.5131941  78.0206833 147.4397888   5.5056868
  78.7892532 146.8937683   3.5516343  78.8447113 145.8320770   3.7417586
  79.0097122 147.3291473   2.2799759  79.2446213 146.6028900   1.5159376
  77.1849747 147.6930237  -0.7015644  77.7660522 146.9764557  -1.5353411
  76.0546265 147.3902435  -0.0220728  75.7938080 148.0125122   0.7294901
  75.1926346 146.2919464  -0.5218931  75.8820496 145.4490967  -0.5710604
  74.1274033 145.8170319   0.4106464  73.4590149 146.6492004   0.6316768
  73.4791794 145.0893250  -0.0775755  74.7335663 145.1863098   1.6295791
  74.7224960 143.8041382   1.9344424  75.3927078 143.6399841   3.0848269
  75.6589203 142.6972656   3.5395799  75.8540497 144.8316498   3.4411128
  76.5145187 144.9031525   4.2018847  75.4240189 145.8441620   2.6020815
  75.3983459 146.8936615   2.8556488  74.7239075 146.6333313  -1.9404100
  74.3736267 147.7964478  -2.1660519  74.5358505 145.5939331  -2.8512053
  74.8636475 144.1732483  -2.6701183  74.3396454 143.8527832  -1.7696615
  75.9298096 143.9485168  -2.6402640  74.2976379 143.4817047  -3.8975484
  73.2446365 143.2209930  -3.7911029  74.8413696 142.5903015  -4.2103448
  74.4663696 144.5210876  -5.0163679  73.6960144 144.4554749  -5.7847152
  75.4155655 144.5238647  -5.5521960  74.4125443 145.9245758  -4.3225923
  75.2213287 146.5448456  -4.7089109  73.0355988 146.5699921  -4.6198997
  72.9779053 147.5051270  -5.4680147  71.9913635 146.1062317  -3.9907801
  72.1814117 145.3289032  -3.3745401  70.6454010 146.7621155  -4.0966530
  70.4266815 146.7979279  -5.1638856  69.5164948 145.8839111  -3.4875786
  68.5874634 146.3114166  -3.8647301  69.6854935 144.9044037  -3.9349258
  69.3674927 145.7503662  -1.9499519  69.2371521 146.7362061  -1.5036160
  68.3955536 145.3413391  -1.6740273  70.3938675 144.9298096  -1.1354530
  71.4605484 144.5602417  -1.5241933  69.9867401 144.5489349   0.0444612
  70.7134094 144.0788269   0.5650858  69.1133194 144.8043060   0.4826657
  70.6693726 148.1914215  -3.6406898  69.8612289 148.9927063  -4.1791291
  71.4170456 148.6450500  -2.6692874  71.9656296 147.9855804  -2.1361456
  71.3929596 150.1102600  -2.2632582  70.3752060 150.4909821  -2.3488126
  71.9197235 150.2855377  -0.8587692  72.9731598 150.0059357  -0.8449308
  71.7566376 151.3189240  -0.5528018  71.1653976 149.4805145   0.1914621
  70.0983124 149.6804352   0.0941635  71.4077454 148.4449768  -0.0473506
  71.7518234 149.8500519   1.5580176  72.9723053 149.6977386   1.8398898
  70.9255600 150.3223419   2.4287317  72.2155228 151.0062866  -3.1869082
  71.7722168 152.1020050  -3.4131813  73.3537750 150.4959106  -3.6726985
  73.5997162 149.5745697  -3.3399069  73.9992447 151.0142975  -4.8904080
  74.3894806 152.0008240  -4.6402249  75.1529160 150.0756683  -5.2404261
  74.8580399 149.0365906  -5.3870201  75.8766708 150.5592651  -6.4958782
  76.2275314 151.5791321  -6.3381929  76.6499176 149.8071747  -6.6525726
  75.2055817 150.4233551  -7.3439736  76.2513046 149.9534454  -4.1552548
  75.9468918 149.5681915  -3.1821043  77.0335312 149.2745667  -4.4949107
  76.6344986 150.9653931  -4.0241051  73.0059738 151.1138611  -6.0336814
  72.8291245 152.2307587  -6.5383577  72.2834549 150.0553131  -6.4692092
  72.5797501 149.1450653  -6.1470833  71.3769989 150.1008301  -7.6536460
  71.9612198 150.4083252  -8.5209684  70.8572845 148.6940765  -7.9193254
  71.6915665 148.0149689  -8.0950851  70.2967148 148.2944794  -7.0742331
  70.1689224 148.7777863  -9.1253624  69.4027176 148.2036438  -9.0553617
  70.2722931 151.1850281  -7.5589509  70.0829391 152.0331573  -8.3946924
  69.5331650 151.0667267  -6.4433498  69.7855377 150.3825684  -5.7445431
  68.4633331 152.0046997  -6.1631231  67.6372757 151.8743134  -6.8622088
  67.8086166 151.6851501  -4.8116589  67.5402069 150.6314240  -4.7358899
  68.5886078 151.9601440  -4.1016650  66.5063477 152.4048920  -4.4998183
  65.7972183 152.1038971  -5.2709489  66.1808090 151.9354858  -3.5714946
  66.4362335 154.1897583  -4.2433791  67.0153580 154.3526154  -2.6059926
  68.0999069 154.2498627  -2.6420712  66.8395309 155.3550873  -2.2158248
  66.5700073 153.5277252  -2.0498085  68.8748550 153.5097656  -6.2619886
  68.1222992 154.3228302  -6.9288526  69.9562531 153.9898071  -5.6368990
  70.4752884 153.3367004  -5.0675440  70.3345032 155.3728790  -5.8026905
  69.4895630 156.0458221  -5.6566515  71.3061829 155.8156586  -4.6781321
  71.5964355 156.8608093  -4.7853627  70.6788025 155.6220398  -3.2694395
  70.7196579 154.5609589  -3.0233793  71.3506241 156.2140961  -2.6479683
  69.6472244 155.9722290  -3.3056335  72.7064133 155.1549377  -4.8000216
  73.0900345 155.0824738  -5.8177066  73.4134598 155.6784821  -4.1565146
  72.7287903 154.0977936  -4.5353665  70.9278564 155.6820221  -7.1165805
  70.7926636 156.8041687  -7.5823650  71.6027069 154.7364502  -7.8056984
  71.7010269 153.8163452  -7.4009433  72.1174011 154.8493958  -9.1562576
  72.8022919 155.6938629  -9.2330112  72.8765488 153.5907745  -9.6379070
  73.6665573 153.3874664  -8.9149618  72.1246262 152.8038940  -9.5784388
  73.4194489 153.6818542 -11.0089893  72.6577454 153.8380432 -11.7728643
  73.9560852 154.6255798 -11.1064253  74.2086868 152.4575653 -11.4353104
  73.4628906 151.6645508 -11.3802280  74.5602875 152.4831848 -12.4667282
  75.4881744 152.2307434 -10.6422491  76.0615540 153.0100250 -10.3523149
  76.0485992 151.0398560 -10.3373423  75.4986649 149.8823547 -10.5216656
  74.6248093 149.8343201 -11.0258121  76.0119171 149.0792236 -10.1875267
  77.1205826 150.9663239  -9.6224527  77.5882645 151.8447876  -9.4501648
  77.5226212 150.0454865  -9.7250051  70.9777145 155.2599640 -10.1009016
  71.0262756 156.3477173 -10.6459656  69.9058228 154.5074921 -10.1552134
  69.8623505 153.7288055  -9.5134535  68.7683411 154.6679535 -11.0827618
  69.0768280 154.8684387 -12.1087933  67.9267960 153.3278351 -11.0811119
  67.5721817 152.9753113 -10.1125708  67.0434875 153.5062256 -11.6943302
  68.6872253 152.2145691 -11.7701263  68.8227158 152.2485352 -12.9776812
  69.1335373 151.1933441 -11.0326414  69.7329102 150.5094147 -11.4720774
  69.1041412 151.3214417 -10.0312290  67.8988495 155.9074249 -10.7447691
  67.2446442 156.4076538 -11.6246376  67.8782120 156.3551331  -9.5184383
  68.4146576 155.7637177  -8.8999166  67.2865448 157.6286011  -9.0251627
  66.2564163 157.7734375  -9.3506680  67.1312027 157.4657593  -7.4284472
  66.4639740 156.6230011  -7.2476454  68.0709686 157.3238831  -6.8947787
  66.5427933 158.7583923  -6.7525287  67.2048798 159.6192932  -6.8451018
  65.1043015 159.1061859  -7.1177897  64.4881287 158.2092438  -7.0550771
  64.6750488 159.8649750  -6.4635110  65.0103455 159.6041260  -8.0828457
  66.5239639 158.4926300  -5.2323637  67.4411316 158.0926514  -4.8000054
  66.2847748 159.3770294  -4.6418247  65.8753052 157.6252899  -5.1096120
  68.1237335 158.9187775  -9.3937616  67.5746078 160.0369263  -9.5405197
  69.4640274 158.8187103  -9.5160456  69.8498993 157.8921814  -9.4030418
  70.3061218 160.0039825  -9.7315712  69.9092712 160.7742004  -9.0702171
  71.7782440 159.7260895  -9.2861061  71.7613983 158.7680664  -8.7664995
  72.7104874 159.4629974 -10.4450951  72.8392105 160.3999023 -10.9870653
  73.7000732 159.2326660 -10.0504293  72.3782120 158.6357880 -11.0723171
  72.3173370 160.7913513  -8.3591585  73.4058990 160.7367859  -8.3467073
  72.1038742 161.7872009  -8.7475252  71.7342224 160.7757721  -6.9339375
  72.2028198 159.9460144  -6.4047747  71.9559250 161.7301483  -6.4563227
  70.6516571 160.6496277  -6.9491529  70.1640778 160.5468445 -11.1536980
  70.5256424 161.7115173 -11.4549160  69.5293198 159.7541351 -11.9934549
  69.2543869 158.8341980 -11.6800251  69.0595703 160.1405640 -13.3542376
  69.7744446 160.8112946 -13.8308640  69.0463791 158.9553528 -14.3095045
  68.8234253 158.0728912 -13.7097683  68.2481079 159.0698547 -15.0428171
  70.3602219 158.7030029 -15.1195374  70.2570190 157.7568359 -15.6507797
  70.3847504 159.4819183 -15.8816423  71.5946808 158.6896362 -14.3069315
  72.4202576 159.5593109 -14.2499399  71.8530731 157.6154327 -13.5816841
  72.6893234 157.6695862 -13.0179043  71.2942429 156.7745056 -13.6070881
  67.6710587 160.9108582 -13.3151093  67.1852493 161.4871979 -14.2902308
  66.9187546 160.9180298 -12.1419973  67.3858795 160.5805817 -11.3125210
  65.5779877 161.5256042 -11.9998341  65.5244980 162.2951813 -12.7698975
  64.5202255 160.4326324 -12.3343344  63.5249863 160.8323517 -12.1398249
  64.5586624 160.2522125 -13.4086123  64.7285156 159.0313873 -11.6874638
  65.6648560 158.5930328 -12.0327482  64.9013977 159.2971039 -10.6445799
  63.4760933 158.1091766 -11.8679638  63.3709068 157.3685150 -11.0752125
  62.6183510 158.7783051 -11.7997417  63.4481812 157.3841705 -13.1730242
  63.0258789 157.8995819 -14.0356455  64.4354858 157.0243378 -13.4626074
  62.5943489 156.1306152 -13.0746346  61.6825027 156.4180298 -12.7489958
  62.5167580 155.6700745 -13.9701700  62.8661079 155.4964752 -12.3370008
  65.3322372 162.3844910 -10.7071075  65.9407196 163.4322357 -10.5610056
  64.4093857 162.0137024  -9.8685017  63.9795036 161.1018219  -9.9299517
  64.0120163 162.9261475  -8.7031088  63.8917923 163.9408112  -9.0827198
  62.6736641 162.3874207  -8.0864305  62.2656136 161.5881348  -8.7050848
  62.8931770 162.0912933  -7.0606542  61.4672050 163.3905945  -8.1504898
  61.5907440 164.4226379  -8.8827019  60.4879150 163.2167206  -7.3977642
  64.9072495 163.1302643  -7.4877739  64.7271881 164.0995026  -6.7558389
  65.9177856 162.3015137  -7.2768822  66.0914078 161.5970001  -7.9794497
  66.9587555 162.3767548  -6.2099557  67.5347290 161.4513702  -6.2150927
  67.9287186 163.5273132  -6.4322062  67.3882217 164.4636230  -6.5711188
  68.6100845 163.7023926  -5.5996232  68.7050323 163.2667847  -7.7131371
  69.2637863 162.3441772  -7.5559812  68.0735474 163.0700684  -8.5795212
  69.6434860 164.3420105  -8.1505442  70.3298569 164.5255737  -7.3239255
  70.3477478 163.9626312  -8.8909483  68.9318390 165.5602112  -8.6321745
  68.5337906 165.4968567  -9.5582676  68.6966705 166.6245728  -7.8994732
  69.0319214 166.8168945  -6.6629467  69.6339569 166.1618958  -6.1847744
  68.7638016 167.6611176  -6.1776681  68.0358734 167.6193085  -8.4066534
  67.7240448 167.6021118  -9.3671618  67.8916245 168.5080566  -7.9490213
  66.4007568 162.4661407  -4.7277160  67.1801987 162.4257965  -3.7262509
  65.1459198 162.2749939  -4.5052695  64.5355301 162.3859253  -5.3022804
  64.4948425 162.0509033  -3.1500976  65.2035294 162.4039612  -2.4009550
  63.2219505 162.8081818  -2.7733922  62.8690796 162.4551544  -1.8043902
  63.4748383 164.3292847  -2.6590481  64.2676315 164.6967163  -3.3106377
  62.5275154 164.7403870  -3.0078707  63.7081871 164.6015167  -1.6297063
  62.1792107 162.5593719  -3.7412372  62.0431786 161.6379242  -3.9736764
  64.4194107 160.5646057  -2.8359203  63.6752090 159.8139496  -3.4822211
  65.1232986 160.1303101  -1.7861570  65.7841339 160.7187042  -1.2991493
  64.6921310 158.9369812  -1.1157187  63.9511719 158.4330597  -1.7363243
  65.9389343 158.0068970  -1.0357708  65.5387573 157.0769196  -0.6319122
  66.2755737 157.7920685  -2.0499799  67.0632324 158.5252686  -0.1440002
  68.1940613 159.1179504  -0.7627389  68.0863342 159.3287659  -1.8164703
  69.2426605 159.5577545   0.0614310  70.0781708 160.1010132  -0.3547330
  69.1776657 159.4947968   1.4956393  69.7675018 160.1345978   2.1352813
  68.0920029 158.8051605   2.1140029  68.0934296 158.5510101   3.1636753
  67.0377960 158.3513489   1.2762347  66.1836166 157.8529358   1.7102289
  63.9924583 159.2958069   0.1621592  64.3352356 160.3410492   0.7512781
  62.9731483 158.5189209   0.5720164  62.9213829 157.6038513   0.1476707
  62.3574829 158.6574554   1.8792065  62.2762604 159.7214966   2.1012704
  60.9663048 157.9577789   1.8212506  61.0386429 156.9430847   1.4297508
  60.4156876 157.9407654   2.7617984  60.3426476 158.4772644   1.0937276
  63.2638855 158.0770721   3.0366549  63.7870102 156.9885254   2.9049144
  63.2944221 158.7327271   4.2025294  62.8230858 159.6176910   4.3240376
  63.8722572 158.2730713   5.4549289  64.3373642 157.2901917   5.3791785
  64.9598160 159.2032471   6.0007668  64.6243973 160.2231750   6.1887131
  65.4882889 158.6004639   7.3801603  65.7997589 157.5563202   7.4095030
  66.2939224 159.2283936   7.7606368  64.7509003 158.7888489   8.1604548
  66.0191193 159.2425079   4.8958292  65.6552582 160.0105591   4.2133231
  66.9049835 159.7002106   5.3361211  66.1919403 158.2216797   4.5550365
  62.6956367 158.1880798   6.4591794  61.8366318 159.0801849   6.4155030
  62.6030807 157.1370544   7.2406273  63.3689156 156.4870911   7.3462124
  61.4082298 156.9186249   8.1069918  60.5928802 157.5780487   7.8095675
  60.9012680 155.4935608   7.8722100  61.8084831 154.9073486   7.7258573
  60.4571648 155.1469879   8.8053560  59.9801407 155.2162170   6.6439743
  60.4668159 155.5553284   5.7295027  59.7585907 153.7406006   6.4868546
  59.1610146 153.2576904   7.2600346  59.2765427 153.5496368   5.5280709
  60.7546196 153.3010712   6.4335141  58.6136017 155.9091949   6.6499958
  58.8077393 156.9815216   6.6729527  57.9634705 155.8148956   5.7802052
  58.0388794 155.5823517   7.5165825  61.7749367 157.1591949   9.6543274
  62.8632812 156.8014221  10.0898447  60.8903351 157.8295288  10.3336115
  60.0978661 158.2346802   9.8561678  60.7505608 157.7323608  11.7502022
  61.8060799 157.7813568  12.0177393  60.0876732 159.0199585  12.3480921
  59.0353508 158.7877808  12.5118456  60.4260406 159.1955109  13.3692646
  60.3439140 159.8568726  11.6984558  60.2650795 156.3555450  12.2607098
  59.0842857 156.1255493  12.5392303  61.1513329 155.3806305  12.3217192
  62.0999489 155.6092987  12.0610723  60.7568626 154.0798492  12.9475718
  59.8816948 153.6869812  12.4300375  61.9196701 153.0338593  12.8331995
  62.8536110 153.3703766  13.2833309  61.6022606 152.0653534  13.2196608
  62.2779045 152.7677612  11.3716078  61.4169426 151.9183044  10.6192064
  60.5529327 151.4779816  11.0946140  61.6033707 151.6992188   9.2728043
  60.9137268 151.0836334   8.7143688  62.7249718 152.2660828   8.6606493
  62.9442139 152.0212555   7.3637199  62.2508392 151.4322968   7.0572004
  63.5158157 153.2135468   9.3598824  64.3730698 153.6476288   8.8668451
  63.3638763 153.4366150  10.7402554  63.9545364 154.1511993  11.2942209
  60.2940063 154.0548553  14.4139948  61.1120529 154.1795197  15.3341827
  58.9484863 153.9750519  14.6535826  58.3283958 153.7227478  13.8973188
  58.2891388 153.8592987  15.9554691  58.7599258 154.6496277  16.5401459
  56.8180466 154.3008881  15.7207355  56.3394432 154.4860687  16.6823750
  56.7604027 155.2084351  15.1197939  56.0905647 153.2783051  15.0337849
  55.1640968 153.5232849  15.0907354  58.4309120 152.5635834  16.7305393
  58.3496246 152.6707458  17.9655724  58.8065720 151.4118347  16.1058197
  58.7369804 151.5110321  15.1031151  59.5718269 150.2871246  16.6083012
  60.1160431 150.6398926  17.4843636  58.5543327 149.2619324  17.1470184
  57.9685326 149.7725830  17.9113407  57.8655090 148.8571930  16.4055252
  59.1692657 148.0319672  17.7512417  59.9808273 147.3046265  17.2052555
  58.8023720 147.7177582  18.9835892  59.0913544 146.8172760  19.3381710
  58.0635223 148.2728729  19.3910656  60.5338364 149.7803345  15.5410967
  60.0173988 149.2279205  14.5353117  61.7929230 149.7933655  15.7346916
  62.1535683 150.2457886  16.5625496  62.7284737 149.4359436  14.6344814
  62.4602280 149.7856140  13.6375484  64.0234756 150.2364807  14.8663874
  63.8102417 151.3046417  14.8253784  64.5682755 149.9286346  16.1956635
  64.8447495 148.8761597  16.2587490  65.4651031 150.5268707  16.3566532
  63.8921471 150.2239380  16.9980049  65.1928406 149.9373322  13.8802223
  64.8766251 150.2348938  12.8804407  66.0873108 150.5066528  14.1329832
  65.3452148 148.8581238  13.8941574  62.8455849 147.9344635  14.6091127
  63.2586746 147.4551392  13.5895414  62.5200653 147.1856384  15.6808176
  62.0195427 147.5768127  16.4660282  62.6708183 145.7028046  15.5949659
  63.6169510 145.4867401  15.0987272  62.6043167 145.1360016  17.0169640
  63.2335281 145.6014404  17.7756252  61.5725365 145.3092194  17.3227940
  63.0049934 143.6718292  17.0809097  62.6662750 143.1884308  16.1645584
  64.0685883 143.6155548  17.3126354  62.3537598 143.0230713  18.2986107
  62.6603622 143.5267334  19.2153587  61.2898598 142.9483643  18.0735912
  62.9488449 141.6311035  18.4249611  63.7906265 141.5173492  18.9713764
  62.4951286 140.4984131  17.9566536  61.4275780 140.3196259  17.1820564
  60.9711800 141.1772766  16.9059391  61.0646820 139.4221954  16.8939247
  63.0665855 139.3528290  18.3235340  63.8467102 139.2785492  18.9607086
  62.8241653 138.4592438  17.9200134  61.5961189 145.1305847  14.6867390
  61.8466187 144.2288971  13.8648634  60.3964424 145.6795959  14.7954512
  60.2185936 146.2218170  15.6288013  59.2523689 145.2542419  14.0049458
  59.3482056 144.2204742  13.6729202  58.0074081 145.4536896  14.8839407
  58.2440414 146.4423981  15.2771082  57.0875206 145.4983063  14.3009205
  57.8159561 144.4677734  16.0692902  58.4421387 144.7645264  16.9106808
  56.7846565 144.5359344  16.4155178  58.1990547 143.0288696  15.7088518
  57.4673882 142.3857880  14.9882994  59.2208557 142.5252533  16.2695236
  59.0654907 146.0311584  12.6976290  58.1976967 145.6947021  11.8907385
  59.8721352 147.0811462  12.5201387  60.6064529 147.1554413  13.2096024
  59.8463364 148.0381012  11.3720560  60.3931694 148.9450989  11.6298409
  60.5044365 147.3742523  10.1174068  59.9779205 146.4680939   9.8178043
  60.4592476 148.0426941   9.2576218  61.8718758 146.8155518  10.3005772
  62.4440002 147.4358063  10.9905472  61.7944946 145.8103790  10.7149849
  62.7262192 146.7599182   9.0410089  63.5202141 146.0289459   9.1938152
  62.1052551 146.3209076   8.2601223  63.2852707 148.1456146   8.7340393
  62.7988968 148.9333649   9.1377716  64.4874649 148.3007965   8.2144442
  65.1810532 147.3686676   7.6699023  64.6548386 146.5203705   7.5163293
  65.9358444 147.5955048   7.0382848  65.1166458 149.4648132   8.2917871
  64.6632996 150.3041077   8.6237078  65.9479523 149.6267090   7.7414975
  58.4220810 148.5882416  11.2223663  57.8220024 148.5956268  10.1350117
  57.8540802 149.0481873  12.3238630  58.4492531 148.9382782  13.1324339
  56.7673759 150.0549927  12.4290915  56.0225220 149.8535004  11.6592274
  56.0942459 149.7838440  13.8240261  56.7819328 149.9244385  14.6579437
  55.2840958 150.5044250  13.9358835  55.5363388 148.3613434  13.9803009
  55.1371384 148.0760040  13.0069971  56.3820305 147.7167358  14.2198505
  54.4989243 148.1416626  15.0743103  54.5939331 148.7593536  16.1591377
  53.5856705 147.2745361  14.9531488  57.2845001 151.4995575  12.3319407
  58.2883873 151.8654633  12.9942570  56.5904160 152.2833405  11.4911623
  55.9090958 151.8347015  10.8956604  56.7843285 153.7792969  11.2915421
  57.0002289 154.2066040  12.2707682  57.9150620 153.9735565  10.2231522
  57.6033974 153.6406250   9.2331438  58.0652504 155.0470886  10.1087666
  58.8145294 153.5306854  10.6508369  55.4958458 154.3937378  10.7010117
  54.9945221 153.9289551   9.6542053  55.0401001 155.5236664  11.2600737
  55.5583000 155.8375549  12.0681887  53.9594116 156.1770630  10.6725082
  53.4106331 155.6049042   9.9244528  52.9659615 156.5432892  11.8175488
  53.5770073 157.1693878  12.4677134  52.0865593 157.0315857  11.3976393
  52.4845963 155.3018036  12.5377388  51.7554665 154.3059692  11.9883671
  51.4785538 153.4053955  12.9474974  50.9651794 152.4625702  12.8294420
  51.9436569 153.9119568  14.1202593  52.0549850 153.4117432  14.9906025
  52.5911789 155.1027222  13.8825665  53.0482368 155.7907410  14.5783577
  54.4245453 157.4889832   9.9593086  53.6012001 158.0962372   9.2751102
  55.6785164 157.9835205  10.0947924  56.3388481 157.5254059  10.7065048
  56.1541939 159.2773132   9.5042763  55.5583382 159.4251404   8.6036100
  55.9266663 160.3624420  10.5230408  56.5527458 160.1231689  11.3826189
  56.2029266 161.3344116  10.1143351  54.4850159 160.5328217  11.0222378
  53.6663437 161.4636230  10.3800087  54.0083466 161.9523468   9.4796820
  52.3918495 161.7607727  10.8535948  51.8366547 162.5234375  10.3277550
  51.8956146 161.1734467  12.0092077  50.8600121 161.2772369  12.2975798
  52.7178421 160.2750702  12.6781816  52.3808899 159.7980957  13.5866728
  53.9932747 159.9807739  12.1900158  54.6096458 159.2995453  12.7578402
  57.6213036 159.3241272   9.0079184  58.3949699 158.4162445   9.1653080
  57.9921722 160.5190735   8.4878845  57.2710304 161.2227020   8.4174032
  59.3406258 160.7027283   8.0021524  60.0508232 160.6111603   8.8239403
  59.4986000 159.9529724   7.2269144  59.6484451 162.0459595   7.3902092
  58.9043541 162.9489746   7.4052668  60.8180885 162.0393982   6.6974912
  61.3708496 161.1940918   6.6936412  61.3454742 163.1832123   5.8648987
  60.5268631 163.8724060   5.6575513  62.2611809 164.0763092   6.7243190
  62.8964043 163.3980408   7.2940092  63.1030121 165.0767975   5.9460254
  62.4516335 165.7130890   5.3469162  63.5639000 165.6773834   6.7302413
  63.8122101 164.5706329   5.2910929  61.4651260 164.8294678   7.6956825
  60.8674049 164.2004547   8.1063786  61.9676323 162.8094940   4.5359178
  62.5706215 161.7727051   4.4106083  61.7442970 163.6205750   3.4659703
  61.2096634 164.4764557   3.5073886  62.2786636 163.2882385   2.0747290
  62.2894745 162.2036285   1.9668618  61.3960876 163.8324890   0.9742393
  61.9366837 163.6756287   0.0408289  60.0331001 163.2882690   0.8486828
  59.3078232 163.8201904   1.4644235  59.7565384 163.2289581  -0.2039784
  60.0391121 162.2704315   1.2386475  61.1961555 165.2415314   1.2309349
  62.0055962 165.6585693   0.9268254  63.7010727 163.8316803   1.9544170
  63.9725761 165.0371857   1.7153200  64.6936111 162.9479675   1.8526402
  64.4133453 161.9928284   1.6816055  66.1087418 163.3061981   1.6064094
  66.4351883 164.1647186   2.1933343  67.0011215 162.1783142   2.1519580
  66.7541504 161.2399445   1.6554227  68.0440750 162.4360504   1.9678042
  66.8085098 162.0534058   3.2175088  66.3603058 163.5559082   0.0716679
  66.6749344 162.6189117  -0.6290665  66.4890976 164.8203888  -0.3533013
  66.4351959 165.6504822   0.2195254  67.0992584 165.0318146  -1.6921036
  66.7368927 164.2789154  -2.3920479  66.6872864 166.4338989  -2.1915064
  65.6044159 166.4524689  -2.3146396  66.9351196 167.1383820  -1.3975362
  67.2946243 166.8359680  -3.5774724  68.3370743 166.5279388  -3.6581521
  66.7563019 166.2638092  -4.3330765  67.2264938 168.3534851  -3.9643314
  66.4938507 169.1355743  -3.2624843  68.0016861 168.7229919  -4.8934903
  68.6351242 164.8423157  -1.6334177  69.4046326 165.4324493  -0.9168152
  69.1860962 164.0895844  -2.5506711  68.5577621 163.4791412  -3.0533326
  70.6534500 164.0071106  -2.8009670  71.1728897 163.9860992  -1.8429292
  71.0334396 162.7213135  -3.5569432  70.6028061 162.8119202  -4.5541654
  72.5807648 162.6883545  -3.7756283  73.0533676 162.8083801  -2.8007758
  72.9672775 161.7993469  -4.2740040  72.8775711 163.5701447  -4.3434944
  70.5550308 161.4093323  -2.8732421  71.2420731 161.1623383  -2.0638824
  69.5808792 161.6201782  -2.4320130  70.4467545 160.1439056  -3.7674110
  71.3926544 160.0037537  -4.2906127  70.2814789 159.2685852  -3.1392455
  69.5335312 160.3308411  -4.3323703  71.1297073 165.2251740  -3.5290446
  70.9087753 165.3728790  -4.7340918  71.9082870 166.0590363  -2.8223042
  72.0113907 165.9734039  -1.8212364  72.5955124 167.2251587  -3.4207098
  72.0448761 167.4804382  -4.3261027  72.5814514 168.4994507  -2.5495965
  72.7454987 169.3841858  -3.1647520  71.5579910 168.7870941  -2.3089969
  73.4393082 168.4051819  -1.3410007  74.7304611 168.9157867  -1.3438234
  75.1824799 169.1512451  -2.2959974  75.5922775 168.9370270  -0.1670097
  76.6215897 169.2639923  -0.1698095  75.0774994 168.5209656   1.0744219
  75.7723160 168.5217743   2.2535415  76.6102448 168.9840088   2.1773169
  73.7723236 167.9655304   1.0737494  73.3523178 167.6013641   1.9996933
  72.9692154 167.9569397  -0.0951269  71.9635010 167.5729065  -0.0087867
  74.0746155 166.9643707  -3.8805957  74.5264206 167.6992950  -4.7598648
  74.7838898 165.9344635  -3.3275540  74.2978439 165.3712921  -2.6443999
  76.0910416 165.5839081  -3.7385178  76.2313309 165.9786377  -4.7447996
  77.0860596 166.5211945  -3.0614810  76.9640579 166.4650879  -1.9797846
  78.0783005 166.2103424  -3.3884888  77.0428619 167.5808258  -3.3132980
  76.3904572 164.0790253  -3.7215402  75.8656998 163.3205261  -2.9255075
  77.2162933 163.6332855  -4.7244587  77.5583725 164.3486176  -5.3500628
  77.2676468 162.2102356  -5.0770235  77.1112900 161.6056366  -4.1836462
  76.1197128 161.9413910  -6.0734420  75.2239075 162.0526733  -5.4625001
  76.2070694 162.6568909  -6.8910828  76.0550613 160.5498352  -6.6790652
  75.1095428 159.6488037  -6.1110678  74.5296173 159.9197845  -5.2412066
  74.8966827 158.4632874  -6.8684893  74.0971909 157.8240662  -6.5240765
  75.6218719 158.1510010  -8.0551682  75.3305893 157.0603180  -8.7709379
  74.8523407 156.4173279  -8.2423038  76.6491318 158.9886627  -8.5045385
  77.2149124 158.7245941  -9.3857651  76.8690186 160.1882019  -7.8395715
  77.5531921 160.9100189  -8.2606316  78.6251984 161.7439880  -5.6526151
  79.3170166 162.5115662  -6.2999535  79.1137772 160.4785767  -5.4056215
  78.5291672 159.8681793  -4.8526917  80.3215714 159.8071747  -5.9694190
  80.4199142 160.1802826  -6.9888411  81.5400696 160.2040710  -5.0951667
  81.4081192 161.2594452  -4.8567152  81.5311432 159.6197205  -4.1750841
  82.8756561 159.9063110  -5.7833595  83.0653305 158.8495178  -5.9713116
  82.9053574 160.5584564  -6.6562376  84.0670547 160.1965942  -4.8075867
  83.8054047 161.0618591  -4.1985450  84.0623856 159.4037628  -4.0595803
  85.3759079 160.4359894  -5.3900185  85.4125671 161.0291901  -6.2066422
  86.5485840 160.1430359  -4.8794022  86.7050476 159.1758118  -3.9922242
  85.8991318 158.5929565  -3.8165081  87.6399918 158.9358063  -3.6949346
  87.6129532 160.6769562  -5.3527799  87.5648804 161.2837982  -6.1587133
  88.5254059 160.5841370  -4.9297900  80.2182007 158.2677155  -6.0557156
  79.7629395 157.6176605  -5.1338124  80.6627502 157.7050934  -7.1855388
  81.0932312 158.3454742  -7.8372340  80.7233810 156.2187805  -7.4126134
  80.2167206 155.6534271  -6.6304598  80.1919708 155.7746124  -8.8023376
  80.7308731 156.3475189  -9.5569754  80.4670563 154.7256622  -8.9123878
  78.6556168 155.8463898  -8.9882860  78.1588364 155.8304749  -8.0182047
  78.4827576 156.8509979  -9.3742628  78.1148300 154.7661591 -10.0030603
  77.5724182 153.7710571  -9.5098400  78.3856812 154.7696838 -11.2467108
  82.1678925 155.7455292  -7.3683944  83.0227280 156.4192810  -7.9543300
  82.4054489 154.5755463  -6.8146954  81.6889877 154.0249176  -6.3634844
  83.7401123 153.9531555  -6.8291965  84.2798691 154.3716583  -7.6786761
  84.5597076 154.4076691  -5.6090598  84.1201782 154.0070801  -4.6955805
  85.5221634 153.8960266  -5.6097994  84.7946701 155.9594269  -5.4421968
  85.3083801 156.4032440  -6.2949810  83.8567429 156.4887085  -5.2740841
  85.7158356 156.2024689  -4.2653036  86.8748703 155.7637634  -4.3245039
  85.2722931 156.8764343  -3.3100314  83.6601562 152.3808594  -6.9268498
  82.6536636 151.7519379  -6.6258998  84.8339615 151.8378906  -7.3477445
  85.6041107 152.4384918  -7.6051283  85.0322647 150.3998871  -7.4422059
  84.2210693 149.8724213  -6.9403710  84.7600403 150.0893250  -8.9413500
  83.8132248 150.5428619  -9.2345171  85.4939270 150.6097870  -9.5566797
  84.6783218 148.5664062  -9.1245213  85.4580536 148.0447845  -8.5695124
  83.7030029 148.2431030  -8.7607327  84.7898254 148.1468658 -10.6271019
  85.4156647 147.0886078 -10.9165354  84.2737808 148.9884491 -11.5414228
  84.2802200 148.7947235 -12.5326500  83.7470779 149.7742615 -11.1876116
  86.4315262 149.9687195  -6.8618464  87.5156555 150.1725769  -7.5175438
  86.3540115 149.2156219  -5.7586317  85.4506531 148.8594055  -5.4808717
  87.4872894 148.6657410  -5.0420995  88.2698059 148.3242188  -5.7196960
  88.1373444 149.7164612  -4.0873027  87.3509598 150.1885376  -3.4983759
  88.7851028 149.2548676  -3.3420177  89.1105347 150.7113342  -4.6912761
  89.8489380 150.1175385  -5.2300539  88.6304245 151.3969727  -5.3894787
  89.8417969 151.5983734  -3.6687732  89.3004608 152.3947144  -2.8124411
  91.1103439 151.6031647  -3.7954323  87.1230469 147.4244232  -4.2254181
  85.9687881 147.1885986  -3.9179454  88.0957108 146.5464020  -3.9287701
  89.0548859 146.7476501  -4.1728554  87.8843002 145.2190094  -3.2400608
  88.8537292 144.7229004  -3.2867324  87.5439758 145.3222504  -1.7221965
  86.5628586 145.7887268  -1.6331795  87.4602432 144.2942963  -1.3695033
  88.5120773 146.1325073  -0.8795293  89.6343460 145.5383301  -0.2821793
  89.7995453 144.5009918  -0.5332351  90.4771271 146.3087463   0.5272424
  91.2766876 145.8369751   1.0790819  90.1795959 147.7044067   0.7547874
  90.9912415 148.4556274   1.5655296  91.6487732 147.9981537   2.0946441
  89.0135498 148.2551880   0.1430506  88.7181549 149.2663422   0.3811902
  88.2342987 147.4904327  -0.7764958  87.3549652 147.9030151  -1.2486618
  86.9252701 144.3773651  -4.0201950  86.2646790 143.4651947  -3.5202851
  86.8661499 144.6362457  -5.3385568  87.5520477 145.3100281  -5.6478662
  86.1707611 143.7304993  -6.2316394  86.4946136 143.8789825  -7.2617717
  86.3584900 142.7091675  -5.9003501  84.6547394 143.9235229  -6.2763915
  83.9675217 142.9063873  -6.4072442  84.1436920 145.0966034  -5.8569636
  84.7987671 145.8275299  -5.6187887  82.7002792 145.4152527  -5.6745987
  82.1542511 144.6562653  -6.2348680  82.1417465 145.3288879  -4.2016277
  81.0720596 145.5290070  -4.2634373  82.2365952 143.9260559  -3.6072593
  83.1611633 143.4444580  -3.9255779  82.1614761 143.7758026  -2.5302825
  81.4241714 143.3454132  -4.0442142  82.8448639 146.2932892  -3.2351284
  83.7962875 145.8622131  -2.9235775  82.9720993 147.2413177  -3.7577593
  81.9851456 146.6859436  -2.0376060  81.8271332 145.8884430  -1.3115807
  82.4593430 147.5219879  -1.5235219  81.0160904 147.0656433  -2.3614244
  82.3653259 146.8536987  -6.1919351  83.2311172 147.7103882  -6.0388689
  81.1299286 147.0673676  -6.6231399  80.4659195 146.3084564  -6.6801710
  80.5758667 148.3932953  -6.8050466  81.3612747 148.9407959  -7.3260803
  79.4163208 148.3450775  -7.8036866  78.6506348 147.7341766  -7.3255377
  79.0138474 149.3546600  -7.8865151  79.8163757 147.7043915  -9.1576796
  80.6974487 148.2373505  -9.5151453  80.1627579 146.6862488  -8.9801531
  78.6914520 147.7162018 -10.1309357  77.6822586 148.3806763  -9.9361353
  78.9116211 147.2140350 -11.2251711  80.1781158 149.0959930  -5.5060568
  79.6362381 148.4283142  -4.5873747  80.3545227 150.4309387  -5.3988891
  80.8783875 150.9078827  -6.1187472  80.0653305 151.2152557  -4.1329670
  79.1102753 150.7596893  -3.8713627  81.1989288 150.9519653  -3.0706036
  81.2187271 149.8717804  -2.9259684  82.5716400 151.5241241  -3.4235060
  82.6578751 152.5090179  -3.8824608  83.2148132 151.4505920  -2.5465660
  83.0173721 150.8487549  -4.1537743  80.8514099 151.6394501  -1.9900877
  81.5209732 151.6093445  -1.3027838  79.7128448 152.6586914  -4.4241233
  80.1756973 153.2573395  -5.3620896  78.9259109 153.3014069  -3.5039070
  78.7065659 152.8367767  -2.6343682  78.5410690 154.7283630  -3.7128470
  79.3958054 155.1664429  -4.2282286  77.2991943 154.8058624  -4.6402678
  77.3394623 154.1906433  -5.5391450  76.0838013 154.2527924  -3.9572840
  75.7886124 154.8097687  -3.0680459  75.2851944 154.3443298  -4.6934571
  76.1902390 153.1779327  -3.8108618  76.9386673 156.2055511  -5.1751914
  77.7392044 156.3710938  -5.8961945  75.9569702 156.2347412  -5.6479664
  76.8711090 156.9269867  -4.3609095  78.3659821 155.5262299  -2.4449286
  77.6681595 155.1529694  -1.4772364  79.0132828 156.6956024  -2.4283371
  79.4797516 156.9913330  -3.2739391  79.0365448 157.7633362  -1.3605123
  78.6520081 157.3118134  -0.4459860  80.4571686 158.1597900  -1.1760738
  80.9030991 158.6168671  -2.0594368  80.5594177 158.8819885  -0.3660786
  81.2660217 156.9533081  -0.7771084  80.8589630 156.5958710   0.1687419
  81.2189713 156.1502075  -1.5125709  82.7426529 157.3161469  -0.4959128
  83.1848221 157.8884583  -1.3114197  82.7865829 158.0401001   0.3177547
  83.6973572 156.1625671  -0.1193987  83.6536407 155.8237000   0.9156668
  83.4004593 155.2637024  -0.6597762  85.1198807 156.4708252  -0.5010647
  85.4847336 157.3191833  -0.0920735  85.6247482 155.6712189  -0.1463285
  85.2135239 156.4719391  -1.5067146  78.1158829 158.9104309  -1.7012649
  78.2536926 159.4665222  -2.8196020  77.2152863 159.2320251  -0.7826983
  77.1388550 158.8145142   0.1337824  76.2053909 160.3024597  -1.0973579
  76.6280289 160.8908386  -1.9117805  74.8623428 159.7502441  -1.5976012
  74.4200363 160.6096344  -2.1015024  75.0578308 158.6389160  -2.6085558
  75.5091629 157.7392578  -2.1902094  74.1699066 158.3391418  -3.1651702
  75.7275238 159.0836639  -3.3446376  73.8122177 159.2357025  -0.5632880
  73.7474594 159.9379883   0.2677910  72.8548431 159.1506195  -1.0773966
  74.2669601 158.3291016  -0.1640266  75.9561691 161.2549896   0.0484535
  75.8975143 160.8665619   1.2202650  75.7646561 162.5561371  -0.2357801
  75.7400513 162.8196716  -1.2104807  75.3477936 163.5500793   0.7349039
  75.3757401 163.1088409   1.7312073  76.4029007 164.6499786   0.8287713
  76.3825455 164.9994812  -0.2034764  75.9874954 165.4631805   1.4239486
  77.7480469 164.2001801   1.4527078  77.6160507 164.0915375   2.5292187
  77.9048920 163.2166443   1.0098071  78.8917847 165.1479492   1.1156693
  79.7303467 164.8115692   1.7253940  79.1592560 165.0492859   0.0636108
  78.6598053 166.6285248   1.3107114  77.7854080 167.0051727   0.7799920
  78.5209885 166.8118134   2.3761845  79.8988647 167.4325409   0.9911734
  80.1679840 167.1106415   0.0724470  79.8343582 168.4316101   0.8577174
  80.6741486 167.3540955   1.6337337  73.9654388 164.1213226   0.3733993
  73.7881012 164.7008209  -0.6960779  72.9148865 163.8763275   1.1516869
  73.1775208 163.4714966   2.0389490  71.5704422 164.3849030   0.9791651
  71.4798965 164.9452667   0.0486310  70.6473389 163.1172333   0.9527037
  70.7769318 162.5250702   1.8585964  69.6314697 163.4813232   0.7992256
  70.9324188 162.4919586   0.1066321  71.1829147 165.3255310   2.0960293
  71.7628021 165.3701172   3.1874061  70.0784683 166.0478516   1.9297278
  69.5284271 165.9473114   1.0886282  69.5325317 166.9972687   2.9535246
  70.0070648 166.8694611   3.9264553  70.0954971 168.3535767   2.5410357
  71.1524658 168.2918396   2.2819970  69.2464218 168.8352051   1.4127806
  68.2099304 169.0047607   1.7044040  69.6355591 169.7773743   1.0267717
  69.2338562 168.1861420   0.5372041  69.9833374 169.3723145   3.7087069
  68.9023743 169.5099945   3.7344027  70.2474594 168.9074249   4.6585608
  70.8621445 170.6732330   3.5393775  70.4838028 171.3734436   2.7946200
  70.8423920 171.1602325   4.5143337  71.9066086 170.4426880   3.3295288
  68.0089645 166.8079224   2.9743950  67.4335327 166.2938995   2.0328436
  67.3500900 167.1220398   4.1289082  67.8968964 167.4548035   4.9101787
  65.8314362 166.8840485   4.1759901  65.6543350 165.9925232   3.5743957
  65.6640396 166.7347260   5.2426586  64.9273987 168.0439911   3.7128968
  65.0079803 169.1393280   4.2772350  64.1327515 167.8816223   2.6139598
  64.2857285 167.0046082   2.1369555  63.2464714 168.9229279   2.0686252
  63.6823120 169.9088593   2.2301278  63.0240631 168.6532593   0.5598688
  62.7871704 167.5922546   0.4808377  62.2333374 169.2436371   0.0969434
  64.2542648 168.8486176  -0.3177753  65.1250076 168.4308624   0.1875862
  64.1404419 168.3004913  -1.2530315  64.5958023 170.3307190  -0.6765022
  65.0283051 170.4097290  -1.6738968  63.6445656 170.8556976  -0.7640308
  65.5368500 170.9862366   0.3165026  65.1072845 171.3992767   1.1319610
  66.8259506 171.3025665   0.1909933  67.5342484 170.7066650  -0.7523389
  67.0480347 169.9617004  -1.2305776  68.5094376 170.8808746  -0.9492372
  67.3691254 172.1645355   1.0256113  66.8911209 172.6307373   1.7834181
  68.2438965 172.6133575   0.7944553  61.8842049 169.1125336   2.7482064
  61.4285202 170.1999664   3.1155648  61.2062340 167.9757538   2.9167552
  61.6064568 167.1339569   2.5277822  59.7316589 167.9007416   3.3516848
  59.4533081 168.8514099   3.8064952  58.8401489 167.6311646   2.1017778
  58.9939957 166.5865784   1.8310597  57.8531227 167.8784790   2.4925711
  58.9860535 168.5275879   0.9198236  58.4156799 169.4339600   1.1229157
  60.0322075 168.8249359   0.8474115  58.6731720 167.8139496  -0.4104739
  58.0981522 168.4635468  -1.2931019  59.0213852 166.5925903  -0.6252294
  58.7396164 166.1332703  -1.4794784  59.6678009 166.1606140   0.0194751
  59.5592575 166.8407593   4.4749608  60.1555634 165.7447052   4.3999753
  58.6557274 167.0959778   5.4757905  58.0904007 167.9325562   5.5008106
  58.1485672 165.9780884   6.2872229  58.9853630 165.3724976   6.6352715
  57.5314102 166.5834351   7.5408063  56.7434654 167.3209229   7.3880458
  57.0715332 165.7687531   8.1002007  58.5109520 167.2420197   8.5008812
  59.2480469 166.4767914   8.7442255  58.9644966 168.0746765   7.9632177
  57.8313408 167.6030273   9.8100014  57.3305588 166.8012848  10.3526945
  58.6294670 167.8904724  10.4944487  56.9860458 168.8726044   9.6756458
  57.3342819 169.5651550   9.0281839  55.8521957 169.0900421  10.3188848
  55.2854881 168.1777496  11.0597305  55.7354126 167.3036499  11.2912531
  54.3365211 168.3368683  11.3667259  55.3564224 170.3175201  10.2152319
  55.8556137 171.0269470   9.6978998  54.4903641 170.5389404  10.6853580
  57.0926018 165.1067505   5.4446826  56.4229851 165.6846008   4.5506463
  56.8054161 163.8502808   5.8141994  57.3832054 163.4079132   6.5146046
  55.6044884 163.1308746   5.3431392  54.8827324 163.8460236   4.9485154
  56.0021477 162.2756042   4.0960636  55.0876884 161.8388367   3.6946933
  56.3697510 162.9532471   3.3254919  57.0685387 161.2063751   4.3225894
  56.7281227 160.0155792   4.8909035  55.7123985 159.8369751   5.2115254
  57.6556778 158.9593964   4.9976015  57.3365555 158.0216522   5.4279690
  58.9682045 159.1784973   4.6761723  59.6509132 158.3537292   4.8178763
  59.3316078 160.3670044   4.0247808  60.3498039 160.4843750   3.6843317
  58.4149132 161.3949432   3.8762569  58.6883087 162.3139343   3.3791540
  54.8884964 162.2258301   6.4489989  55.5344429 161.7882996   7.4032927
  53.5337105 161.9470673   6.2544250  53.1003380 162.5330505   5.5552087
  52.7294197 160.8210907   6.7605162  53.0436554 160.5318909   7.7633715
  51.2212410 161.2953644   6.9139729  51.1774101 162.2050476   7.5128655
  50.8186340 161.5196381   5.9261913  50.2960396 160.3253937   7.6670270
  50.3112373 159.3784790   7.1273775  50.6973038 160.1392822   8.6632471
  48.8770943 160.8447113   7.8176570  48.5953140 161.3081818   6.8721952
  48.2568130 159.9640656   7.9844608  48.7148552 161.7581482   8.9548988
  49.1145363 161.2308655   9.8211136  49.3704453 162.6236572   8.8589373
  47.3125153 162.2246552   9.1633368  46.6903839 161.4307556   9.2160330
  47.1897583 162.8898010   9.9134159  46.9548988 162.7238312   8.3614397
  52.8699646 159.5818939   5.8798962  52.9084969 159.7060852   4.6627984
  52.8514977 158.3526154   6.4908409  52.8057976 158.4123688   7.4980350
  52.8173828 157.0013428   5.8911624  53.3302078 157.0917206   4.9335876
  53.5538483 155.9036865   6.6976242  53.1277046 155.8886871   7.7007632
  53.4816055 154.5286713   6.0712447  53.6699409 154.5628357   4.9981780
  54.1249008 153.8480988   6.6289992  52.4712677 154.1447601   6.2124500
  55.0543060 156.2325287   6.7278419  55.1904564 157.3014679   6.8919663
  55.5252228 155.6352997   7.5086527  55.4935760 156.0050812   5.7565479
  51.4319000 156.5679321   5.6316504  50.5812187 156.6267090   6.5190654
  51.2042847 155.9905701   4.4258575  51.9210815 156.0655975   3.7182715
  49.9541626 155.3366852   3.9470062  49.2453651 155.4694214   4.7643723
  49.4887047 156.0556335   2.6926928  50.1249657 155.7784119   1.8522047
  48.4989052 155.6213074   2.5521200  49.2442245 157.5936890   2.7017038
  50.1740875 158.0905151   2.9785113  48.7764168 158.2310791   1.4376457
  47.7512398 157.9413147   1.2071077  48.8580971 159.3170013   1.4844047
  49.4824181 158.0025635   0.6392385  48.1763229 157.9751740   3.7137802
  48.4534874 157.6269836   4.7087903  48.0374603 159.0558319   3.6822171
  47.2708359 157.5336914   3.2975101  50.0342484 153.8187561   3.7722182
  49.1095352 153.0700836   4.1645684  51.1334190 153.3995056   3.1452737
  51.7937393 154.0444641   2.7352638  51.4598198 151.9808960   2.9862926
  51.1496620 151.4614563   3.8929863  50.6461372 151.5060425   1.7512727
  49.5911026 151.6748962   1.9668959  50.9304848 152.1834412   0.9460486
  50.7574043 150.0364075   1.2232894  51.7697029 149.9767761   0.8235363
  50.6886559 149.3255005   2.0466914  49.7092857 149.6784973   0.1082255
  49.3718605 150.5122375  -0.7505549  49.3971939 148.4859314  -0.0643198
  52.9489937 151.7556915   2.7629321  53.5424385 152.6043396   2.1310000
  53.4726982 150.5601044   3.1978979  52.8871536 149.8736725   3.6518121
  54.8297768 150.2044678   2.7782941  55.3118057 150.9955444   2.2038746
  55.8275414 150.0615234   3.9746845  55.5811691 149.2770691   4.6902566
  57.2263985 149.7737274   3.4510701  57.6221657 150.6486816   2.9353952
  57.9157791 149.6271515   4.2825570  57.2464104 148.9687805   2.7163985
  55.9341354 151.3774719   4.7406597  56.3435402 152.1206207   4.0563908
  54.9029884 151.6050568   5.0109363  56.8036842 151.3545074   6.0397983
  57.8577957 151.3632355   5.7625356  56.5706291 152.2386322   6.6331820
  56.6209068 150.5859985   6.7908568  54.7456436 148.9573669   1.9188433
  54.1461601 147.9699097   2.3853993  55.4146042 148.8625183   0.7464015
  55.7857208 149.7025909   0.3260970  55.5580826 147.6457977  -0.0358068
  55.0350380 146.7837524   0.3781991  54.8778725 147.8353424  -1.4452378
  53.7968903 147.8723450  -1.3102719  55.1872406 148.8104858  -1.8213865
  55.1414909 146.7071381  -2.4588075  56.1860580 146.6920624  -2.7698531
  54.9036942 145.7099609  -2.0884187  54.2879486 146.9590149  -3.7074420
  53.2320709 146.9263916  -3.4388123  54.6453362 147.9174500  -4.0839972
  54.5983086 145.9103394  -4.7910380  54.9687042 145.0289001  -4.4654651
  54.5056992 146.0480957  -6.0734758  54.3598137 147.2195587  -6.5316243
  54.2278442 148.0046692  -5.9100966  54.1980820 147.2896881  -7.5261216
  54.7009850 144.9935303  -6.8472137  54.9720726 144.1105957  -6.4384866
  54.6692238 145.1910095  -7.8372097  57.0681305 147.2404633  -0.0058280
  57.9058952 148.1647797   0.0216095  57.4201202 145.9619446  -0.0638715
  56.6891708 145.2879791  -0.2416095  58.8056335 145.4319763  -0.2211554
  59.4962692 146.2751923  -0.2099477  59.1329193 144.4772797   0.8972554
  58.4004402 143.6749573   0.9858767  60.5565529 143.8127289   0.6033714
  61.2994995 144.6082916   0.5466219  60.7245026 143.1647491   1.4636078
  60.4348488 143.2596741  -0.3279783  59.1852417 145.2500458   2.1328008
  58.2912865 145.4510193   2.4192514  58.8846931 144.7530975  -1.6025949
  58.0769272 143.9014130  -2.0350051  59.8625946 145.1759796  -2.4113109
  60.4862633 145.8684998  -2.0220222  60.2480965 144.5286560  -3.6600635
  59.4649353 144.0486450  -4.2468777  60.8279610 145.5967407  -4.6391048
  61.5559196 146.2310944  -4.1333652  61.3779221 145.0420227  -5.3993244
  59.6740265 146.3804779  -5.3993516  59.0335541 145.6620941  -5.9110422
  59.1336288 146.9697571  -4.6585374  60.1166534 147.3898315  -6.4009581
  60.6271133 148.4532776  -6.0741200  59.7416878 147.3325043  -7.6526093
  60.0560112 148.1369476  -8.1762285  59.1925888 146.5946198  -8.0698814
  61.2281113 143.3282776  -3.4325380  62.0596657 143.4007721  -2.5201385
  61.1877670 142.3344574  -4.3199339  60.5636673 142.4870148  -5.0992475
  61.8764572 141.0356140  -4.3047986  61.6572952 140.6156006  -3.3231421
  61.3203583 140.2038422  -5.3799734  61.5117989 140.5661621  -6.3900156
  61.8055115 139.2324524  -5.2844839  59.9823151 139.8944702  -5.0549197
  59.5980263 139.4225006  -5.7973242  63.3736649 141.2613983  -4.4844890
  64.1680832 140.4795227  -4.0155888  63.8897629 142.3248596  -5.0083203
  63.3126526 143.0202789  -5.4593568  65.3419724 142.6884003  -4.8464317
  65.9202728 141.7856293  -5.0430512  65.7581253 143.6480865  -5.9155855
  66.8477554 143.6404724  -5.9429603  65.4282227 143.2779694  -6.8862996
  65.3433914 145.0990143  -5.7946424  64.5987091 145.4653931  -4.8339562
  65.7984314 145.9624176  -6.6307354  65.7336044 143.2472382  -3.4135742
  66.9122009 143.5269928  -3.1168571  64.8029861 143.2650757  -2.4591305
  63.8673248 143.0190735  -2.7491636  65.0119553 143.5584564  -1.0356309
  64.1352463 143.1473389  -0.5351517  65.9641724 143.1858368  -0.6580922
  64.9178467 145.0771179  -0.6279323  64.9093552 145.2511444   0.5678266
  64.7634430 146.0735016  -1.5569397  64.6961212 145.7587128  -2.5142694
  64.4582672 147.4852142  -1.1974521  64.9965439 147.5704346  -0.2534725
  65.0566254 148.5376892  -2.1985145  65.0248337 149.4989929  -1.6856993
  66.5021286 148.2748260  -2.5107770  66.5547333 147.5035706  -3.2792096
  67.1029205 149.1064301  -2.8790002  66.9856262 147.8181000  -1.6472191
  64.2298584 148.7125702  -3.5933297  64.8571472 148.7524872  -4.4838419
  63.6524658 147.7886353  -3.6259031  63.2746696 149.8832855  -3.5875375
  63.7971382 150.8338165  -3.4797621  62.6963234 149.8432617  -4.5105853
  62.6446304 149.7503204  -2.7080665  62.8943367 147.7806854  -0.9534485
  62.0122261 147.1484222  -1.5810800  62.5455284 148.7263641  -0.0680494
  63.3245735 149.1894379   0.3777835  61.2148323 149.0924988   0.2868178
  60.5168648 148.3119354  -0.0159305  61.1413269 149.3503723   1.8364056
  61.8329430 150.1566162   2.0807760  60.1436310 149.7123566   2.0847268
  61.5186958 148.0134735   2.5494835  61.1391602 147.1650391   1.9800928
  62.6023102 147.8956757   2.5513747  61.0173988 147.9714813   4.0215263
  61.2615738 148.8717346   4.8454866  60.2162971 146.9242401   4.2852497
  59.8498840 146.7330475   5.2068219  59.9325676 146.2829742   3.5583644
  60.7448349 150.3159180  -0.4828608  61.5700111 151.1593933  -0.8431516
  59.4394913 150.4267273  -0.6775791  58.8987961 149.6008606  -0.4638180
  58.7970505 151.5241547  -1.3692831  59.4545517 152.3784332  -1.5305220
  58.3594131 151.0368805  -2.7821920  57.6965790 150.1724854  -2.7426276
  57.6830902 151.8173523  -3.1308382  59.5424881 150.7423096  -3.7484179
  60.4570694 150.5586395  -3.1845875  59.4162331 149.8279266  -4.3281317
  59.8293152 151.8661194  -4.7701855  59.4928398 153.0118561  -4.6317687
  60.3954239 151.4853516  -5.8843865  60.6216278 152.2005768  -6.5606937
  60.6747932 150.5150146  -5.9070296  57.5907135 151.9417114  -0.4635064
  56.9364777 151.0996094   0.1650451  57.2072105 153.2562256  -0.4772120
  57.7078857 153.9594727  -1.0015085  56.1544380 153.7215118   0.4936492
  55.5393639 152.9106598   0.8839125  56.8596153 154.3875885   1.7067471
  57.2577667 155.3252869   1.3190464  56.2148094 154.6157379   2.5554335
  57.6405334 153.7339478   2.0953534  55.1920815 154.7464600  -0.2491347
  55.6415215 155.8442841  -0.6053984  53.8585510 154.5321503  -0.1375710
  53.5151558 153.7361145   0.3806214  52.9056931 155.6155548  -0.5169557
  53.2816353 156.0855560  -1.4257284  51.5323181 155.1225433  -0.9200060
  51.2868195 154.3029175  -0.2447122  50.8200302 155.9224091  -0.7176129
  51.5179825 154.7333069  -2.4043419  51.8692322 155.5815887  -2.9918439
  52.1341438 153.8526611  -2.5857019  50.0817871 154.4699707  -2.9219131
  49.5792618 153.7505035  -2.2754323  49.5089684 155.3951569  -2.8588023
  50.0979347 154.1184845  -4.4205852  49.2454681 154.5718842  -4.9263873
  50.9868126 154.6005096  -4.8275852  49.9725304 152.6533051  -4.7858095
  49.0023422 152.4451447  -4.5973725  50.0147514 152.4960785  -5.7826056
  50.5832024 152.0314026  -4.2755017  52.7812042 156.6089783   0.6651378
  52.6956444 156.1749725   1.8460170  52.8792572 157.9029236   0.3782321
  52.9563446 158.1991425  -0.5842710  52.9985161 158.8766022   1.4716661
  52.5915909 158.3833618   2.3543994  54.4443817 159.3099823   1.6700120
  54.4181709 160.0583954   2.4620306  55.3268967 158.1870270   2.2336407
  55.3405876 157.3698273   1.5124577  56.3460007 158.5543518   2.3544850
  54.9490013 157.8109741   3.1843677  55.0672264 159.9391327   0.4068421
  54.4933205 160.8020782   0.0691065  56.0756378 160.2931824   0.6209924
  55.3026848 159.2386780  -0.3944155  52.0907364 160.0805969   1.0452738
  51.4861794 160.2095795  -0.0358812  52.0577888 161.0433807   1.9385890
  52.4628487 160.7632446   2.8203804  51.5537262 162.4285583   1.7368085
  51.4157867 162.6125488   0.6713417  50.0868530 162.4347839   2.2925651
  49.5603371 161.5666199   1.8960793  50.0938072 162.4146881   3.3823578
  49.3755035 163.7672577   1.8956665  49.9138870 164.6121063   2.3251681
  49.3658791 163.8647766   0.8100814  48.0041351 163.8584900   2.4447670
  47.1481819 162.9709625   2.2861686  47.5928841 164.8785858   3.1502681
  46.6213837 164.8229980   3.4208243  48.1747971 165.6855621   3.3242407
  52.4683609 163.4457550   2.4726207  52.7268372 163.3090363   3.6556368
  52.9698486 164.4292450   1.7227449  52.6297264 164.4875641   0.7735273
  53.8210106 165.4916229   2.1965320  54.6924667 165.1105957   2.7289612
  54.4332733 166.3384857   1.0701336  53.6168900 166.4597626   0.3581582
  54.7708931 167.8394318   1.3985060  55.6591339 167.8870392   2.0284731
  54.8874588 168.4519501   0.5044531  53.9598503 168.3840637   1.8819174
  55.6715126 165.6708832   0.4173311  56.0786629 166.2660675  -0.4000331
  56.3899956 165.6257477   1.2357717  55.5428619 164.2590942  -0.0767481
  54.8619156 164.1308289  -0.9181498  56.4984093 163.8721008  -0.4306718
  55.3007889 163.5854950   0.7452995  53.0648918 166.3743591   3.1391814
  52.0116196 166.9595032   2.7735715  53.5866318 166.4966736   4.3780508
  54.4679565 166.0504456   4.5884013  53.1402473 167.4531708   5.3629851
  52.0546112 167.5400085   5.4071336  53.5990677 166.9914703   6.7672753
  54.6796379 166.9087524   6.6505418  53.5209389 167.8703613   7.4072418
  53.0004539 165.7256622   7.3327756  53.1622391 164.8910980   6.6505499
  53.5664864 165.2655792   8.7092476  53.1663246 165.8753662   9.5192661
  53.3346634 164.2103729   8.8538513  54.6534462 165.3465424   8.7015600
  51.4374390 165.7801666   7.6145592  50.9312782 165.8072510   6.6495867
  51.0914268 164.9238586   8.1934452  51.2462387 166.7072601   8.1549692
  53.6766357 168.8724365   5.0983644  54.8171692 169.0582275   4.7520204
  52.8500099 169.9037476   5.1145530  51.4024849 169.7716217   5.3431301
  51.1937103 169.3170776   6.3115845  50.9512901 169.2919922   4.4745231
  50.9660454 171.2303772   5.4586954  51.0409737 171.6665344   6.4548135
  49.9690781 171.4204712   5.0611663  51.9844017 171.9736023   4.6699047
  51.8925629 173.0189209   4.9648008  51.8447227 171.8712616   3.5937426
  53.3135605 171.2719269   4.9865322  54.0538635 171.3672485   4.1921992
  53.7125206 171.8018951   6.3720865  53.3794899 171.2077942   7.3876433
  54.2669716 173.0225372   6.3882217  54.7267990 173.3828430   5.5643024
  54.2919159 173.9299774   7.5120368  54.3777084 173.2657623   8.3720131
  55.5320473 174.8581238   7.3367395  55.6350822 175.3093567   6.3498878
  55.4944115 175.6418304   8.0933790  56.8531647 174.0349274   7.4990611
  56.8048363 173.1579742   6.8535428  57.6587486 174.7082825   7.2062392
  57.0494041 173.6293793   8.9678669  57.6728096 174.4184265   9.7080126
  56.6811180 172.4668427   9.3594007  53.0056381 174.7857208   7.6279702
  52.5359459 175.3962555   6.6640186  52.4359322 174.8329620   8.8161726
  52.7122879 174.2548218   9.5968637  51.3534470 175.8065796   9.1482449
  50.6948738 175.8721313   8.2821636  50.3704834 175.1946564  10.1500454
  50.8704300 175.1090088  11.1148357  49.5878601 175.9415283  10.2833920
  49.7470665 173.9079742   9.6677074  49.3542633 174.0777130   8.6652117
  50.5406799 173.1613922   9.6378937  48.7323418 173.3170471  10.6701584
  48.5553207 172.2791901  10.3879709  49.0251160 173.3697205  11.7187805
  47.4834290 174.0795746  10.5592947  47.3486862 174.5378876   9.6694145
  46.4001312 173.9806824  11.3709736  46.3172340 173.3671875  12.5016346
  47.1638718 172.9619904  12.8746099  45.4462471 173.3252716  13.0112791
  45.2842941 174.5899811  11.0391512  45.3756485 175.1049347  10.1751060
  44.4210243 174.4116821  11.5321770  51.7732773 177.2131500   9.4946671
  51.8557968 177.5956879  10.6700506  51.9246674 178.0225830   8.4697075
  51.9351997 177.6221008   7.5425615  52.3861122 179.3916016   8.6045980
  53.2678299 179.3749695   9.2452183  52.9145927 179.9768982   7.2638564
  52.0927887 180.1314545   6.5646749  53.6201859 181.3383179   7.4987450
  54.4345818 181.1895447   8.2077856  54.0196533 181.6932068   6.5487046
  52.9722443 182.0324707   8.0339203  53.9568939 179.0240021   6.5783739
  53.4718781 178.0894928   6.2963481  54.2630463 179.5671844   5.6843181
  54.8361168 178.8333435   7.1937785  51.2638550 180.2025909   9.2520666
  50.2161026 180.4220734   8.6547918  51.4186974 180.6158142  10.5425282
  52.2582932 180.3440552  11.0337849  50.4899483 181.4954224  11.2054367
  49.5545273 181.4198456  10.6510239  50.2188911 181.0416260  12.6083918
  51.0270767 181.2750854  13.3015232  49.3832970 181.6118317  13.0142765
  49.9044380 179.5821381  12.8230448  50.7747574 178.9544830  12.6314859
  49.4765129 179.3604736  14.2686119  48.4663658 179.7014465  14.4954195
  49.5867157 178.2947693  14.4691267  50.1247215 179.9041595  14.9558887
  48.7118721 179.1112213  11.9892654  49.0223618 179.0361328  10.9471254
  48.4745979 178.1250763  12.3884401  47.9518700 179.8762512  12.1480207
  51.0206490 182.9649658  11.0259361  52.1126709 183.2654419  11.4866638
  50.1578217 183.8547211  10.4545555  49.0000191 183.4841919   9.6872377
  48.3450623 182.8644104  10.2996168  49.2800255 183.0792999   8.7147360
  48.2692413 184.7893829   9.5112457  47.4845314 184.9039917  10.2590389
  47.8324242 184.8755035   8.5163221  49.3800163 185.8407745   9.5754986
  48.9752083 186.7998962   9.8984976  49.8417320 186.0228271   8.6050453
  50.4310226 185.2337494  10.5094643  51.4345741 185.4775543  10.1608410
  50.2406845 185.7912445  11.9341774  49.6569786 185.0824585  12.8093042
  50.7251472 187.0316010  12.1752253  50.9569397 187.6371765  11.4008627
  50.7539635 187.7383575  13.4734163  51.5886230 187.3774414  14.0743961
  51.0290413 189.2520752  13.1679802  52.0619431 189.4748840  12.9004478
  50.4851875 189.6674194  12.3195610  50.6843147 190.0766754  14.2769241
  51.0493050 190.9580231  14.1691847  49.4605026 187.4925385  14.3372822
  48.3410263 187.6899261  13.9125519  49.6290054 187.2402039  15.6598253
  50.5440979 187.3765564  16.0649376  48.4712868 187.1839294  16.5324039
  47.8924942 186.2814484  16.3357792  48.8201218 187.0650787  18.0100040
  47.9093552 186.8932037  18.5836430  49.7081909 185.8419647  18.3858624
  50.7501717 185.9556274  18.0867596  49.7291069 185.6322021  19.4552841
  49.3444405 184.9688568  17.8441219  49.6352158 188.1809998  18.4410458
  49.5385246 188.3448334  19.3820076  47.5256538 188.4177551  16.5321331
  46.3493652 188.2214050  16.6980534  48.0892487 189.5620575  16.2447128
  49.0627861 189.5476227  15.9761696  47.4155540 190.8259277  16.2966042
  46.5451698 190.7982483  16.9521770  48.3672371 191.9943848  16.8452301
  49.1998405 192.0692596  16.1457558  47.7851753 192.9093781  16.7353420
  48.9722214 191.7920685  18.2078667  49.2748718 190.7481079  18.2893143
  49.8048096 192.4873352  18.3151436  47.8738937 192.1208496  19.6524296
  47.1148338 190.5807495  19.9859924  47.8243675 189.8170776  20.3045292
  46.3887863 190.7782135  20.7746353  46.5048332 190.2612457  19.1410599
  46.8907623 191.1968079  14.9241762  45.8653755 191.8503418  14.8922071
  47.3196526 190.6122284  13.7607527  48.0856171 189.9580688  13.8347492
  46.8148384 190.9915466  12.3788443  47.1614990 192.0157166  12.2409935
  47.5626373 190.2202606  11.2697020  47.3109627 190.7526245  10.3524513
  48.6306229 190.3584442  11.4382544  47.1648483 188.8296661  11.0980644
  46.3893547 188.7894897  10.5336246  45.2621956 191.0325470  12.2837420
  44.7220383 191.8809357  11.5760756  44.5566177 190.1483612  12.9770098
  45.0641632 189.4713593  13.5285349  43.0899925 189.9712372  12.9248514
  42.8000832 190.2799072  11.9204721  42.6818886 188.5492249  13.1891184
  43.0799141 188.3310699  14.1801176  41.6161690 188.3226471  13.1574230
  43.1216393 187.9148712  12.4194956  42.3435516 190.9426727  13.8357592
  41.2044449 191.3061371  13.6236057  42.9411621 191.3763580  14.9758148
  43.7952690 190.9189911  15.2611475  42.4359245 192.4227295  15.9139128
  41.3563843 192.3282928  15.7965326  42.8186798 192.0415955  17.3597813
  42.8096886 190.9516602  17.3668270  44.1955910 192.5041199  17.8653450
  44.2067986 193.5934906  17.8304272  44.4014549 192.1812897  18.8858852
  44.9833641 192.1558075  17.1973667  41.6343575 192.5160217  18.2220192
  40.6628761 192.1494141  17.8904819  41.6657600 192.0814972  19.2211723
  41.7840958 193.5956879  18.2253857  42.6889801 193.8713074  15.4761381
  41.8335838 194.7722931  15.7046537  43.8461609 194.1916504  14.8144741
  44.4606247 193.4009094  14.6831284  44.3544769 195.5468445  14.7863007
  43.8879433 196.1403198  15.5725822  45.8813782 195.5696411  15.0925159
  46.1291046 196.6091614  15.3072367  46.1027756 194.9373627  15.9523563
  46.8257332 195.1404877  13.8964891  46.6254082 194.0935364  13.6687365
  46.5279694 195.5871887  12.9478617  48.3284225 195.4791870  14.1570148
  48.6771889 195.8840332  15.2349701  49.1950645 195.3059845  13.1826000
  50.1549759 195.6199493  13.1925640  48.9042473 194.8942871  12.3073664
  43.9630432 196.4486237  13.6270943  44.7115021 197.3486023  13.1596718
  42.6972237 196.1886139  13.1612110  42.1174088 195.4473724  13.5279341
  42.0822411 196.9603577  12.0667419  42.8820572 197.1344910  11.3469696
  40.9699135 196.0861969  11.4206648  40.3264351 195.5941315  12.1499920
  40.2995415 196.7581940  10.8848305  41.6256790 195.1575012  10.3763103
  42.2470932 195.6958771   9.6607027  42.4060135 194.0163879  10.9429960
  41.9004974 193.5641632  11.7962551  42.4239578 193.1823120  10.2414961
  43.4357948 194.2572327  11.2069111  40.4712257 194.4182281   9.6808262
  39.6734657 195.0881805   9.3601236  40.8484764 193.9384766   8.7777071
  40.0985756 193.6378784  10.3443699  41.7406197 198.3450775  12.5132389
  40.5381966 198.6288147  12.6764460  42.7281418 199.2021484  12.7246599
  43.6205864 198.8199615  12.4461346  42.7067833 200.6392975  13.0349035
  41.8975868 201.1419830  12.5051775  42.3902092 200.8426361  14.5489130
  42.2114449 201.8970032  14.7597370  41.4516754 200.3062286  14.6886244
  43.5070915 200.1388550  15.4254847  43.9995041 199.3581238  14.8457527
  44.3250694 200.8129730  15.6796055  43.0446243 199.4943848  16.7475853
  42.8775482 198.2966614  16.8521347  42.8441429 200.2813568  17.7683601
  42.3718758 199.9463196  18.5958939  43.0290031 201.2724762  17.7082882
  44.0710869 201.2334137  12.5430603  45.0317879 200.4925995  12.4370327
  44.1222839 202.5704956  12.3769732  43.2693901 203.0932922  12.5160780
  45.2836380 203.3169708  11.8063793  45.5250740 202.9684753  10.8022137
  44.8316307 204.7502594  11.5812531  45.7122765 205.2796478  11.2174969
  44.0051537 204.7803192  10.8712311  44.3146858 205.2694855  12.8694477
  43.9886856 206.1495361  12.6674070  46.5662956 203.2511902  12.7121000
  47.7010803 203.5707245  12.2754688  46.4970551 202.7929535  13.9761248
  45.5930557 202.6058350  14.3858366  47.7001076 202.4332581  14.8445864
  48.3732376 203.2904510  14.8593712  47.2654114 202.1982269  16.3338928
  46.3143463 201.6675262  16.3779354  47.9619484 201.5012817  16.7999496
  47.2522507 203.4916840  17.1581249  48.1658974 204.0683441  17.0138893
  46.0209694 204.4474792  16.9495487  45.1444740 203.8179169  17.1029243
  46.0057411 205.2714996  17.6628971  46.0846214 204.8322144  15.9316950
  47.3125763 203.1062317  18.5853481  48.1030045 202.3969116  18.8306675
  47.3844566 203.9577942  19.2619572  46.4404259 202.5368347  18.9066639
  48.5203972 201.1797028  14.2906027  49.6568985 201.0090637  14.6946735
  48.0251961 200.3263245  13.4384546  47.1439743 200.4744568  12.9677067
  48.8119659 199.1351013  12.9917698  49.1299324 198.6885529  13.9338894
  47.8980827 198.2364502  12.1997957  48.4039459 197.3244171  11.8829412
  47.0904160 197.9575348  12.8765516  47.4254303 198.8934631  11.0255566
  46.4674797 198.9094849  10.9649868  50.1350136 199.5035095  12.1851606
  51.0303192 198.6755676  12.0063610  50.3738708 200.7790222  11.6864262
  49.6918259 201.5153351  11.7994413  51.6592064 201.1799469  11.0233250
  52.0117607 200.4340057  10.3110342  51.3872948 202.4236755  10.1323833
  52.2762489 202.6906586   9.5609055  50.6119919 202.1158752   9.4307690
  50.8849525 203.5983887  10.8882675  49.9210510 203.4214020  11.3654137
  51.6941299 203.9506836  11.5279655  50.6225662 204.7723389   9.9729052
  51.4888115 205.0138245   9.3569460  49.8442879 204.3493958   9.3376913
  50.0289001 205.8793182  10.7371025  49.2387466 205.6486359  11.3223763
  50.2304611 207.1511078  10.5517006  51.1852608 207.6118622   9.7669935
  51.5232849 207.0603790   8.9912930  51.3198318 208.6109619   9.7055550
  49.4945450 208.0253754  11.2075729  48.7266769 207.6298828  11.7310877
  49.6388969 209.0155029  11.0700712  52.9478569 201.5297699  11.9341984
  53.9584122 201.9730835  11.4064856  52.8827248 201.3851624  13.2569256
  52.0881424 200.8690643  13.6067753  53.9898262 201.5750275  14.1917925
  54.4010201 202.5565948  13.9560995  53.3902855 201.7211914  15.5489578
  53.0171852 200.7372589  15.8331757  54.2387695 201.8874969  16.2126732
  52.2756081 202.7864227  15.7582645  52.6114006 203.7999878  15.5391684
  51.4446030 202.6669464  15.0630980  51.7095337 202.9063873  17.2419720
  50.7699394 203.4586945  17.2269478  51.4022369 201.9136047  17.5706978
  52.6344223 203.5226135  18.2583771  53.1695938 204.2861481  17.8701553
  52.5512466 203.3501434  19.5610771  51.7542725 202.4786224  20.1656990
  51.1145287 201.9158325  19.6234074  51.6525536 202.4373169  21.1697140
  53.2728043 204.0656281  20.3977852  53.8538551 204.7924042  20.0050259
  53.1455116 203.9414368  21.3920097  55.1466980 200.5069427  14.1602364
  55.3071442 199.7128906  15.0678997  55.8523636 200.6121521  13.0554342
  55.7109947 201.4150848  12.4592800  56.7209244 199.5526581  12.4562778
  56.2002640 198.6048279  12.5928097  56.7032356 199.8462830  10.9409571
  55.6664200 200.0752563  10.6946220  57.3129578 200.7209320  10.7144184
  57.1123848 198.7509766   9.9930515  58.4451294 198.5356903   9.5459805
  58.3706360 197.4514465   8.7436476  59.1904869 196.9497375   8.2511730
  57.1404610 196.9742126   8.6432991  56.9238663 196.1385345   8.1190519
  56.3311958 197.7427979   9.4680099  55.2619705 197.5950165   9.5043678
  58.1129150 199.3255005  13.0397167  58.7130432 200.1260376  13.7810516
  58.7307091 198.1896210  12.6252928  58.3714256 197.7299805  11.8008280
  59.9334946 197.5350800  13.2725344  59.8696289 197.7069244  14.3470125
  59.8686180 196.0278473  13.0646019  60.6974449 195.4867859  13.5211077
  58.5963593 195.4358215  13.6985655  57.6735153 195.8598938  13.3028040
  58.5697937 194.3933563  13.3812771  58.6641083 195.4902954  14.7850924
  59.9496613 195.6296997  11.5953388  58.9413719 195.6365814  11.1813221
  60.5874214 196.3051758  11.0251770  60.5111084 194.2265930  11.5045185
  59.9486427 193.4895935  12.0777254  60.4995918 193.9840546  10.4419050
  61.5131912 194.2161713  11.9332590  61.3262978 198.1721649  12.9202509
  61.4051247 198.7867432  11.8592787  62.3732414 198.1458893  13.7293901
  63.1145058 198.7431488  13.3918819  63.0228996 197.1060333  14.6041746
  63.9692612 197.5479431  14.9159718  62.2390289 196.9202423  15.8968678
  61.3351212 196.3206024  15.7896757  62.9280663 196.2600250  16.4235878
  61.9877510 198.1435394  16.7718048  63.0411644 199.0216980  17.1569996
  64.0894089 198.8531647  16.9590473  62.7691689 200.1340790  17.9991589
  63.5317154 200.7810364  18.4070568  61.4714890 200.3785400  18.4693108
  61.2969170 201.0799103  19.2718067  60.3873177 199.6091461  18.0062675
  59.4082489 199.8019714  18.4193478  60.6566963 198.4706573  17.2204456
  59.8969040 197.7670593  16.9137669  63.4796486 195.7745972  13.8442793
  63.8282967 195.9482727  12.6551352  63.5552559 194.5269623  14.4238777
  62.5322647 193.8621521  15.1732388  61.5401306 194.2816010  15.0063992
  62.7020416 193.8804169  16.2497807  62.6156540 192.4281464  14.8031778
  61.9982491 192.2677612  13.9193306  62.1217461 191.8026276  15.5467482
  64.1072617 192.2102509  14.5651579  64.1776047 191.5138855  13.7295523
  64.6662292 191.7758789  15.3940001  64.6710968 193.5726776  14.2256298
  65.3727036 193.8103790  15.0252171  65.4519653 193.5792236  12.8520193
  64.8222504 193.3035583  11.8026247  66.7707138 193.7529297  12.7641764
  67.0931015 193.6557312  11.8119564  67.7260284 194.2184448  13.8459673
  68.6314697 194.5498199  13.3375731  68.0893402 193.0539551  14.7800932
  68.8465347 193.4016876  15.4828196  67.2121277 192.7268372  15.3383064
  68.5707245 191.8868408  14.1553488  69.5058136 191.9663239  13.9531183
  67.3373642 195.4599304  14.6522074  66.1901398 195.8874664  14.6712713
  68.3359299 196.1117096  15.3109369  69.2123566 195.6157684  15.3884354
  68.1318054 196.9831543  16.4520397  67.1964722 197.5124054  16.2699318
  67.8865433 196.0056000  17.6164989  67.3492737 195.1069336  17.3134651
  68.8798370 195.7250824  17.9668903  67.0920944 196.5467377  18.6925163
  66.1900406 196.6855621  18.3948135  69.0772858 198.1278381  16.7787113
  68.7408218 198.9374237  17.6597061  70.2014465 198.4719086  16.0978088
  70.7406235 199.2187805  16.5119991  70.8624039 197.8573914  14.9144583
  71.7676468 198.4631805  14.8738041  70.1568756 198.2475433  13.5957899
  69.1854706 197.7590942  13.5190420  69.8168030 199.2825317  13.5602055
  70.9225006 197.8716278  12.2632265  71.0053711 196.7983398  12.0920210
  70.3034134 198.3618011  11.5118551  72.3692474 198.4125824  12.1240473
  73.0415344 198.0264435  12.8902340  72.6896820 198.0545959  11.1456451
  72.3761520 199.9200439  12.1126776  71.4389191 200.3353729  12.4830742
  73.1514282 200.2585754  12.8000212  72.7431030 200.4450836  10.7241850
  71.9705353 200.3006744  10.0898447  73.0626755 201.4025574  10.6895800
  73.5963364 200.0282440  10.3801756  71.4057159 196.4093018  15.1184034
  70.9230423 195.4796753  14.4779739  72.4010696 196.2234802  16.0146923
  71.9082184 196.0820618  17.3831520  70.8740234 195.7385864  17.3595600
  72.0713654 197.0454407  17.8662643  72.7634735 194.9596252  18.0079288
  72.1997986 194.3495941  18.7137756  73.6165543 195.4517822  18.4749813
  73.3371582 194.1720123  16.7904987  74.2449875 193.6411591  17.0770912
  72.5598602 193.4881287  16.4496040  73.4946442 195.3219910  15.7739096
  73.5711899 195.0171509  14.7302084  74.8570938 196.0495605  15.9614687
  75.9044800 195.4112091  16.2143173  74.9676971 197.4138336  15.9655256
  74.2112427 197.9757996  15.6021099  76.2566223 198.1250458  16.2665939
  76.9178543 197.8406067  15.4480753  75.9913101 199.6466064  16.0117455
  75.4174957 199.7187042  15.0878210  75.4388504 200.1022797  16.8334770
  77.3231583 200.3763885  15.8854055  78.0232849 200.0201874  16.6410789
  77.6651382 200.2156219  14.8630056  77.1801605 201.8999786  16.0524731
  76.7113724 202.1700134  16.9987431  78.1826630 202.3269196  16.0238514
  76.3386307 202.5317230  14.8888426  76.5505295 201.9737244  13.9767866
  75.2819443 202.3461151  15.0813866  76.5521469 204.0080109  14.7543945
  77.5368500 204.1628876  14.5917044  75.9144516 204.3677979  14.0586920
  76.4512711 204.5025635  15.6292305  76.9261322 197.7699432  17.5920048
  78.1190720 197.6352386  17.5877571  76.1212997 197.4868469  18.6209373
  75.1550674 197.3329468  18.3703022  76.7090912 197.2011108  20.0072861
  77.5315552 197.9163666  20.0000534  75.7614365 197.6586456  21.1394176
  76.4042740 197.7525635  22.0146523  75.1814270 199.0167084  20.8763523
  74.4149399 199.0615082  20.1026688  74.8403854 199.3883362  21.8426266
  76.0174484 199.6493378  20.5780735  74.7635956 196.5969543  21.5299530
  75.3366928 195.7519836  21.9116592  74.1676712 197.0635223  22.3143501
  74.1729889 196.2253265  20.6925793  77.3473740 195.8432312  20.1799698
  78.1297684 195.6338501  21.1606197  77.1924133 194.9089966  19.1896152
  76.7159576 195.2260742  18.3574200  77.3952484 193.4490051  19.2974148
  77.0643387 193.0147247  18.3540192  78.8531647 193.0245819  19.3705559
  79.1470871 193.0240936  20.4201813  79.0953293 192.0146027  19.0398178
  79.8701096 193.9019165  18.7832088  80.7384338 194.6550751  19.5473061
  80.7744751 194.5076141  20.6165848  81.6395950 195.2593689  18.6489315
  82.4099731 195.8084106  19.0027275  81.3792343 194.8660583  17.3463707
  82.0156021 195.2859650  16.1723232  82.8046265 196.0213318  16.2277908
  81.5977936 194.8580475  14.9211006  82.1518784 195.1590118  14.0442801
  80.4236984 194.0622101  14.9283915  80.0795212 193.6065979  14.0116777
  79.7364502 193.7160645  16.1127434  78.8144913 193.1568146  16.0525913
  80.2159042 194.0552521  17.3924713  76.4993668 192.6949310  20.3333282
  75.3561172 193.1241302  20.4553394  77.0398941 191.6422882  21.0292835
  77.9857254 191.4559479  20.7279930  76.6027527 190.9783020  22.3082275
  77.5559464 190.6071472  22.6847458  75.7361755 189.7356873  22.0156918
  75.2406464 189.4720764  22.9500713  75.0561752 189.9845886  21.2009869
  76.5866318 188.5099030  21.4844284  75.9547806 187.8012238  20.9490299
  77.2195053 188.9186554  20.6967239  77.3297424 187.6426697  22.5027676
  78.0503082 188.0498352  23.3478050  77.1776276 186.3363800  22.5271912
  77.4902878 185.8496246  23.3550892  76.4577866 185.8937836  21.9739895
  76.0758667 191.8913422  23.4422798  75.6795731 192.9756317  23.1296902
  76.2606659 191.4256439  24.6736374  76.7225418 190.5326538  24.7702923
  76.2870483 192.1325684  26.0194378  76.0458450 191.3556061  26.7448711
  77.7261505 192.5158997  26.4969864  77.8083725 193.1852112  27.3533478
  78.1330795 191.5625610  26.8341122  78.6978531 193.0542297  25.4202862
  78.9992142 194.3097382  25.3685570  79.3187714 192.2540588  24.6848106
  75.3191376 193.2814178  26.2220516  75.4149170 194.2562866  25.5032120
  74.3601456 193.1006165  27.1336727  74.2939835 192.1400909  27.4388332
  73.5045547 194.1519012  27.7826538  72.6755676 193.6398010  28.2711449
  74.3262177 194.7512360  28.9897251  73.6792374 195.4370270  29.5367222
  74.5888519 193.8866425  29.5993309  75.7356262 195.3640900  28.8288765
  76.2662735 195.2972870  29.7786388  76.3247833 194.7628784  28.1364002
  75.8610611 196.8626251  28.3366451  74.9210968 197.3611450  28.5733852
  76.6741714 197.3144531  28.9048061  76.2990723 197.0410614  26.9599934
  75.6067429 197.3154297  26.2777119  77.5271912 197.1039886  26.4589195
  78.5999374 196.8338928  27.1380024  78.5741653 196.4559784  28.0742798
  79.4556580 196.7053223  26.6171227  77.6562119 197.4633026  25.1843529
  78.6075134 197.5507812  24.8565292  76.8824081 197.7677460  24.6110725
  72.8093262 195.2164917  26.9120426  72.3465500 194.9591522  25.7828560
  72.5870819 196.3834991  27.4806042  72.7448120 196.4533386  28.4757652
  71.7172318 197.4448090  27.0443172  71.6448669 198.1625061  27.8615036
  72.3490524 198.2071838  25.9083290  72.4973984 197.5999298  25.0153885
  71.7409210 199.0517273  25.5842705  73.2850952 198.6658783  26.2269478
  70.1902008 197.2155914  26.7277145  69.3113480 197.8893127  27.2584515
  69.8074188 196.3567047  25.7810936  70.4954147 195.8257599  25.2664337
  68.4779510 196.3974152  25.0692501  68.1303024 197.4183044  24.9110546
  68.6205750 195.8994446  23.6636353  67.6331100 195.6597290  23.2692204
  68.8733597 196.7449036  23.0238094  69.4758835 194.6553040  23.4112759
  68.9179688 193.3955994  23.8845024  67.9502563 193.3719635  24.3634319
  69.7509842 192.2483063  23.8009491  69.3783340 191.3154907  24.1976452
  71.0354843 192.2934570  23.2948532  71.6136017 191.3834381  23.2312889
  71.5935974 193.5660400  22.9745255  72.6435471 193.6415863  22.7330742
  70.7948761 194.7303619  22.9508915  71.2423325 195.6725311  22.6707134
  67.3545761 195.7190094  25.8498993  66.2551117 195.5105591  25.3289719
  67.6190872 195.3473663  27.1281261  68.5766220 195.4594421  27.4292202
  66.6267319 194.8448486  28.1731701  66.2657776 193.8800964  27.8167229
  67.3085709 194.6772766  29.5719852  67.5306320 195.6779480  29.9427204
  66.5254135 194.2892303  30.2232933  68.6061707 193.7934875  29.7611847
  68.3388443 193.0274658  30.4890862  68.8661728 193.3542633  28.7980785
  69.8258820 194.6139679  30.2518692  70.6940002 193.9549103  30.2624226
  69.9128113 195.5203247  29.6526661  69.6565628 195.0864105  31.6436386
  69.6050186 194.3853607  32.3688774  69.9159622 196.2282410  32.1485786
  69.9652176 197.3114624  31.4094677  69.6824188 197.2386017  30.4426079
  70.1288986 198.1926422  31.8751144  70.1481934 196.3387299  33.4311600
  70.1883545 195.6263275  34.1459885  70.2115479 197.2530060  33.8556404
  65.3211136 195.7118378  28.2722759  64.2352295 195.1059418  28.3823738
  65.4318314 197.0594025  28.2366543  66.3680115 197.4101105  28.0929203
  64.2903595 198.0038910  28.2350750  63.6993980 197.8258057  29.1334915
  64.8776093 199.3941803  28.3875961  65.5180511 199.6323395  27.5383549
  64.0047073 200.0460358  28.4225502  65.6831894 199.5684662  29.6990376
  65.1366882 199.0254974  30.4701519  66.6512909 199.0729980  29.6256809
  65.8797150 201.0760498  30.0748043  66.2993698 201.9425964  29.2656918
  65.6987076 201.4198608  31.3531570  66.0598602 202.3021088  31.6867905
  65.5761414 200.6590118  32.0059814  63.5527802 197.9167786  26.8771248
  62.3071899 197.8900604  26.8793106  64.2510376 197.7987518  25.7046585
  65.2409821 197.9973297  25.7307549  63.7197495 197.5097656  24.3932076
  62.9657326 198.2470551  24.1175938  64.7458191 197.6068115  23.3444290
  65.0785294 198.6411743  23.4309769  65.5918274 196.9623871  23.5833549
  64.1414337 197.3356171  22.0015736  63.2527733 198.0832825  21.3085308
  62.9405556 199.0461273  21.6851692  62.7715721 197.3724365  20.2657146
  62.1952553 197.8142395  19.5637360  63.4214554 196.1495514  20.1328392
  63.2635384 195.1255188  19.1965599  62.5645370 195.1979218  18.3764629
  64.1004944 194.0289001  19.2853279  64.0731277 193.3057404  18.4836369
  65.0075150 193.9780884  20.3580360  65.5832901 193.0652771  20.3989563
  65.0929031 194.9161682  21.3829308  65.7977982 194.7164612  22.1764317
  64.2799149 196.0937805  21.2635975  62.9160538 196.1973572  24.2988396
  61.7995453 196.1640015  23.7837238  63.4079628 195.0813751  24.8900585
  64.3700485 195.0371094  25.1942539  62.5888786 193.8114319  24.9139957
  62.2123375 193.7010040  23.8970737  63.5188713 192.6151276  25.2967339
  64.2914658 193.0022736  25.9610443  62.9036713 191.8522491  25.7738571
  64.1060638 191.9871979  24.1175346  65.4092636 191.9299011  23.8318501
  66.2000656 192.3199005  24.4554901  65.6757889 191.2286835  22.6514111
  66.5812149 191.0994720  22.2229176  64.4717331 190.8270264  22.1038933
  64.1419373 190.0015411  21.0200691  64.8444443 189.6734161  20.2682590
  62.7679596 189.6484375  20.8553638  62.4591064 189.0011139  20.0479088
  61.8425255 190.0224762  21.8247089  60.8048325 189.7337646  21.7457600
  62.1534538 190.8685303  22.8934097  61.4307709 191.0960693  23.6630554
  63.4564209 191.2760315  23.0601177  61.3620491 193.8513947  25.8112259
  60.5002441 193.0078735  25.6058216  61.1542740 194.8332367  26.6931496
  61.8559723 195.5526428  26.7939453  59.7970963 195.2194824  27.1945305
  59.2709961 194.2885895  27.4060707  59.9340401 196.0479736  28.5015163
  60.5527840 196.9094696  28.2503738  58.9423485 196.3832092  28.8052635
  60.5672340 195.2173462  29.6319771  60.0672455 194.2499084  29.6785870
  61.5763245 194.9524841  29.3162479  60.6091919 195.9440002  30.9891167
  60.8323975 197.1505432  31.0691109  60.3336601 195.2748871  32.1207504
  60.5773239 195.7356567  32.9858665  60.2519836 194.2682037  32.1245918
  59.0624084 196.1237793  26.2352619  57.9522133 195.8425446  25.8605118
  59.6939125 197.1277161  25.6861343  60.5918427 197.2860870  26.1205769
  59.2071228 198.1868744  24.7565498  58.4621353 198.7853546  25.2808666
  60.3244553 199.0770569  24.3750954  61.0519905 199.1338196  25.1847687
  60.8883667 198.7038422  23.5202198  59.8021011 200.4965210  24.1317635
  59.0491371 200.3530426  23.3568039  59.3204575 200.8844299  25.0293369
  60.9229622 201.4136353  23.5646210  61.8106232 201.5099640  24.1898270
  61.3178062 200.9388580  22.6664085  60.2888603 202.8356171  23.2526894
  60.8603706 203.3643799  22.4898739  59.3262329 202.7500153  22.7485828
  60.2210846 203.7236938  24.4317760  61.1568909 203.8951569  24.7708435
  59.9508972 204.6650391  24.1848316  59.7851677 203.2716675  25.2228203
  58.6159630 197.5555267  23.4744854  57.4461136 197.8096466  23.2228642
  59.3154449 196.6719055  22.7547436  60.2546425 196.5106049  23.0893898
  58.7748718 195.9807281  21.5710430  58.4664803 196.8036041  20.9261551
  59.9850082 195.2128143  20.9987354  60.6099892 195.9429932  20.4845867
  60.5138435 194.7405396  21.8266182  59.6710587 194.1393127  20.0170155
  59.3600349 194.5514984  18.6938610  59.4354553 195.6104279  18.4954300
  58.9502716 193.6431274  17.6942997  58.8953285 193.9454651  16.6589355
  58.8481903 192.2593536  17.9957790  58.4106102 191.3685455  17.0484829
  57.9441643 191.7224274  16.2876949  59.0678368 191.8468628  19.3493862
  58.8110275 190.8305359  19.6092453  59.4734726 192.7860870  20.3218117
  59.5069351 192.5206451  21.3681507  57.5100975 195.1471252  21.9255314
  56.5396805 195.1934204  21.1316719  57.5442123 194.4454803  23.0559387
  58.2751312 194.6062317  23.7341881  56.3354530 193.7461700  23.5051365
  56.0252457 193.0841675  22.6966629  56.6913185 192.8140411  24.7306213
  57.1279068 191.8946686  24.3404198  57.4319725 193.3294067  25.3421173
  55.5124664 192.4538422  25.6802597  54.9699783 193.3429413  26.0017052
  54.8763695 191.7210388  25.1837921  56.0576363 191.9564362  26.9899807
  57.1059799 191.3497620  27.0935001  55.2683640 192.0515289  28.0434322
  55.6033592 191.6565399  28.9105301  54.3451767 192.4603882  28.0176563
  55.2342987 194.7843323  23.7612228  54.1161804 194.6502533  23.2164478
  55.4253845 195.8750153  24.5375919  56.2882538 195.8684692  25.0624886
  54.3898659 196.9174957  24.7797451  53.6020699 196.3517761  25.2771835
  55.0473595 197.9558411  25.6866722  55.2300301 197.3983459  26.6053333
  56.0073013 198.2980652  25.3000317  54.1171608 199.1715851  26.0072193
  54.0701637 199.7374878  25.0768242  53.0962372 198.8897247  26.2648392
  54.6655388 200.0876160  27.1149330  54.7360420 199.4531860  27.9984684
  55.6060638 200.5966644  26.9042969  53.5127411 201.1198425  27.3834400
  53.4806900 201.7981415  26.5308094  52.5119057 200.7169952  27.5388374
  53.8238792 201.8683319  28.6091080  54.6748619 202.3891296  28.4520035
  53.0285378 202.4314270  28.8745251  54.0540848 201.2617188  29.3831444
  53.8464890 197.5127258  23.5015678  52.5971680 197.6821899  23.4238834
  54.7094650 197.7952423  22.4981251  55.7060738 197.8092499  22.6614285
  54.3220291 198.3814087  21.2150478  53.5901718 199.1527710  21.4548168
  55.5555458 199.1296082  20.5973396  55.8303528 199.8257446  21.3897839
  56.3209839 198.3773041  20.4069424  55.2241135 199.9015808  19.3466301
  54.8616829 199.2326813  18.5660439  54.3619423 200.5301514  19.5695171
  56.2930527 200.7696991  18.7547150  57.2087975 200.1786957  18.7701817
  55.9943886 201.0812073  17.7537842  56.3667336 202.0472107  19.5215569
  55.6830902 202.3003540  20.2205906  57.4191093 202.8931427  19.3927155
  58.3643913 202.7534027  18.5046368  58.1698265 202.2129059  17.6739120
  58.8607559 203.6032410  18.2776852  57.6105690 203.9119110  20.1763954
  56.8742599 204.1314087  20.8319626  58.4718399 204.4393921  20.1678009
  53.6501350 197.4103699  20.2644005  52.5309944 197.7054291  19.7548847
  54.1597099 196.1577301  20.0714607  55.0316887 195.9302979  20.5275612
  53.5264359 195.1441193  19.2266979  53.3286362 195.5506439  18.2348747
  54.5472679 193.9867706  19.0124149  55.4839897 194.4659576  18.7277546
  54.7370911 193.4037628  19.9136219  54.1263390 193.1149597  17.8228817
  53.2502823 192.5519104  18.1447582  53.9437904 193.7404480  16.9490700
  55.2476311 192.0815430  17.5072956  56.1126366 192.6338196  17.1400814
  55.5543480 191.4972687  18.3748512  54.7560005 191.1037903  16.4368992
  55.3630562 190.2060089  16.3204098  53.7479362 190.7244568  16.6042614
  54.7666283 191.8145905  15.0881758  55.6968155 192.1281738  14.8504391
  54.3484459 191.2524872  14.3606606  54.1352196 192.5995331  15.0155010
  52.2329712 194.5877533  19.7980480  51.2625542 194.4968109  19.0785351
  52.1068039 194.2993317  21.1091290  52.8908157 194.4936981  21.7154713
  50.8703308 193.7189789  21.7040482  50.3390312 193.3271790  20.8366871
  51.2016602 192.4725494  22.5621433  51.7621689 192.6316833  23.4833393
  50.2650223 191.9559326  22.7717247  52.0131950 191.4695892  21.7653275
  51.4694862 190.7984924  20.6332493  50.4516716 190.9913788  20.3278866
  52.3122406 190.0158997  19.8217793  52.0945625 189.4355469  18.9373569
  53.6513824 189.8932648  20.1447906  54.2346382 189.2444916  19.5081558
  54.2632523 190.5679321  21.2424850  55.3075027 190.4312439  21.4817715
  53.4107819 191.3360443  22.0729408  53.7358055 191.9075623  22.9297562
  49.9929848 194.7370148  22.3703594  49.1072769 194.3768005  23.1264343
  50.1844482 196.0284882  22.1669979  50.9441032 196.3643646  21.5923576
  49.1723022 196.9994507  22.6711693  49.2662239 197.0153656  23.7569981
  49.5791817 198.3993073  22.0997810  50.4888382 198.7709503  22.5714893
  49.7914581 198.2988739  21.0353775  48.5266571 199.4754181  22.1853638
  48.4207573 200.3608704  23.3160534  47.4180717 201.1458435  23.0292625
  47.0014725 201.9122314  23.6660480  46.8848457 200.8627930  21.8069744
  46.0822754 201.3621979  21.4512119  47.5566139 199.7944946  21.2715206
  47.4699936 199.2826385  20.3244762  47.7401352 196.6096802  22.2531548
  46.8549042 196.8918915  23.0631733  47.4822502 196.0991516  21.0628853
  48.2456551 195.9348755  20.4223156  46.1613235 195.7490997  20.6294289
  45.5760002 196.6397552  20.8579235  46.0471649 195.6839600  19.1001434
  46.6061745 194.8754578  18.6290398  45.0013924 195.5274200  18.8356457
  46.5623207 197.3371735  18.5380592  45.4731140 198.0776520  18.7621403
  45.4098892 194.6034393  21.3851204  44.2077866 194.4406586  21.2857227
  46.1023560 193.9355316  22.3090611  47.0266838 194.3017731  22.4867840
  45.6161728 192.7844238  23.0866413  45.3159523 192.0060120  22.3851814
  46.8251877 192.2921600  23.8242855  47.0194206 193.0181732  24.6137772
  46.5964470 191.3581543  24.3375225  47.6070900 191.9855957  23.1294861
  44.4447441 193.1339874  24.0862408  43.6246834 192.2717133  24.4385281
  44.3757820 194.4011536  24.3964386  45.0378456 195.0662689  24.0230885
  43.3205833 195.0647278  25.2185936  43.2986488 194.4843292  26.1409569
  43.7347298 196.5822754  25.4008217  43.1234970 197.0740356  26.1575603
  44.7593460 196.6199951  25.7707462  43.7239532 197.2336578  24.0958099
  44.2197418 198.0302124  24.2989750  41.8833885 194.9150696  24.6164112
  40.9768105 195.0326385  25.4651852  41.7121124 194.6571808  23.3277969
  42.5704231 194.5050659  22.8176365  40.4980469 194.4575043  22.6237583
  39.7133217 195.0890045  23.0403061  40.6986809 194.8508301  21.1671505
  41.5378723 194.2762146  20.7751350  39.8676224 194.6063690  20.5055637
  40.8758049 196.3541412  20.8598881  41.7189751 196.7386475  21.4337463
  41.0686531 196.5248718  19.3566303  40.2174149 196.1165314  18.8118744
  41.1418266 197.6009521  19.1991539  41.9759216 195.9745941  19.1072998
  39.5769043 197.0670166  21.3001518  39.4836540 196.9650574  22.3813591
  39.6992645 198.1323700  21.1048164  38.6941681 196.6805267  20.7907391
  39.9455338 192.9938507  22.8343258  38.8908615 192.6029816  22.3553886
  40.7446442 192.1072235  23.4727516  41.6005745 192.5293732  23.8033333
  40.3631516 190.8030090  23.9305649  39.2928352 190.6190033  23.8375149
  40.9747925 189.7015839  22.9875679  40.3233223 188.8368683  23.1138954
  41.1958275 189.9598541  21.4909878  42.0391693 190.6493988  21.4534969
  41.3516541 189.0065155  20.9860554  40.3177032 190.4111328  21.0290966
  42.1718597 189.1608582  23.4723644  42.4460411 188.4876099  22.8453369
  40.7120132 190.5797272  25.4780216  41.0596504 191.5127258  26.1871567
  40.3583794 189.4137421  26.0268326  39.9272614 188.7271423  25.4244919
  40.5138741 189.0932312  27.4792919  40.0371857 189.8460846  28.1070423
  39.7466965 187.8219147  27.7426224  39.8773193 187.6221771  28.8061752
  38.6857529 188.0347443  27.6114731  40.0047226 186.7465973  26.8222446
  39.2610779 186.1397858  26.8027020  41.9652672 188.8484497  27.9316330
  42.2252388 188.8115997  29.1315041  42.9304504 188.7014313  26.9953098
  42.6522789 188.8779755  26.0405560  44.3519058 188.2331543  27.2836952
  44.3599052 187.6739655  28.2192917  44.8453789 187.4224701  26.0835648
  44.7722015 188.0737762  25.2126217  45.8897591 187.1872406  26.2885990
  44.0036049 186.1712952  25.8718281  43.4407196 185.7761841  24.6874943
  43.6443329 186.2894745  23.7593403  42.9078636 184.5497437  24.8521461
  42.3175240 184.1450806  24.1395035  42.9968033 184.0916443  26.1439590
  42.5599899 182.9332123  26.7884579  41.9268875 182.2456818  26.2472782
  43.0238953 182.6346893  28.1041050  42.6071014 181.7305908  28.5227623
  43.7836571 183.6209564  28.7897453  44.0938911 183.4485474  29.8097610
  44.1411781 184.8157196  28.1949921  44.6874123 185.4873810  28.8406677
  43.8126907 185.0574951  26.8331356  45.2811394 189.5084381  27.5431976
  45.0078201 190.5664062  27.0055370  46.3704605 189.3586121  28.3474216
  46.5872192 188.3017883  29.4064617  46.8087234 187.3215942  28.9842567
  45.6811523 188.2855530  30.0121689  47.7838173 188.7582397  30.2008076
  48.6628151 188.2333374  29.8267117  47.6725349 188.5601807  31.2668705
  47.9608917 190.2344666  29.9330769  49.0188446 190.4968262  29.9351768
  47.3129120 190.7551117  30.6381645  47.3875122 190.4127197  28.5199337
  46.8002396 191.3309784  28.5176239  48.4141273 190.4052429  27.3865986
  48.6668472 189.3369293  26.8392296  49.1282082 191.5576172  27.1646442
  48.8477058 192.8562927  27.7445850  49.1972237 192.8815308  28.7767200
  47.7738113 193.0394287  27.7084179  49.6081810 193.8362885  26.8696747
  49.8661346 194.6983032  27.4848938  49.0325813 194.1214600  25.9890671
  50.8013687 193.0492554  26.3955898  51.5086517 193.0354156  27.2248402
  51.2284431 193.5522614  25.5280132  50.2135048 191.6497803  26.1710663
  49.8211403 191.5174408  25.1627827  51.3072205 190.5510101  26.2919083
  51.8187943 190.0418549  25.3034325  51.6118507 190.0760498  27.4904671
  51.2272415 190.6196136  28.2498817  52.6589203 189.0349426  27.7356548
  53.5273094 189.2804718  27.1243305  53.1194992 189.0202026  29.2167358
  54.0033226 188.3859253  29.2848320  53.5868530 189.9973602  29.3386154
  52.1895714 188.6141663  30.2907963  51.4886093 189.4703064  31.1352921
  51.4422493 190.5491943  31.1188812  50.7500801 188.7389526  31.9787979
  50.1371269 189.1493835  32.6686821  50.8511505 187.3449860  31.7100487
  50.2678185 186.2303314  32.2847481  49.5306511 186.3145752  33.0695305
  50.5302887 184.9596252  31.7781277  49.9609184 184.1073151  32.1183701
  51.5906181 184.7910919  30.8507004  51.9249306 183.8441772  30.4532108
  52.1728859 185.9548645  30.2835445  52.8975906 185.8065338  29.4966488
  51.7720375 187.2533569  30.6612301  52.3128357 187.5828400  27.3053665
  53.1979141 186.7741394  27.0966702  51.0132713 187.2006531  27.1290607
  50.2423172 187.8493652  27.1989880  50.6848831 185.8261108  26.6755714
  51.2562523 185.1726227  27.3348160  49.1182289 185.5948639  26.7726574
  48.7241211 185.7664032  27.7743320  48.6769485 186.2821350  26.0508270
  48.7244987 184.1099854  26.4562855  49.0820885 183.8969727  25.4488831
  49.3133545 183.0670471  27.4011860  48.9734116 183.0536499  28.4367313
  49.0607147 182.0410461  27.1336193  50.4008331 183.1405945  27.3917980
  47.2146034 183.8739777  26.3904572  46.6440506 184.6541901  25.8866348
  46.9436531 183.0321960  25.7531948  46.6595421 183.7495117  27.3202515
  51.1906548 185.6417236  25.2447472  51.6960258 184.6201630  24.8534336
  50.8853111 186.6466217  24.4050713  50.5051956 187.5301056  24.7134342
  51.2826157 186.5554047  23.0212345  50.8682632 185.6555328  22.5666370
  50.6715469 187.7277222  22.3147659  51.0346222 188.6675568  22.7307091
  51.0882301 187.6427307  21.3111477  49.1610374 187.6948547  22.3176212
  48.3665962 186.5093536  21.9167442  48.9615250 185.6578827  21.6210098
  46.9588280 186.4513550  21.9344997  46.4572754 185.5696106  21.5638771
  46.2659531 187.5911255  22.2897148  44.9304237 187.6581573  22.1935196
  44.5584068 186.8683929  21.7941799  46.9799995 188.7352448  22.7046242
  46.4738007 189.6295166  23.0369682  48.3963127 188.8100128  22.7769356
  48.8117905 189.7146454  23.1957626  52.7806206 186.4674072  22.8031139
  53.1832542 185.8442993  21.8506756  53.6622849 186.9211121  23.7736931
  53.2226448 187.6058044  24.3720226  55.1382294 186.7159882  23.7994137
  55.5203934 187.2619629  22.9368782  55.7530365 187.4295654  25.0241795
  55.4742813 186.8478546  25.9028244  56.8368416 187.3687592  24.9253178
  55.2603111 188.7908173  25.0629215  55.7820854 189.3136749  25.6760864
  55.4639778 185.2362976  23.6959286  56.3074112 184.9186859  22.8966484
  54.6205254 184.4168091  24.3703880  53.8075066 184.9133759  24.7058449
  54.6323013 182.9319611  24.5376015  55.7011566 182.7353668  24.6212940
  53.8932419 182.4243622  25.8453770  52.8160973 182.5321655  25.7179298
  54.0268936 181.3432007  25.8816490  54.3429222 183.1801758  27.1421585
  53.9661331 184.1998291  27.0619411  53.7213249 182.6355896  28.3926640
  54.1181984 181.6313782  28.5414886  53.9879074 183.3235016  29.1950378
  52.6480255 182.6373749  28.2026005  55.8291130 183.1540222  27.4101353
  56.3383522 183.7406311  26.6455021  56.0848770 183.6573181  28.3425331
  56.2053833 182.1366119  27.3032494  54.1833839 182.1799164  23.3219185
  54.3482361 181.0065308  23.3016129  53.6714935 182.8991394  22.2643108
  53.5866928 183.8824921  22.4785671  53.3830757 182.4045563  20.9160595
  53.7783394 181.3888245  20.9287910  51.8178940 182.2729187  20.7847347
  51.4034119 183.1592560  21.2650623  51.4391403 182.2674255  19.7626686
  51.1708755 181.1101379  21.4373989  50.6272049 181.3162079  22.7115955
  50.7172623 182.2946014  23.1599789  49.9149742 180.3169708  23.3703766
  49.4548569 180.5609894  24.3165016  49.7623062 179.0473785  22.7764320
  49.0469971 178.0603638  23.4275532  48.9437752 178.2235107  24.3679428
  50.3145638 178.8207092  21.4804344  50.0928917 177.9723053  20.8499928
  51.0393639 179.8580933  20.8422718  51.2854233 179.7688141  19.7944698
  54.0460129 183.2123871  19.7423229  54.0350533 182.6885834  18.6598225
  54.5441246 184.4497070  19.9085541  54.4938889 184.9143066  20.8039513
  55.1878929 185.1889343  18.8393326  54.5196228 185.1802826  17.9782581
  55.3116150 186.6105499  19.4056454  54.3213692 187.0367737  19.5664330
  55.8471069 186.5077362  20.3494606  56.1418266 187.5098419  18.4695129
  56.0740242 187.3349457  17.2304935  56.7291336 188.5148468  19.0108871
  56.5768700 184.5810394  18.4061794  57.4466095 184.2880249  19.1848888
  56.6572647 184.2744904  17.0984154  55.9182739 184.6773071  16.5400734
  57.8591728 183.6292419  16.4718018  57.9606476 182.6307220  16.8969536
  57.6643295 183.5343018  14.9073734  57.9496269 184.4615936  14.4105339
  58.4564056 182.8738861  14.5544052  56.7130508 183.0835876  14.6244907
  59.1356926 184.3976440  16.7430878  60.1928139 183.7599335  16.9020443
  59.1098976 185.7547607  16.8621845  58.1859894 186.1577301  16.9262218
  60.4122276 186.5048676  17.0343609  61.2019768 186.0996246  16.4017601
  60.2196655 187.9661865  16.6066475  59.4521599 188.3938446  17.2517376
  61.1389732 188.5183258  16.8018951  59.7308540 188.1715698  15.1482344
  58.7985535 187.6354065  14.9708719  59.6025047 189.2526093  15.0935373
  60.8569717 187.7065582  14.1663475  62.0800209 187.7112122  14.3364229
  60.4149323 187.2865295  13.0790176  60.8996201 186.4166718  18.4702492
  62.0811653 186.1305389  18.7635269  59.9837379 186.5071564  19.4658661
  59.0252647 186.7262421  19.2347088  60.3516273 186.3495483  20.8379555
  61.2707787 186.8856506  21.0742817  59.2156868 186.7821960  21.6362991
  58.3378906 186.1954651  21.3655033  59.4369049 186.7057495  23.1746120
  60.2790985 187.3657990  23.3823395  58.6106834 187.1748962  23.7088013
  59.4876404 185.6766968  23.5303707  58.8479729 188.1216278  21.4327087
  58.2513046 188.4866333  22.0902500  60.7623825 184.8594360  21.1028748
  61.7644615 184.5819397  21.6920071  59.9749260 183.9221039  20.5618076
  59.2147675 184.2071381  19.9609642  60.3256493 182.4849701  20.6073112
  60.4561272 182.1052856  21.6206779  59.1552467 181.6037598  20.0974674
  59.0792618 181.8904114  19.0485840  59.5470619 180.5866394  20.1047287
  57.7708664 181.6975250  20.8003578  57.4361839 182.6956940  21.0827351
  56.7114677 181.0285187  19.9801369  57.1502457 180.2274170  19.3853207
  55.9370575 180.7131348  20.6793671  56.2042656 181.7259521  19.3134766
  57.9594574 180.9387360  22.1406631  58.5231323 181.5359192  22.8574142
  57.0033951 180.7077179  22.6104221  58.4424896 179.9659271  22.0488110
  61.6728745 182.1056213  19.9321423  62.2956467 181.1142120  20.3447666
  62.1351814 182.8806000  18.9226513  61.6290016 183.6840973  18.5787411
  63.4828033 182.6757050  18.3766117  63.7042427 181.6085968  18.3584290
  63.6231689 183.2321014  16.9911442  63.2848701 184.2669830  16.9395924
  64.6876221 183.3006439  16.7667599  63.0065994 182.3273315  15.9236412
  63.5727882 181.3961029  15.9045506  61.9398880 182.1393738  16.0456886
  63.0092583 182.9515076  14.2577944  64.7439270 183.0201111  13.9115343
  65.2973480 182.1496735  14.2639103  64.9524307 183.1110687  12.8455362
  65.2161179 183.8697510  14.4047413  64.6016922 183.3280792  19.1974182
  65.6252441 182.6782074  19.4437389  64.3386993 184.4976654  19.7542820
  63.4681244 185.0033875  19.6740646  65.3094177 185.1171875  20.6949863
  66.2432556 185.2751007  20.1554375  64.8074341 186.5278625  21.1788464
  64.4307556 186.9932556  20.2680035  64.0379715 186.3501740  21.9301453
  65.9310760 187.3711090  21.8709698  65.4695663 188.2655945  22.2893276
  66.3232117 186.8468170  22.7424278  67.1273422 187.6117706  20.8676014
  66.9642944 187.4856567  19.6592598  68.3254395 187.9146271  21.2385635
  65.6334076 184.3355865  21.9643345  66.7761917 184.1815643  22.4171238
  64.5710068 183.7578125  22.6275005  63.6094818 183.8464508  22.3313351
  64.8605804 182.8688660  23.7961617  65.3802109 183.3976288  24.5952206
  63.5083771 182.3665924  24.3077354  62.8665924 181.9666443  23.5227165
  63.6191673 181.5480194  25.0189056  62.6041908 183.5122681  24.9105358
  63.1072159 183.8992310  25.7967205  62.5301018 184.2859344  24.1462936
  61.2392426 182.9764404  25.3831406  60.5183334 183.7617798  25.6103897
  60.8618546 182.3881226  24.5467510  61.4694595 182.1397705  26.5971069
  62.4165039 182.0932922  26.9450245  60.5384178 181.3723907  27.1015854
  59.2724609 181.4054260  26.6818390  58.9468803 182.2438202  26.2222862
  58.6654701 180.6402130  26.9389706  60.7214050 180.7093048  28.2103062
  61.5015411 180.9954987  28.7844009  59.9180298 180.3937378  28.7348156
  65.7930832 181.7384796  23.4048996  66.7011337 181.3995361  24.1465874
  65.5759811 181.1235809  22.2135887  64.7679977 181.4384918  21.6958122
  66.3785858 179.9821014  21.6744251  66.4687119 179.2992096  22.5192032
  65.7563782 179.2531586  20.4542828  65.4114609 179.9426117  19.6837044
  66.6860809 178.2037048  19.8968353  66.8812866 177.5080414  20.7129555
  66.0665817 177.7824249  19.1051044  67.5631561 178.7083740  19.4916782
  64.5348969 178.4244995  20.9013252  63.6592789 179.0580597  21.0427513
  64.2211685 177.7908325  20.0717812  64.7631226 177.7700043  21.7425385
  67.7822266 180.5111237  21.4102230  68.6974335 179.9099121  21.9537373
  67.9937592 181.6653442  20.7072620  67.2199097 182.0900421  20.2164631
  69.3449936 182.2454987  20.5189800  69.9459000 181.5640717  19.9167595
  69.3106918 183.5671692  19.7426758  68.5353699 184.1950073  20.1817703
  70.2703934 184.0636902  19.8860111  69.0904007 183.5492249  18.2557964
  69.9578552 183.0351410  17.8418655  68.1639328 183.0090637  18.0608673
  68.9316635 184.9618988  17.8209019  68.1387939 185.5075836  18.3324585
  69.9042130 185.4423065  17.9279118  68.5811996 185.0250702  16.3382244
  69.1980057 184.2880096  15.8240213  67.5283127 184.7709961  16.2158508
  69.0145950 186.3721161  15.8435287  69.9838181 186.5581207  16.0582790
  68.8942947 186.4034119  14.8412066  68.5413666 187.1866608  16.2077579
  70.0935364 182.4711914  21.8022270  71.2959290 182.1919250  21.8883305
  69.3736877 182.9421082  22.8535023  68.5024261 183.4264832  22.6910744
  69.9539490 183.2213287  24.1911182  70.8088913 183.8829956  24.0519505
  68.8413849 183.9791718  24.9707355  68.3618546 184.6476593  24.2557087
  68.0876160 183.3032990  25.3746300  69.5036621 184.8330231  26.0789051
  70.0440140 184.1837006  26.7677574  70.1665802 185.5590515  25.6082420
  68.4746399 185.7285156  26.8692627  69.0287476 186.2592468  27.6434708
  68.1025009 186.4509735  26.1428490  67.3810654 184.9258270  27.4595413
  67.6256638 183.9826660  27.7255058  66.1888275 185.3215637  27.8661709
  65.7562790 186.6109314  27.7207565  66.3719559 187.2305756  27.2137318
  64.8293610 186.8894043  28.0095100  65.3690262 184.4480438  28.4308319
  65.7563171 183.5331879  28.6128826  64.5974884 184.7887878  28.9864578
  70.4275131 181.9503326  24.9234390  71.2936478 182.1049957  25.7303505
  69.9198074 180.7435455  24.5453587  69.0907974 180.6581421  23.9747829
  70.6068344 179.5018311  24.9411392  71.0398483 179.6200104  25.9344387
  69.5387268 178.3969116  25.1173496  68.8119125 178.6132202  25.9003220
  68.9781189 178.2292633  24.1977215  70.0820160 177.0403137  25.6405849
  69.3546448 176.2384186  25.5140648  70.9095688 176.7385559  24.9985542
  70.5190048 177.1148987  27.0927887  69.7023239 177.0355377  27.9810371
  71.8194275 177.0395660  27.3147697  72.0605087 177.0467377  28.2955513
  72.4609909 177.0212097  26.5349255  71.7300949 179.0341187  23.9940662
  72.8143845 178.6418610  24.4249611  71.5184326 179.2220001  22.6477032
  70.6475525 179.6387024  22.3510151  72.5290298 178.7135468  21.6598549
  72.6757507 177.6757355  21.9590836  72.0129166 178.9086456  20.2077179
  71.9856262 179.9908752  20.0807133  72.7726822 178.3890076  19.6239090
  70.6707458 178.4042053  19.7870598  69.9141769 178.8338165  20.4436665
  70.3383636 178.8511658  18.4058933  71.1539230 178.4326172  17.8161659
  69.3430176 178.5358124  18.0929642  70.3182373 179.9257812  18.2244740
  70.6673813 176.8776550  19.8543358  71.0300217 176.4355927  20.7823315
  69.6684799 176.4720764  19.6937275  71.3539352 176.5989380  19.0549259
  73.8867111 179.5135193  21.8381290  74.9330368 178.9414825  21.5796661
  73.8080673 180.7771912  22.2149773  72.9086075 181.2029419  22.0423412
  74.9743195 181.6335602  22.4482117  75.5726318 181.5541840  21.5405617
  74.5702591 183.0930786  22.6005821  73.6435699 183.1889954  23.1664028
  75.2687836 183.5600739  23.2949104  74.5496292 183.9140167  21.3295403
  75.7327194 184.3163605  20.6759853  75.2625809 184.9078674  19.5125656
  75.8168106 185.4712219  18.7764530  73.8888626 184.9284210  19.4939690
  73.3647003 185.3118286  18.7204361  73.4279785 184.2513885  20.6247807
  72.4155579 184.2135620  20.9989185  75.9459839 181.1207733  23.5318089
  77.1147842 181.4300995  23.4913082  75.4265289 180.3258362  24.4922047
  74.4763260 179.9874268  24.4404697  76.2500992 179.5605774  25.4399395
  77.1422729 180.1601868  25.6204739  75.4301987 179.3598328  26.7441139
  74.3902283 179.0732880  26.5877190  75.8397675 178.4947662  27.2656593
  75.4071426 180.5278625  27.6925774  76.4115982 180.9387817  27.5910530
  74.6982346 181.3031616  27.4019604  75.1894684 179.9724884  29.1857853
  75.9194412 180.2407990  30.1523838  74.1898117 179.2541351  29.3763924
  76.7720795 178.2516327  24.8978596  77.7067413 177.6886597  25.4550858
  76.1895676 177.6738892  23.8168468  75.5735550 178.2006683  23.2142467
  76.8048859 176.5044708  23.1626530  77.2760773 175.9394836  23.9669399
  75.6821594 175.5977020  22.5685863  75.1956787 176.2560272  21.8488331
  76.1467590 174.6910858  22.1808929  74.6334839 175.0782318  23.4817524
  74.8744431 174.7237854  24.7497463  75.7862778 174.9430847  25.2853508
  73.7993774 174.0202026  25.2768955  73.7988968 173.6059723  26.1980438
  72.7761230 173.8670959  24.3504753  71.5545044 173.1991425  24.4073391
  71.2137985 172.6892395  25.2963390  70.7608261 173.1883240  23.2377262
  69.8281250 172.6449127  23.2720909  71.3159714 173.6533051  22.0212193
  70.8024445 173.5074158  21.0823879  72.5206070 174.3564758  22.0215874
  72.8381729 174.8135529  21.0960388  73.2864304 174.4895935  23.1879234
  77.8738098 176.8642731  22.1046696  78.7414474 176.0432281  21.8229904
  77.8959427 178.1240845  21.6345425  77.1425400 178.7561951  21.8645744
  78.9239120 178.6319122  20.7840099  79.8074417 178.0042114  20.9001331
  78.4411697 178.5108490  19.3750954  77.8944397 177.5780182  19.2371750
  77.6752243 179.2616272  19.1807880  79.5335846 178.7416229  18.3789082
  80.6869659 179.0766602  18.7326565  79.2926483 178.4911957  17.1573181
  79.2770691 180.1432037  21.0933857  78.7078094 181.0626984  20.5351734
  80.1642990 180.3286438  21.9981842  80.5311432 179.4438629  22.3186188
  80.5319977 181.6822662  22.4895267  79.5748596 182.0991974  22.8028431
  81.4304428 181.5141449  23.7700958  82.4136047 181.1065979  23.5347214
  81.5663757 182.5030823  24.2078438  80.8759308 180.6644135  24.9146690
  81.2929077 181.1405945  25.8020649  79.7863235 180.6386414  24.9289246
  81.4332809 179.1862030  25.0118828  81.3568344 178.5085907  23.9587536
  81.8887558 178.7537842  26.0911274  81.1707687 182.5941162  21.4252033
  81.3863907 183.7935333  21.6502800  81.6617737 182.0522919  20.3239727
  81.4951935 181.0618896  20.2169666  82.2265167 182.7462616  19.2262878
  82.6652527 183.7050018  19.5027542  83.3936768 181.9544373  18.5977840
  83.0102844 180.9918060  18.2594624  83.7982407 182.4707642  17.7272396
  84.5136261 181.7501221  19.6076317  84.5773849 180.7262726  20.2933788
  85.4825058 182.6699219  19.6854744  86.2902527 182.4995880  20.2673855
  85.4713821 183.5182648  19.1374645  81.2443314 183.0402222  18.0216465
  81.6584320 183.5566711  16.9928188  79.9874954 182.5786133  18.1106224
  79.7750549 182.0624847  18.9523964  79.0225296 182.5710449  16.9899578
  79.4126205 182.0592499  16.1101894  77.7795486 181.8383179  17.4339333
  77.9643860 180.8451080  17.8431377  77.3497009 182.4140320  18.2536259
  76.6590881 181.6500092  16.3686504  77.1591263 181.9153290  15.4371634
  76.0534439 180.3060760  16.4332123  75.7169800 180.1708832  17.4611282
  75.1703949 180.3317871  15.7947254  76.8161697 179.5599976  16.2102489
  75.4916534 182.6346588  16.6942673  75.7574081 183.6916962  16.6819019
  74.7107315 182.4092712  15.9679985  74.9919662 182.4633942  17.6477203
  78.6338425 184.0132599  16.6169395  78.2651215 184.8116608  17.4193001
  78.6137238 184.1802826  15.2769775  79.0878296 183.4376068  14.7832537
  77.9517746 185.3103485  14.4765940  77.6947174 186.1354675  15.1408253
  78.9966660 185.7687073  13.3375998  79.1922607 184.9298248  12.6696692
  78.5847702 186.6069946  12.7757311  80.2627106 186.2795715  13.9318514
  80.0573578 187.1833801  14.5054798  80.5552216 185.5471191  14.6842184
  81.4716339 186.5955353  13.0044737  82.3563156 186.8757629  13.5762415
  81.5873718 185.6686859  12.4426394  81.1348038 187.8125153  12.0602617
  81.5449142 187.6831207  11.0586777  80.0545578 187.9268341  11.9702225
  81.7809601 189.0783234  12.5581007  82.7557068 189.1778259  12.3129997
  81.2939072 189.9090729  12.2535515  81.8131027 189.1481934  13.5651684
  76.6454620 184.9501495  13.9676456  76.5238342 183.8697510  13.3508902
  75.6130295 185.7454681  14.2439690  75.7726517 186.6240387  14.7159157
  74.1819305 185.3746338  13.9028902  74.0302200 184.4081879  14.3835640
  73.1837692 186.3901672  14.3413143  73.4420853 187.3887482  13.9888859
  72.2550430 186.1351624  13.8308687  72.8717575 186.4319153  15.9013309
  73.7241440 185.8926239  16.6227627  71.7649765 186.9028320  16.2912426
  73.9799042 185.0908203  12.3440485  73.0207062 184.4467468  12.0159883
  74.8812103 185.5531921  11.4840488  75.5984039 186.1695251  11.8387995
  74.9245071 185.4115448  10.0234375  74.0418701 185.8854675   9.5939493
  76.1257019 186.1305389   9.4881210  76.9755173 185.5019836   9.7542524
  76.0983429 186.2053375   8.4010334  76.2603073 187.5839081   9.9728107
  76.5341644 187.6806183  11.0234041  77.0651627 188.0895386   9.4392967
  74.9190979 188.2772980   9.7137194  74.4108047 188.2581329   8.5523911
  74.3085098 188.8753204  10.6356945  75.0131302 183.9047089   9.5647907
  74.7287369 183.6725006   8.4122410  75.4775848 182.9548187  10.4279757
  75.8185120 183.2757568  11.3228893  75.5113449 181.4912262  10.1258268
  75.6815720 181.3140869   9.0638762  76.6009827 180.8330536  10.9332333
  76.8073196 179.8331451  10.5515318  77.5586472 181.3126831  10.7309160
  76.1703186 180.8277588  12.3370419  76.7280884 180.1920929  12.7913685
  74.1412354 180.8014069  10.3579426  73.9455948 179.6790771   9.9663782
  73.3016357 181.4509583  11.1053782  73.5555191 182.3833160  11.3992281
  71.9149857 180.9559937  11.4350033  71.8169937 179.8769836  11.3156757
  71.5574493 181.2100220  12.8877048  71.8315964 182.2559509  13.0254602
  70.4967575 181.0347290  13.0674763  72.4403152 180.4365997  14.0089102
  73.4589691 180.8244781  14.0081825  71.9680176 180.7148132  15.4602680
  70.9218674 180.4228363  15.5520563  72.6180344 180.2084045  16.1738091
  71.9391327 181.7823029  15.6786880  72.4419479 178.8943329  13.7090025
  72.9035950 178.7314606  12.7351170  73.0273056 178.3241577  14.4303617
  71.4338455 178.4831390  13.7616386  70.8157578 181.5975037  10.5447702
  70.9467316 182.7335052  10.0362720  69.7141495 180.8337250  10.2826166
  69.5298843 179.3766632  10.4031277  69.1743774 179.2381592  11.4241724
  70.4736328 178.8952637  10.1467953  68.4216461 179.0277863   9.4330473
  67.9276047 178.1396790   9.8271294  68.9333267 178.9840240   8.4716063
  67.5694427 180.2937469   9.2737522  66.7925797 180.2778320  10.0381708
  67.1957779 180.2582855   8.2504148  68.5922165 181.3972015   9.5215683
  68.9797134 181.7745972   8.5752478  67.8119507 182.5271759  10.2350826
  67.7389755 182.5335541  11.4782963  67.2131119 183.3947906   9.4323215
  67.3235092 183.2368317   8.4408770  66.2522736 184.4875031   9.8799000
  66.6134415 184.6718903  10.8916626  66.4194336 185.7580109   9.0690489
  65.7881622 186.5639954   9.4432077  67.8512802 186.2549896   9.2622242
  68.6367111 185.5912933   8.9007006  67.9633865 187.1888580   8.7113724
  67.9092331 186.4676056  10.3297138  66.2850189 185.4946594   7.6866527
  66.5691452 186.2133331   7.1171036  64.7951279 184.0392456   9.9397268
  63.9979973 184.5020905  10.7421198  64.4245682 183.0402222   9.0798149
  65.0786896 182.6408997   8.4219532  63.0786209 182.4565125   8.9107885
  62.3713379 183.2645264   9.0977869  62.9119034 181.8498383   7.4930525
  63.3087578 182.4982452   6.7119141  63.4700966 180.9137268   7.4783416
  61.4504356 181.7352142   7.1783118  60.6268005 182.5959320   7.3719087
  61.0646019 180.5227356   6.7287712  60.1412010 180.4119720   6.3348660
  61.7971230 179.8290100   6.7763295  62.8218079 181.4386749   9.9924927
  63.6461220 180.5390930  10.1322861  61.7286339 181.5198975  10.7855244
  60.7777557 182.6485443  10.8186769  60.5861588 183.1562042   9.8733349
  61.1286049 183.4792175  11.4310408  59.5966988 182.0422821  11.5629892
  58.9018478 181.5034790  10.9188099  59.1346130 182.8321991  12.1551256
  60.1590233 181.1729126  12.6438951  59.4344139 180.3854980  12.8512974
  60.4875984 181.7439575  13.5122528  61.4481659 180.6588440  11.9549065
  62.2750244 180.6892700  12.6644707  61.2905846 179.1838379  11.6260281
  61.7767830 178.2900696  12.3544741  60.7498932 178.8638000  10.4252949
  60.4266281 179.6347809   9.8585672  60.5855370 177.4766846   9.9793072
  59.9922867 176.9406128  10.7201080  59.8843460 177.4373932   8.6142435
  60.3769913 178.2080841   8.0214090  60.0268898 176.1550140   7.8603482
  59.7318230 175.2689209   8.4223661  59.4792252 176.0868683   6.9203911
  61.0591507 176.1710052   7.5106535  58.3606377 177.6694183   8.6797190
  57.7687950 177.2510223   7.8656092  57.9693871 177.2213440   9.5930948
  57.9978027 179.1291504   8.6465683  58.5025406 179.6647186   7.8425150
  56.9178696 179.2280273   8.5367289  58.3147697 179.6090851   9.5724716
  61.9613571 176.8157043   9.9927769  62.1641922 175.8377380  10.7095404
  62.8524208 177.3678589   9.1920967  62.4937935 178.1522369   8.6665115
  64.2348633 176.9349365   9.0174179  64.2498474 175.9414673   8.5691795
  65.0098953 177.8177795   8.0475130  65.1491623 178.8069763   8.4836054
  65.9376068 177.2883606   7.8303604  64.2672501 178.0841827   6.7121210
  63.0531998 178.4659424   6.6774325  64.9517517 177.9422607   5.6647973
  65.0621185 176.7732391  10.2677698  65.7607117 175.8003082  10.4502974
  64.9560699 177.7874756  11.1530113  64.3444366 178.5242157  10.8317385
  65.6165161 177.9266052  12.4082947  66.6900406 177.7415314  12.3710690
  65.3870468 179.3479919  12.9076109  65.7514572 180.0105591  12.1225548
  64.3287125 179.5670319  12.7660456  65.8718414 179.6296844  14.3114290
  65.0373993 179.2721558  15.3711376  64.0710907 178.8446808  15.1477442
  65.4050827 179.6323547  16.6632309  64.7628632 179.3963623  17.4988499
  66.5938644 180.3295898  16.8861027  66.9121780 180.5972290  17.8828182
  67.4883652 180.6064148  15.7999573  68.4658432 181.0011292  16.0347576
  67.1021042 180.2572327  14.5445337  67.7623138 180.3168793  13.6919069
  65.1308594 176.8388214  13.3621883  65.8268204 176.0747833  13.9572067
  63.8183556 176.6616669  13.4842367  63.1512337 177.3238678  13.1147213
  63.2927856 175.6080475  14.3017521  63.8180199 175.7010498  15.2523212
  61.8687782 175.8079376  14.5957785  61.5074692 175.2564697  15.4637899
  61.6609154 176.8395844  14.8796740  61.1226654 175.5081940  13.4135656
  60.9837074 176.3046417  12.8959103  63.6962318 174.1888885  13.8385258
  64.0703049 173.3024750  14.6479292  63.6329269 173.9487152  12.5114698
  63.1188545 174.6014557  11.9372282  64.1004028 172.7610931  11.8474360
  63.5047874 171.9524536  12.2710228  63.7783546 172.8886566  10.3154840
  63.9381065 173.9270782  10.0251760  64.5006943 172.2638245   9.7902155
  62.4432487 172.4426727   9.7974577  61.7054214 171.3978119  10.3880205
  62.0312805 171.0891571  11.3703356  60.5283813 170.8975067   9.7979784
  59.9020424 170.1734467  10.2978153  60.1184921 171.4387970   8.5754957
  58.8965187 171.0409088   8.1008959  58.6188507 171.8027649   7.5870171
  60.8619843 172.4111023   7.8824711  60.4719849 172.7102814   6.9208064
  62.0105896 172.9009247   8.5296822  62.6493301 173.5886078   7.9953609
  65.5545425 172.4704742  12.1991577  65.8608017 171.3822327  12.7072554
  66.4750519 173.4222107  12.0651369  66.2213669 174.3033447  11.6416416
  67.9021225 173.2974396  12.4480877  68.3864746 172.4969482  11.8888903
  68.6161575 174.6937256  12.2193317  68.5616226 174.9566498  11.1629219
  68.1337585 175.5359344  12.7154016  70.0690918 174.6966095  12.6232042
  70.4682159 175.6904297  12.4204121  70.1844711 174.4810791  13.6854372
  70.9625244 173.7791443  11.7064428  71.9164886 173.7775879  12.2337561
  70.6279221 172.7428589  11.6591368  71.0717316 174.3846283  10.3653193
  70.3206787 174.0964813   9.7545948  72.0060196 175.2805023   9.9381342
  72.9730835 175.8172913  10.7075014  72.9674225 175.5822754  11.6897631
  73.6667404 176.4372559  10.3143435  72.0915451 175.6186371   8.6885796
  71.5227737 175.1252747   8.0153818  72.8529053 176.2343597   8.4409876
  68.0282593 172.8390350  13.9819536  68.7932816 171.9028778  14.2800455
  67.2565460 173.3610077  14.9072323  66.6976242 174.0961151  14.4981756
  67.3748474 173.1447601  16.3517971  68.4284897 172.9794006  16.5767345
  66.9934006 174.4120026  17.1606426  66.0565262 174.8233032  16.7848797
  66.9341965 174.2297821  18.7389088  67.9369202 174.1959686  19.1649399
  66.3820953 175.0840759  19.1306515  66.4475937 173.3371887  19.1321049
  67.9632187 175.5679474  17.0204754  67.9134216 175.7144775  15.9415169
  67.5241547 176.4429016  17.4998207  68.9806366 175.4022369  17.3747540
  66.7089615 171.7837524  16.7482700  67.2884445 171.0302582  17.5226421
  65.5022278 171.4819641  16.1883068  65.1330719 172.1814880  15.5602236
  64.8827362 170.1397247  16.2675915  64.7215118 169.8422089  17.3037395
  63.4480209 170.1637573  15.6747808  63.5572891 170.5789032  14.6728706
  62.9995079 169.1712646  15.6312971  62.7642975 170.7974854  16.2395935
  65.8136978 169.0087891  15.6415081  65.8613052 167.9506531  16.2937145
  66.5034485 169.2710724  14.5275154  66.3518753 170.1558380  14.0645752
  67.5020294 168.3787994  13.9782896  66.9960022 167.4429321  13.7412081
  68.0549850 168.9865112  12.6765347  68.2785950 170.0463562  12.7984066
  69.0284653 168.5101624  12.5601845  67.4292679 168.8388519  11.7963200
  68.5434113 168.1736298  15.0713120  68.8327560 167.0518494  15.4832811
  69.1591034 169.2573090  15.5720196  68.9358673 170.2113647  15.3270149
  70.3537750 169.0569153  16.4246769  70.7322311 168.0961914  16.0756054
  71.4228287 170.0659943  16.1109772  72.3437195 169.8098297  16.6348457
  71.7643890 169.9248352  15.0855417  70.9385834 171.6950836  16.4442005
  70.3287811 172.0026550  15.2959661  70.1588898 168.9011078  17.9178524
  71.1173630 168.6607513  18.6649780  68.9256516 168.9442749  18.4766712
  68.1418228 169.2090759  17.8973637  68.6174316 168.7357635  19.8633175
  69.2764359 169.3740540  20.4518814  67.1501999 169.1309052  20.1036758
  66.5833664 168.9411926  19.1921921  66.7539825 168.4183502  20.8271275
  66.8716660 170.5749359  20.5420170  67.4502716 171.2562256  19.9181767
  65.4072571 170.8902588  20.6587734  64.9323425 170.3638153  21.4866714
  65.3441162 171.9551392  20.8826675  64.9759750 170.6486511  19.6873226
  67.4683075 170.7783508  21.9873562  68.5556793 170.7537384  21.9158173
  67.0870132 171.7414246  22.3267555  67.1397629 169.9884491  22.6628056
  68.8044357 167.2522736  20.3827896  68.4198761 166.2802582  19.7052135
  69.4061050 167.0137482  21.5119991  70.0660324 168.0812073  22.2853470
  69.3201752 168.7276764  22.7478275  70.7467651 168.6582031  21.6594219
  70.8770370 167.3972473  23.3587570  70.2392807 167.2722015  24.2338181
  71.7555923 167.9983978  23.5929680  71.1581879 166.0344391  22.8385696
  71.3653412 165.3332367  23.6469707  72.0054016 166.1240082  22.1586475
  69.9205627 165.7191010  22.0165462  70.1838074 165.0587158  21.1902943
  68.8183289 164.9656830  22.8157711  68.6764069 165.0248413  24.0652542
  67.8983002 164.1858978  22.1011238  67.9349747 164.0603485  21.0996284
  66.6775131 163.5303192  22.7048531  66.8872452 163.3177490  23.7531490
  65.4780579 164.4873352  22.5892410  64.5331650 163.9473572  22.5283699
  65.2637405 165.3198395  23.8410416  65.9354172 166.1774902  23.8783112
  64.2243271 165.6459656  23.8780384  65.3832855 164.7314148  24.7507591
  65.5021820 165.3310089  21.2708454  66.2577286 166.1089630  21.3805408
  65.7392120 164.6827240  20.4272556  64.1240997 165.8580322  20.9425201
  63.7386055 166.5460052  21.6949749  64.2090225 166.4431458  20.0268078
  63.4448967 165.0190125  20.7914066  66.4230499 162.2326050  22.0802860
  67.0068512 161.8926697  21.0263882  65.6929169 161.4123840  22.8389893
  65.2468872 161.7610168  23.6754208  65.3710709 160.0039520  22.4496841
  66.2851410 159.5222931  22.1024208  64.8568649 159.2796326  23.6667633
  64.6006927 158.2359772  23.4843445  65.6600494 159.2949677  24.4034882
  63.7226448 159.8981171  24.3077202  63.8857765 160.9752808  24.9125977
  62.5767632 159.3378906  24.3308201  64.3611145 159.9771118  21.2631550
  63.7916107 160.9828796  20.8721447  64.2118835 158.7775421  20.6476440
  64.7509766 158.0042877  21.0103436  63.4111176 158.6882324  19.3663425
  63.7928314 159.4546814  18.6918373  63.7202415 157.4018097  18.5843430
  63.3735542 156.5342102  19.1457500  63.3406258 157.3403015  17.5644360
  65.1818008 157.2326050  18.3824368  65.8029404 158.1654358  17.7721386
  65.7534943 156.2387543  18.8823719  61.8713684 158.9397125  19.4084377
  61.2019386 159.6238098  18.6497631  61.2696877 158.5305328  20.5856152
  61.7839355 158.1083832  21.3455105  59.8331871 158.7590485  20.7968178
  59.3079071 158.3134460  19.9520626  59.4503098 157.8983002  22.0150738
  59.9404678 158.2593994  22.9192028  58.3788109 157.8601379  22.2113762
  59.7823334 156.8703156  21.8697414  59.4722176 160.2751007  20.9732685
  58.5493889 160.7364655  20.2596016  60.3945541 161.0792847  21.5703201
  61.2218437 160.6769409  21.9872265  60.4257774 162.5447845  21.5968437
  59.3644981 162.6914062  21.7975731  61.2188911 162.8934784  22.8697910
  60.7592812 162.3352661  23.6854267  62.2645493 162.6061554  22.7596073
  61.1095543 164.3794403  23.2485600  61.7302055 165.0552521  22.6601849
  59.6774673 164.8884583  23.3757820  59.1071587 164.1956329  23.9945335
  59.6319733 165.8551025  23.8773975  59.2875557 165.1253052  22.3858452
  61.6413002 164.4250336  24.6983490  62.6120949 163.9528503  24.8490353
  61.7498665 165.4835205  24.9348316  60.9099083 164.0854034  25.4317131
  60.7954292 163.2555084  20.3281727  60.0787926 164.2113953  20.0133781
  61.7228737 162.7829895  19.5232220  62.1385345 161.9735107  19.9614697
  62.0054092 163.2023621  18.1385460  62.0376587 164.2880859  18.0475903
  63.3727303 162.6558075  17.6528854  63.3602028 161.5659027  17.6464596
  63.5271568 163.0086975  16.6332169  64.4863739 163.2500000  18.5149879
  64.5477524 164.3330536  18.4085503  64.3106003 163.0136414  19.5644341
  65.8583374 162.7669373  18.1329632  66.5992508 163.1351013  18.8426113
  65.8147888 161.6852264  18.2599068  66.3615646 162.9669952  16.7120056
  66.2987061 162.1436005  16.1304779  67.1534882 163.9853821  16.3390179
  67.3556595 165.0306091  17.0583706  66.7221985 165.2838440  17.8031540
  67.8457336 165.8220367  16.6664810  67.8350983 163.9373627  15.2341633
  67.9374619 163.0635986  14.7380133  68.3544769 164.7376099  14.9025707
  60.8736763 162.8857117  17.0921688  60.7005043 163.7366791  16.2135792
  60.0215225 161.8510284  17.2957230  60.3095703 161.1020355  17.9090233
  58.7194138 161.6978302  16.7233620  58.8277130 161.8548889  15.6501827
  58.2465477 160.1794434  16.9552212  58.5851974 159.9608917  17.9679699
  56.7580872 159.9264679  17.1059647  56.2786217 160.2442017  16.1800804
  56.5412445 158.8678894  17.2491379  56.4799881 160.4464111  18.0227051
  58.7709084 159.2128448  15.8458910  58.1231232 159.2305603  14.9694424
  59.7185745 159.5801849  15.4520674  58.9774704 157.7342529  16.3231239
  58.0199776 157.2877808  16.5913887  59.2979088 157.1115875  15.4878321
  59.6845093 157.6553955  17.1489429  57.6695747 162.7326202  17.1598377
  56.9736176 163.2886353  16.2912312  57.4359970 162.9076538  18.4726944
  57.8698883 162.2768097  19.1313934  56.4915352 163.8983002  19.0117474
  55.4868202 163.5892487  18.7234211  56.4263611 163.9421844  20.6023636
  57.3878326 164.1535339  21.0703316  55.7520103 164.7468414  20.8953896
  55.9222221 162.6757355  21.3359871  56.4873695 161.7975311  21.0238228
  56.1207314 162.8465271  22.3940620  54.4683990 162.2550354  21.1024399
  53.7855072 162.6055756  20.1494408  53.9678268 161.5283966  22.0353355
  53.1005478 161.0457458  21.8483391  54.4654388 161.2557983  22.8709030
  56.8468742 165.2743988  18.4628258  55.9730072 166.0016174  18.0906677
  58.1151733 165.6713257  18.4422092  58.7441864 165.1658325  19.0495930
  58.6298294 166.9695740  17.9082851  58.0954781 167.7678528  18.4233646
  60.1062431 167.1757355  18.3228474  60.2018738 166.8705902  19.3648834
  60.7328224 166.5463409  17.6909046  60.6753998 168.5736847  18.1512127
  60.6670074 168.7774200  17.0804520  59.7977257 169.6649780  18.7611732
  59.6619186 169.4846191  19.8275337  60.2509079 170.6486511  18.6382389
  58.8509750 169.7539368  18.2283916  62.0496712 168.6892548  18.7572784
  62.7483406 167.9818268  18.3106155  62.4098434 169.7132568  18.6581898
  62.0531616 168.5315704  19.8358059  58.4700661 167.0508881  16.3914394
  58.0430946 168.0864868  15.8951406  58.8995399 166.0320892  15.6542206
  59.3325310 165.2523651  16.1281891  58.7287750 165.9017334  14.1790218
  59.2875595 166.7218475  13.7281542  59.2897949 164.5876465  13.6391430
  60.3757172 164.6781616  13.6651545  58.8183060 163.8514099  14.2900991
  59.1063118 164.0194092  12.2030945  58.0343208 163.8874512  12.0563879
  59.7429810 164.9055176  11.2016935  60.8209038 164.9781036  11.3462715
  59.5493050 164.6058044  10.1717596  59.4175072 165.9430237  11.2774763
  59.9471321 162.7007599  12.0063906  59.5786476 161.9174500  12.6687756
  59.8669090 162.2711334  11.0078487  60.9955482 162.8355560  12.2723875
  57.2627640 166.0874481  13.8309021  57.0191879 166.4946747  12.6935043
  56.3007278 165.6338654  14.6123238  56.5500908 165.2082672  15.4936724
  54.8762398 165.7331085  14.2713575  54.6500282 165.3119202  13.2917986
  54.0557976 164.9576111  15.3481426  54.5579338 165.0914612  16.3062878
  53.1008148 165.4397125  15.5571527  53.6646004 163.4809723  15.1244421
  53.1619072 163.3122559  14.1721134  54.5327339 162.8279266  15.0350723
  52.6912308 163.0639038  16.3191624  53.2606544 163.0095978  17.2470150
  51.9874840 163.8334198  16.6364822  51.9600677 161.7342987  15.9944305
  51.5591507 161.8642120  14.9891996  52.7444992 160.9942780  15.8359184
  51.0045586 161.4609375  17.0046329  50.2807999 162.1641541  16.9627743
  50.5714569 160.5901947  16.7319813  51.4328651 161.3517914  17.9127865
  54.3517647 167.1591492  14.1159363  53.2170982 167.3699799  13.5748825
  54.9971428 168.0810089  14.9369841  55.9215240 167.8719025  15.2861195
  54.3937607 169.3403931  15.3900490  53.3903389 169.1663666  15.7785892
  55.2632523 170.0703125  16.4441109  56.2644920 170.3293304  16.0998287
  54.5914841 171.4087524  16.7624493  53.5092125 171.3870850  16.8901958
  55.0218468 171.8171844  17.6768188  54.7203522 172.1526031  15.9761915
  55.4504471 169.2192688  17.7071495  55.9992180 168.3365021  17.3789978
  56.0721817 169.8548126  18.3377209  54.1059952 168.9402618  18.4325027
  53.4292488 168.3453674  17.8191357  54.3678207 168.3069916  19.2801571
  53.6335182 169.8450470  18.8149300  54.2701874 170.2933960  14.1442347
  55.1725998 170.3312988  13.2934914  53.1044579 170.9578857  13.9669113
  52.4419098 170.9594116  14.7292261  52.6110497 171.4689636  12.6473036
  52.8498383 170.7357330  11.8769464  51.5283775 171.4764099  12.7732534
  53.1488037 172.8691101  12.3353472  53.7106895 173.0351257  11.2632551
  53.0319786 173.8301086  13.2956314  52.6214600 173.5149536  14.1629581
  53.6612892 175.1589203  13.1068401  53.8318367 175.3153381  12.0416908
  52.7789917 176.2351074  13.6800690  51.8659363 176.4667053  13.1316137
  52.5611877 175.8759766  14.6858959  53.4222984 177.5252991  13.6494417
  53.0544815 178.0582886  12.9407539  55.1044693 175.1912689  13.5938139
  55.3504677 174.5034180  14.6069660  55.8824463 176.1829834  13.1147299
  55.6164360 176.7300568  12.3084707  57.1087914 176.6286163  13.7768402
  57.7591019 175.7592010  13.8734131  57.8688507 177.6410675  12.9192142
  57.1702423 178.2767334  12.3751717  58.5942688 178.2587280  13.4487143
  58.2394524 177.1248169  12.0336456  56.8546906 177.2224274  15.2010822
  57.7366867 177.0865936  16.0498486  55.6996078 177.8555298  15.4023428
  55.1197090 178.0653381  14.6024666  55.4003029 178.3877258  16.7226257
  56.1852875 179.0914917  16.9994106  54.1315994 179.2570190  16.7250233
  53.3947029 178.5735016  16.3032379  53.6576881 179.6013794  18.1653175
  54.4462509 180.1222534  18.7084293  52.7794189 180.2462158  18.1956997
  53.4587135 178.7103577  18.7608089  54.3164177 180.5118713  15.7944326
  54.9365120 181.2152863  16.3501320  54.8169975 180.2221222  14.8705454
  52.9819794 181.1457672  15.4369078  52.5628624 181.6170654  16.3259048
  53.1347427 181.9305878  14.6960812  52.3259773 180.3605194  15.0612030
  55.4222221 177.2469025  17.7642326  56.1738968 177.3001099  18.7089367
  54.5790672 176.2284088  17.5922871  54.0185165 176.1609802  16.7548275
  54.4714470 175.0836792  18.5241127  54.3726425 175.2696838  19.5935726
  53.4350090 174.1813202  17.8652840  53.8111649 173.9465790  16.8695393
  53.3177109 173.2610779  18.4375668  51.9998398 174.6848297  17.7123680
  51.5631409 174.6510162  18.7104912  51.9692116 175.7135620  17.3533764
  51.1618958 173.9855499  16.6447945  51.6298370 173.3102722  15.7533922
  49.8313751 174.1200409  16.6529007  49.2854576 173.6075897  15.9750538
  49.4503098 174.8240509  17.2687340  55.7725029 174.3751221  18.5792599
  56.2035370 173.9203796  19.6652126  56.4890213 174.1303406  17.4282703
  56.1713829 174.4175415  16.5135460  57.8320427 173.5174255  17.4850273
  57.6757812 172.5443573  17.9506874  58.2771187 173.2409210  16.0023041
  57.3324432 172.9776611  15.5265064  58.7164688 174.1396790  15.5695057
  59.2262077 172.0001373  15.8768234  60.2439346 172.1861877  16.2199211
  58.8625526 171.1993561  16.5207081  59.2102432 171.4197693  14.4433279
  59.9724159 170.6406097  14.4528580  58.2342262 170.9993744  14.2009401
  59.6523972 172.4454498  13.4550819  60.5480156 172.8794861  13.6270723
  58.9946785 172.8122253  12.3923531  57.8547783 172.3255157  11.9878969
  57.3625908 171.6548615  12.5606909  57.4364777 172.6524811  11.1286983
  59.5336990 173.7307281  11.6560736  60.3661346 174.2341614  11.9275408
  58.9741974 173.9853668  10.8546896  58.8276253 174.2434692  18.4121819
  59.3837280 173.5888672  19.2673054  58.9669495 175.5236053  18.3007469
  58.6226807 176.0563354  17.5147572  59.7629700 176.4521332  19.1902084
  60.7541237 175.9998779  19.2246361  59.7565727 177.9160004  18.7535706
  58.7041702 178.1884155  18.6739578  60.2951851 178.5850067  19.4247074
  60.3022079 178.2988129  17.3876743  60.1448631 177.5281525  16.6330738
  59.5737495 179.5467987  16.7804775  60.0376892 180.4435577  17.1912193
  59.7369766 179.6189117  15.7051830  58.5169525 179.5640717  17.0469017
  61.8409004 178.4611664  17.4036236  62.2958679 177.5159302  17.6996555
  62.2155991 178.7897491  16.4342251  62.1189728 179.2585449  18.0927944
  59.4001732 176.3330688  20.6570721  60.2516670 176.1782990  21.4673882
  58.1273232 176.3264771  20.9636517  57.4619789 176.3534393  20.2042446
  57.5508156 176.1163788  22.2943974  57.9089279 176.8207092  23.0452538
  56.0401154 176.2489777  22.1341496  55.6720924 175.7137909  21.2588100
  55.6238060 175.7913971  23.0315952  55.5300255 177.7423706  22.0750389
  55.7600632 178.1197968  23.0713997  56.0579605 178.2733459  21.2829151
  53.9734077 177.7676086  21.8830299  53.6054420 178.7935944  21.8913765
  53.7019463 177.3710632  20.9046822  53.3194809 176.9392395  22.9495068
  53.2674789 175.9628296  22.6965141  53.0290184 177.2857819  24.1371384
  53.1767731 178.5002136  24.5821838  53.4856377 179.1818848  23.9039268
  52.8490944 178.7749329  25.4971981  52.5141182 176.4512787  24.9686604
  52.2659378 175.5012817  24.7319603  52.3829346 176.7391052  25.9278507
  58.0135612 174.7871552  22.8864365  58.4963570 174.7157440  24.0285416
  57.9666672 173.7549286  22.0284004  57.6021309 173.8679352  21.0932846
  58.2903824 172.3899536  22.4261322  57.6348991 172.3072357  23.2930813
  57.7920647 171.4804840  21.3059196  56.7886276 171.7689362  20.9928646
  58.4275284 171.6514130  20.4369736  57.9482536 169.8604584  22.0414886
  57.6242638 169.1582336  20.9520817  59.8251038 172.2632446  22.6298866
  60.3209419 171.8417358  23.6588249  60.6558762 172.7667542  21.6473808
  60.2420235 173.0860291  20.7831554  62.1260033 172.9996643  21.8174133
  62.6980591 172.0726013  21.7798576  62.7210655 173.7595215  20.6258259
  62.0726814 174.6176910  20.4491043  63.7204056 174.1022644  20.8940487
  62.6892929 172.9931183  19.3020573  63.5270767 172.2963867  19.3300724
  61.8021927 172.3654633  19.2171516  62.6391106 173.9911804  18.1444950
  63.4578743 174.9381866  18.0179577  61.8024368 173.6853027  17.2774239
  62.4797592 173.7504578  23.1042862  63.3615913 173.3048706  23.8985729
  61.8381462 174.8468475  23.4535408  61.1162987 175.1568909  22.8187943
  62.0529175 175.5418701  24.6991920  63.0941391 175.8227081  24.8575935
  61.3496819 176.9233704  24.5514469  60.2803230 176.8419647  24.3566341
  61.4013557 177.4365997  25.5116673  62.0101242 177.8177338  23.4994869
  62.3019829 177.2377014  22.6239891  61.0797234 178.9302368  23.1064491
  60.7549286 179.6631165  23.8450222  61.6676674 179.4149170  22.3270206
  60.2482758 178.4997711  22.5483322  63.2350235 178.5599060  24.1233273
  63.9570923 177.8083649  24.4425678  63.7662277 179.2262421  23.4436760
  62.9691734 179.2069855  24.9592190  61.5797119 174.8297577  25.9910450
  62.1740150 175.0263519  27.0518646  60.5202637 173.9832764  25.9220409
  60.0127144 173.9006195  25.0527534  60.0585403 173.1852264  27.0522823
  59.9392014 173.8175507  27.9320621  58.6416245 172.7039337  26.7304630
  58.0700798 173.6052551  26.5089378  58.6667290 172.0927582  25.8282757
  57.9399261 171.9467010  27.8368797  58.5395432 171.7843475  28.9324646
  56.8676605 171.3855743  27.5951443  61.1644859 172.1025696  27.3438549
  61.7283401 171.9453735  28.4098454  61.6220360 171.4199066  26.2755241
  61.1595039 171.6698456  25.4131451  62.7766304 170.5234985  26.3060875
  62.4858665 169.7919312  27.0599728  62.9941483 169.7529144  24.9658470
  63.0897408 170.4560852  24.1385002  64.2101059 168.8967896  25.0448437
  64.1814346 168.1023865  25.7906265  64.4329529 168.2917023  24.1660252
  65.0450211 169.5485840  25.3021107  61.7270470 168.8748322  24.6731930
  61.7489319 167.9468994  25.2446480  60.8415909 169.4003296  25.0308456
  61.5172844 168.5319366  23.1816673  62.3173141 167.8632965  22.8639317
  60.4999886 168.1752167  23.0205383  61.6416245 169.4277802  22.5732994
  64.0671005 171.2214813  26.8578892  64.7236710 170.6886749  27.7593708
  64.5217285 172.3864288  26.3916397  64.0627213 172.7569733  25.5718136
  65.6564255 173.1666260  26.9392796  66.5476379 172.5394745  26.9167213
  65.9790955 174.4477081  26.1653557  65.1148300 175.1111603  26.1339684
  66.7561188 174.9832764  26.7108078  66.4872437 174.1100769  24.7032623
  67.4706802 173.6447601  24.7697544  65.6979828 173.4222717  24.3998222
  66.5113068 175.6080933  23.5929565  67.7546387 175.0971069  22.3168755
  67.3010483 174.9368591  21.3387794  68.4675140 175.9166565  22.2261124
  68.3111954 174.2208099  22.6491737  65.4615097 173.5838623  28.3922749
  66.4901581 173.7386322  29.1253681  64.2549896 173.8230743  28.8628750
  63.4196854 173.8496246  28.2957211  64.0826569 174.1286316  30.2863598
  64.8597565 174.8054352  30.6415520  62.6970444 174.6755676  30.5803852
  62.0909309 174.0866241  29.8920002  62.4547844 174.4903412  31.6268559
  62.5141106 176.1493835  30.2758503  63.4419365 176.9366455  30.3491096
  61.2975845 176.5296173  29.9300938  61.2565575 177.5010986  29.6568737
  60.5739250 175.8320312  29.8311710  64.3339920 172.8587341  31.1291676
  65.1321716 172.8163452  32.0589142  63.7060814 171.7292938  30.6932449
  63.0308762 171.8846893  29.9583683  63.5732613 170.3951263  31.4814987
  63.4838181 170.6248322  32.5432587  62.3105965 169.7490234  31.0507812
  62.2336655 169.8656616  29.9697723  62.3740273 168.6806641  31.2573929
  61.0563469 170.3285217  31.7394123  61.0652695 170.1388855  32.8127518
  61.0006485 171.4154663  31.6796684  59.8682175 169.6946869  31.0944977
  59.7222977 169.8718567  30.0289364  59.7994804 168.6072083  31.1221256
  58.6460342 170.3191223  31.7569351  58.3978500 169.8651276  32.7163086
  58.8195381 171.3759155  31.9598942  57.4668961 170.1620331  30.9080601
  57.4679985 169.2616272  30.4504986  56.6418495 170.3351288  31.4643307
  57.4519196 170.8994446  30.2180595  64.7276459 169.3877869  31.3405132
  64.7796249 168.4176788  32.1114311  65.5650711 169.5167389  30.3195057
  65.4346390 170.2326050  29.6190491  66.8290710 168.8064575  30.2036114
  66.7210770 167.8000793  30.6081429  67.2291946 168.7867432  28.6543694
  66.4052811 168.3273621  28.1082535  67.4733810 169.8067627  28.3576984
  68.7749100 167.9156647  28.4346409  69.1513214 168.3767090  27.2385502
  67.9430161 169.3957672  31.1621952  68.2419052 170.5837250  31.2341156
  68.6335602 168.5193787  31.9195766  68.4011536 167.5371704  31.8827267
  69.7507782 168.8261719  32.7584381  70.2719955 169.7476654  32.4990692
  69.4340973 169.0809479  34.2440224  70.4090118 169.2338409  34.7069130
  68.6435013 170.3658142  34.5700417  67.7716064 170.4420013  33.9203529
  68.4190140 170.4766235  35.6309013  69.3226700 171.1802368  34.3179626
  68.7601395 167.9478607  34.7671051  68.2476730 168.2079773  35.5360756
  70.8433609 167.7247162  32.6443062  71.8610611 167.9646912  32.0365944
  70.6155167 166.5009460  33.2192650  69.7883224 166.5062408  33.7987785
  71.4062195 165.3538361  33.1180687  72.4573975 165.6419525  33.1284828
  71.2682571 164.5328827  34.3905411  71.7023087 165.0770416  35.2293396
  70.2146301 164.3840485  34.6267853  72.0034561 163.2806549  34.3506546
  71.3294830 162.6286774  34.5562668  71.1847839 164.5055695  31.8038464
  70.1106491 164.4192810  31.2738781  72.1809311 163.7670135  31.3588161
  73.0488815 164.0482330  31.7920265  72.1216736 162.7247162  30.2951813
  71.0954056 162.3830261  30.1606083  72.6910706 163.2964783  28.9654007
  73.7499161 163.4461823  29.1764584  72.7407990 162.5505981  28.1721210
  72.0040894 164.5812378  28.4207840  71.7715607 165.3177032  29.1899700
  72.8729248 165.4407806  27.4024143  73.4507828 164.8675232  26.6774654
  72.2333679 166.1837006  26.9258080  73.7439499 165.8573151  27.9083004
  70.8039246 164.1872864  27.5627708  70.1689682 163.4554443  28.0621109
  70.2008514 165.0775452  27.3843250  71.1240234 163.7472229  26.6183281
  72.9850082 161.5153503  30.6421146  74.1974487 161.5028992  30.8306751
  72.1868973 160.4133911  30.9143181  71.1805496 160.4973755  30.9321384
  72.8515091 159.1728668  31.3484020  73.8498154 159.3654175  31.7413712
  71.9598236 158.6404419  32.5080376  70.9620819 158.3654938  32.1659622
  72.3690109 157.6673889  32.7798195  71.9671097 159.8368530  33.9089813
  71.1978378 159.0032501  34.6148338  72.9357834 158.0691986  30.2247524
  72.3783493 158.2831573  29.1163425  73.5493851 156.9387817  30.4968967
  73.9050369 156.8026733  31.4323597  73.5537643 155.7068939  29.6653347
  73.6858063 156.0282288  28.6321793  74.6891479 154.7776337  29.9569893
  75.6370163 155.2895050  29.7907906  74.6232605 154.5276794  31.0158978
  74.6199036 153.2618866  29.0124893  75.4044647 152.5306702  29.8091526
  72.1516724 155.0602875  29.7017193  71.6693039 154.8088226  30.7978935
  71.5483780 154.6702576  28.5578461  72.0739517 154.9231720  27.7332764
  70.2785339 154.0214539  28.4589005  69.5274963 154.6182098  28.9765244
  69.8919449 154.1128082  26.9781704  69.9661865 155.1338654  26.6039391
  70.6342621 153.5278778  26.4351101  68.4745026 153.5979919  26.6494751
  68.4943771 152.5548553  26.9650459  67.8097992 154.2070465  27.2621098
  68.2005310 153.5655212  25.1002979  69.0298462 152.9981689  24.6778660
  67.3013229 152.9517059  25.0479565  68.0130997 154.9584045  24.4440651
  67.3410263 155.5205231  25.0924911  68.9798203 155.4613953  24.4207478
  67.4514084 154.7839203  23.0349979  66.4695129 154.5473328  23.0390148
  67.4149780 155.6106873  22.4560204  68.0447998 154.1453247  22.5249119
  70.2565002 152.5778046  29.0201740  69.1931458 152.1235046  29.5250664
  71.3862610 151.8184814  28.9686661  72.1687469 152.1810760  28.4429836
  71.4442978 150.5184479  29.6483669  70.5412674 150.0028687  29.3215370
  72.5697556 149.6850128  29.1302872  72.4361649 149.5416107  28.0580502
  73.4684525 150.2989807  29.1892662  72.7564163 148.2732391  29.6892624
  73.1420212 148.4588165  30.6917439  71.8487701 147.6701813  29.6646709
  73.7316132 147.3757172  28.8641586  74.1481400 147.6731567  27.7518921
  74.0820923 146.2292480  29.4243793  74.8097839 145.6662598  29.0076981
  73.7573700 146.0200195  30.3575897  71.3267212 150.6072083  31.1191235
  70.6185303 149.8462067  31.7794285  71.9894714 151.6003723  31.7351475
  72.6353226 152.1834412  31.2223129  71.9015884 151.8861847  33.2078896
  71.9622803 150.9191742  33.7072067  73.1250763 152.7703400  33.5141716
  73.1473465 153.7004852  32.9463463  73.1345215 152.9620972  34.5871353
  74.6582565 151.9645691  32.9984589  74.6636734 151.0308228  33.9539566
  70.6016006 152.5755157  33.6757469  70.1385345 152.4557648  34.8193779
  70.1477585 153.3843689  32.7327423  70.5724945 153.3528290  31.8169365
  69.2419128 154.5349884  33.0072021  69.2271271 155.0782623  32.0623589
  67.8226471 153.9371490  33.3045616  67.8430862 153.4903564  34.2985764
  67.0996628 154.7513275  33.2546005  67.3557281 152.9006195  32.2769547
  67.6840363 153.2348785  31.2927933  67.9308167 151.9831848  32.4022255
  65.8886795 152.5046234  32.3476105  65.0726700 153.0029144  33.0584755
  65.5578232 151.4895935  31.5099144  64.5901108 151.2076721  31.4454594
  66.2127380 151.0841370  30.8566303  69.6691589 155.5893707  34.0181999
  69.4193115 156.7466125  33.6731377  70.5094376 155.3535461  34.9917412
  70.6521454 154.3842926  35.2372665  70.8465805 156.3656311  36.0335732
  70.3393326 157.2819824  35.7317429  70.4009323 155.9441223  37.4514427
  70.5622101 156.7417603  38.1766129  69.3290176 155.7508698  37.4096909
  71.0881958 154.6490479  38.0214043  71.7638855 153.9702911  37.2545052
  70.8850708 154.3371887  39.2236595  72.2820969 156.8689117  36.1860924
  72.5152283 157.8319244  36.9020729  73.2767639 156.1994629  35.5898132
  73.0349197 155.4654388  34.9395599  74.7180862 156.6385345  35.6090050
  74.9600830 156.7906647  36.6608582  75.5767136 155.4655914  35.1368637
  75.3182373 155.1985016  34.1121941  77.0255890 155.8064575  35.2603531
  77.3661194 155.7848816  36.2955666  77.6233673 155.0154877  34.8074455
  77.3188019 156.7362061  34.7728157  75.4310074 154.3013458  35.9385872
  75.4215393 154.5691528  36.8604240  74.8674622 157.8633881  34.7241211
  74.7383270 157.7475586  33.4869194  75.1913910 159.0102997  35.3185158
  75.1640472 159.0239258  36.3280563  75.4681625 160.2553101  34.6164894
  74.6455765 160.5042572  33.9460564  75.5750580 161.3843689  35.6596146
  74.6411667 161.3302307  36.2191010  76.3656540 161.2042389  36.3880386
  75.7560196 162.7209167  34.8578262  76.6345749 162.4959412  34.2531548
  74.9961319 162.9302826  34.1049461  76.0049667 163.9227905  35.8017578
  75.7016525 163.8434296  37.0113182  76.5359344 164.9656372  35.3251686
  76.6794510 160.0426636  33.7138290  77.7151718 159.6678925  34.1621895
  76.5675430 160.4214325  32.4195747  75.6877136 160.7849731  32.0821762
  77.7048416 160.5634460  31.5242920  78.6071091 160.2066193  32.0209846
  77.5398712 159.7180328  30.2482529  76.4945984 159.6351929  29.9505253
  78.3720169 160.2941742  29.0777225  79.4140167 160.4002075  29.3795490
  78.4628143 159.6306915  28.2176991  77.9350967 161.2303009  28.7300892
  77.9595718 158.2274628  30.3560009  77.8435440 157.8056946  29.3576317
  79.0353165 158.1468353  30.5121460  77.2591095 157.3881989  31.3867855
  76.1858826 157.3150330  31.2108994  77.8066559 156.4496002  31.4723568
  77.2942505 157.8612366  32.3681641  77.9709930 162.0433807  31.3153095
  79.1283722 162.4729309  31.3992271  76.9947205 162.8266754  30.9427509
  76.0410538 162.5137024  30.8301544  77.2019043 164.2419128  30.7083054
  78.0228348 164.5780182  31.3417130  77.6174393 164.4537048  29.2405262
  78.3895340 163.7425232  28.9469376  76.3917847 164.3032379  28.2900848
  75.5599060 164.9699554  28.5172100  76.6306000 164.4722900  27.2400894
  75.9696198 163.2996674  28.3423328  78.1385193 165.7814484  29.0175171
  79.0816040 165.7308502  29.1896267  76.0489578 165.1575623  31.0656147
  74.8945770 164.7294769  31.2662697  76.2912369 166.4518890  31.2564754
  77.1679535 166.8382263  30.9367771  75.3641434 167.5142670  31.8280735
  74.3783417 167.0655975  31.9505081  75.8902206 167.9514618  33.1359711
  75.9472504 167.0584412  33.7583504  77.2223816 168.7017365  33.1375923
  77.1429138 169.6759796  32.6552811  77.6644287 168.8739014  34.1189423
  77.9715271 168.1119995  32.6093025  74.9315414 168.8027649  33.7733040
  74.4628906 168.3324738  34.4666977  75.2179413 168.6918793  30.8151054
  76.1083145 168.8476105  29.9581451  74.1352463 169.4714355  30.9295273
  73.5012054 169.2129211  31.6719971  73.6942825 170.4359894  29.9687500
  73.4951935 169.9632111  29.0070095  72.3377914 170.9494476  30.4204826
  71.6305542 170.1930847  30.0801144  72.3205185 170.9995880  31.5091915
  72.0323029 172.3173981  29.7907276  72.7910004 173.0290222  30.1164227
  72.0904617 172.2087402  28.7077160  70.6212234 172.9018707  30.1157646
  69.9106445 172.2140961  29.6573315  70.5406952 172.8570862  31.2018623
  70.3613510 174.3403931  29.6207104  71.1566544 174.9799805  30.0034962
  70.2842865 174.3719940  28.5338974  69.0456619 174.8515930  30.1800137
  68.8663635 174.6072540  31.1434727  68.9831161 175.8457336  30.0130272
  68.2212219 174.4589844  29.7484398  74.8073273 171.5171204  29.7549725
  75.0390625 171.9317169  28.6195450  75.5090561 171.9377747  30.8378067
  75.1881104 171.6303406  31.7447720  76.4726715 173.0483551  30.7471123
  76.0274048 173.9438324  30.3135605  76.9380569 173.4268494  32.1425476
  77.5423584 172.6974487  32.6818810  77.4976807 174.3617554  32.1128540
  75.8215027 173.8472900  33.1724396  74.9158325 174.6177368  32.8612862
  75.8151245 173.3134766  34.3196068  75.0590439 173.4332886  34.9784584
  76.5633850 172.7223206  34.6523705  77.6620102 172.6706390  29.8735161
  78.2997818 173.5441284  29.2875938  77.9412689 171.3551788  29.7953892
  77.4000092 170.6919556  30.3313732  79.0860672 170.8145142  28.9933224
  79.9596481 171.4611664  29.0757160  79.5625076 169.4003906  29.4217396
  78.8416138 168.6156616  29.1923180  80.4663086 169.1328430  28.8743286
  79.9347305 169.3183441  30.8627663  79.0391464 169.4789429  31.4629707
  80.2593613 168.2962799  31.0579777  81.0972519 170.2592926  31.2749691
  81.8258896 170.8243408  30.4566708  81.3379593 170.2968140  32.5337257
  78.8760223 170.8100433  27.4682751  79.7596664 170.5094604  26.6652050
  77.6256561 170.9751129  27.0621490  76.9455032 171.1958313  27.7754345
  77.1386337 170.9579620  25.6691933  77.5149002 170.0469208  25.2038841
  75.5664520 170.8149261  25.5622253  75.1116943 171.6308441  26.1239986
  75.2202072 171.0331726  24.1142750  75.8848801 170.4475403  23.4791737
  74.1919479 170.7793121  23.8567276  75.3527832 172.0881195  23.8742428
  74.9899673 169.4832916  26.1018448  75.4565735 168.5902100  25.6861439
  75.2280197 169.5187225  27.1649418  73.5042419 169.4737244  25.9204216
  73.1789398 169.4073792  24.8822117  73.0827026 168.6373138  26.4779396
  73.1172562 170.3815918  26.3831425  77.7101364 172.1687317  24.9038334
  77.6158447 173.3126831  25.3922939  78.3027039 171.8898315  23.7586403
  78.1854019 170.9490662  23.4103470  78.9266434 172.8681641  22.9088306
  78.3777466 173.8058929  22.9953327  80.2956085 173.1298065  23.3887615
  80.5921860 174.1778107  23.4312840  80.3638077 172.8237152  24.4326801
  81.4335403 172.4248505  22.7610321  81.8948746 171.1830597  23.3048515
  81.3725052 170.7902985  24.1646652  82.8951645 170.5090179  22.6514797
  83.2290726 169.5715637  23.0711002  83.5714951 171.0243225  21.5372486
  84.4023132 170.5503540  21.0357552  83.1578522 172.2264252  20.9898243
  83.8247223 172.7408142  20.3137436  82.0825577 172.9470520  21.5863152
  81.8773804 173.9488068  21.2387676  78.8620377 172.4022217  21.4427433
  78.7477951 171.2057037  21.1086559  78.7875366 173.4499359  20.5878716
  78.7809067 174.3717651  21.0005131  78.5871658 173.2719116  19.1647816
  78.1595383 172.3072357  18.8916073  77.5588608 174.3313904  18.6808758
  77.9939880 175.3251190  18.7869797  77.3236389 174.1590576  17.6305981
  76.3998108 174.3121643  19.4707699  75.9390182 175.1410370  19.3216419
  79.8972778 173.3350220  18.4057961  80.3702316 174.3868866  17.9836979
  80.5498581 172.1450500  18.2637501  80.0666046 171.3675690  18.6904545
  81.8206711 172.0146179  17.5395889  82.4508209 172.8207092  17.9154186
  82.4155197 170.6628723  17.9656277  82.4769745 170.5641632  19.0494061
  81.7227631 169.9501801  17.5181198  83.7840576 170.3534546  17.3255978
  83.7039566 170.2714539  16.2416420  84.8790436 171.4324646  17.6088467
  85.1225662 171.5760345  18.6615505  85.7705994 171.0945282  17.0806141
  84.6111298 172.3786774  17.1387272  84.3150024 168.9916534  17.8086491
  83.5418015 168.2324829  17.6907158  85.2527390 168.7169495  17.3256474
  84.4390411 169.0020447  18.8915215  81.6116028 172.2216187  16.0471210
  82.5505600 172.6158600  15.3468637  80.3353043 172.1882019  15.5948801
  79.6129990 172.0442505  16.2860088  79.9982834 172.2601929  14.1751547
  80.8496246 172.3241272  13.4974813  79.2681351 170.9268951  13.8103781
  79.8477173 170.0432587  14.0775356  78.3288574 170.8336029  14.3554955
  79.0196228 170.8774109  12.4375896  78.8538132 169.9874725  12.1180162
  79.1178131 173.4771576  13.9041119  78.2186432 173.7921753  14.6889324
  79.2073669 173.9802856  12.6973219  79.9929886 173.7865295  12.0928812
  78.1091080 174.6955566  12.0889883  77.8336258 175.5646362  12.6863956
  78.5893936 175.3420563  10.7273703  78.7693939 174.5484924  10.0021524
  77.7065735 175.7881622  10.2694283  79.6856842 176.3677826  10.8724060
  80.5314178 175.8976593  11.3742218  80.0870514 176.8174286   9.4334812
  79.2301254 177.3147736   8.9791336  80.8799133 177.5494080   9.5873909
  80.4407196 175.9723511   8.8428354  79.2643509 177.6400757  11.5749235
  79.1422653 177.3968201  12.6303997  80.1439209 178.2838593  11.5767546
  78.3516235 178.0204468  11.1162977  76.7698059 173.9757690  11.9366465
  75.7902985 174.5518494  11.5073290  76.6143265 172.7162323  12.3144798
  77.4645462 172.2444458  12.5877018  75.2811279 172.0902710  12.4653721
  74.5465317 172.6636505  11.8999424  75.1923752 170.6665802  11.9074812
  75.9676514 170.0177917  12.3150682  74.2816315 170.2126007  12.2980423
  75.0605545 170.6443329  10.0994053  74.7806778 169.3416443  10.0015574
  74.7104492 172.1913452  13.9153633  73.5330887 171.8575745  14.1754541
  75.4208908 172.7548676  14.8922014  76.3510361 173.1040802  14.7105827
  75.0177917 172.9100494  16.2860565  75.3426819 173.8871460  16.6435890
  73.9364090 172.8479767  16.4079742  75.6833649 171.8527985  17.2131939
  76.6836166 171.2825165  16.8162613  75.2086639 171.6137543  18.4254131
  73.8344803 172.0838623  18.9549370  73.0740585 172.1303406  18.1753864
  73.8514786 173.1402893  19.2228756  73.5214691 171.2095032  20.1127605
  73.0500717 170.3109894  19.7145748  72.8846741 171.6545715  20.8772907
  74.8793182 170.8435669  20.6321239  74.7837906 169.9324799  21.2227936
  75.2876968 171.7067413  21.1577225  75.7407761 170.6883240  19.4050732
  76.7619476 170.9453430  19.6865749  75.9114532 169.2394257  18.8980007
  76.6427536 168.4159851  19.4720573  75.2195206 168.8184204  17.8654804
  74.5959320 169.5148315  17.4830570  74.9701004 167.4682617  17.4037399
  75.8446045 166.8477631  17.5995426  73.7803116 166.8950806  18.1517448
  73.9671860 167.0297241  19.2171307  72.8978195 167.4291229  17.7994633
  73.5769043 165.3809509  18.0504284  73.4762039 164.9260254  17.0650349
  74.3897629 164.9085236  18.6019478  72.1233749 164.9477997  18.8686523
  70.8510513 165.2705841  17.6413174  70.9800797 164.5387268  16.8439140
  69.8457565 165.1436920  18.0430374  70.9831848 166.2970581  17.2992840
  74.7140503 167.4862518  15.9187546  74.3162003 168.4888763  15.2464380
  75.0579681 166.4104767  15.2843628  75.6749573 165.7341766  15.7110214
  74.9322281 166.2274780  13.7894268  73.9622574 166.5936127  13.4529686
  75.9854050 167.0505219  13.0566883  76.9857330 166.6877289  13.2929811
  75.9739532 166.9290009  11.9735413  75.9387741 168.0805664  13.4101591
  74.9916077 164.7089996  13.4793091  74.9224854 163.8485565  14.3736486
  75.0388870 164.3091431  12.2060413  75.0629120 164.9976196  11.4674511
  75.0104218 162.8986053  11.7694311  74.9706192 162.2541809  12.6476259
  73.6213226 162.6581116  11.0594196  73.6053619 163.2435150  10.1401005
  73.4485550 161.6093445  10.8178558  72.7768250 162.9635162  11.6772070
  76.1688995 162.6331940  10.8118849  76.4531174 163.4629059   9.9546385
  76.8265381 161.4981689  10.9795246  76.6350327 160.9431915  11.8013630
  78.0370560 161.0323639  10.3118496  78.1305771 161.6111908   9.3929863
  79.2998810 161.3954163  11.1580172  79.3511581 160.6778717  11.9769173
  80.1490250 161.2620087  10.4877462  79.3411942 162.8038788  11.7471886
  79.4211731 163.9633942  10.9161596  79.5621262 163.8604431   9.8503571
  79.5271835 165.2444458  11.4406471  79.6460800 166.0973816  10.7889185
  79.4598923 165.4662018  12.7935085  79.5843506 166.7472382  13.2809467
  80.0393219 167.2731018  12.6190910  79.1267090 164.3415527  13.6656685
  78.9996033 164.4907227  14.7277384  79.0908203 163.0338898  13.1349001
  78.8118057 162.2299805  13.7999401  77.9977951 159.4964294  10.0833025
  77.0865173 158.8123322  10.5402632  78.9719238 158.9133453   9.3233385
  79.7370758 159.4878082   8.9998541  79.0978699 157.4607544   9.1166573
  78.5329132 156.8636475   9.8324680  78.5721970 157.0039978   7.7413092
  78.8907623 155.9815979   7.5380406  77.0513229 156.9558868   7.6419606
  76.6187134 157.9452209   7.4930921  76.6766739 156.2723236   6.8800631
  76.6124954 156.6145172   8.5795107  79.0383377 157.8966370   6.5557122
  80.0964584 157.6890259   6.3963923  78.4792786 157.5816040   5.6746297
  78.7645493 158.9145050   6.8333445  80.4891434 156.8508148   9.2603312
  81.4841995 157.4566345   8.8761806  80.6229858 155.6333008   9.8124199
  79.8033371 155.2703094  10.2777224  81.8818970 154.8285065   9.8177061
  82.6693954 155.5551758  10.0174246  81.9200592 153.8786774  10.9877596
  82.9427261 153.5196838  11.1034298  81.5922012 154.3740387  11.9016695
  80.9874496 152.6347046  10.7446451  80.3742599 152.5293884   9.6470194
  80.9231796 151.6894989  11.6405859  80.3429413 150.8704529  11.5283575
  81.4463806 151.8132629  12.4955988  82.1373749 154.2421875   8.4250984
  81.1871643 154.2937622   7.5774846  83.2556458 153.4635468   8.1847992
  84.4809799 153.4038086   8.9693327  84.5793152 152.5102234   9.5857143
  84.6975784 154.3097229   9.5354729  85.5952072 153.1331787   7.9893789
  86.4941330 152.6515503   8.3741760  85.9520798 154.0475311   7.5153513
  84.9276047 152.1804962   6.9623494  85.0166245 151.1616821   7.3394532
  85.3370743 152.1629028   5.9523382  83.5117722 152.7453613   6.9246588
  83.4254990 153.5136871   6.1563220  82.4370193 151.7187958   6.6066103
  82.1433716 151.4306183   5.4282136  81.8890915 151.0390472   7.5476513
  82.3131561 151.1462708   8.4580231  80.7726135 150.0877533   7.3728900
  81.0042496 149.5618439   6.4466786  80.7801361 149.0007324   8.4865170
  80.3342819 149.4907227   9.3520947  80.2546539 148.1123199   8.1362123
  82.2200928 148.5563660   8.8702822  83.1607132 149.2463226   9.6542158
  84.2305908 148.4732666   9.6115866  85.1521530 148.6220551  10.1547031
  84.0427017 147.4062195   8.7907124  84.7764664 146.7318573   8.6266737
  82.7784348 147.4602356   8.3101540  82.2948151 146.7999268   7.6055226
  79.3626556 150.6981354   7.1646662  78.3480759 150.0332489   7.3312583
  79.2748871 151.9623413   6.8055840  80.1215439 152.5130157   6.8003135
  78.0176849 152.6766968   6.5420728  78.2550201 153.6240540   6.0580430
  77.4549713 152.1143646   5.7969241  76.9697113 152.9279938   7.6733518
  76.0008469 153.6039276   7.4149380  77.2093811 152.5122223   8.9334478
  78.1621857 152.2531891   9.1459398  76.2960205 152.6970520  10.0489912
  75.2839661 152.3837128   9.7927513  76.7720795 151.8889160  11.2659483
  77.0027771 150.8804779  10.9225206  77.7060928 152.3139648  11.6334286
  75.7196884 151.8527222  12.3969994  74.7088547 150.9190063  12.3739691
  74.7666931 150.0805969  11.6956444  73.6280518 150.8950653  13.2688761
  72.8703384 150.1255035  13.2620392  73.5801773 151.9378815  14.2270908
  72.6227493 151.8904419  15.1842232  72.1792755 151.0470276  15.3007622
  74.6035004 152.8998566  14.2216721  74.6948547 153.6220245  15.0195055
  75.6549225 152.8715210  13.3008509  76.3557434 153.6925507  13.2665596
  76.2534485 154.1389465  10.4970608  77.3403091 154.7989502  10.5542612
  75.0736465 154.7380676  10.7726107  74.2646103 154.1349487  10.8151245
  74.8888321 156.2105408  10.9866438  75.7506943 156.6756897  10.5081816
  73.6719360 156.7995758  10.2031832  72.7787628 156.4527893  10.7228785
  73.8343735 158.3387756  10.2425528  74.7153854 158.5551300   9.6383123
  72.9526062 158.8779144   9.8962545  73.9758072 158.5640411  11.2996035
  73.5823975 156.3087006   8.7772236  74.2064819 156.8910217   8.0993547
  73.8971634 155.2750244   8.6338530  72.1362228 156.2529449   8.2400265
  71.7523346 157.2555695   8.4283342  72.1648865 155.8709564   7.2195587
  71.5136566 155.5308228   8.7682877  74.8671036 156.5655212  12.4707317
  73.9022141 156.2975311  13.1827507  76.0568237 157.0418396  12.9808598
  76.7680588 157.1717224  12.2756109  76.2955704 157.4879608  14.3495388
  75.6660461 156.9585266  15.0647316  77.7609711 157.1470184  14.6727962
  78.4333115 157.7560120  14.0684938  77.9732513 157.4123383  15.7084799
  78.0143433 155.6666565  14.6000309  77.8048019 154.7576141  15.6791992
  78.3166656 153.5912781  15.2767248  78.2829590 152.6224060  15.7526789
  78.9646530 153.7549438  14.0923967  79.5239944 153.0564423  13.6240683
  78.7820816 155.0351715  13.6572247  79.1110001 155.4642181  12.7222738
  76.0142593 158.9742279  14.3857250  76.7932129 159.7804871  13.8777571
  74.8494568 159.3619690  14.9070215  74.1254120 158.7053528  15.1614046
  74.5284500 160.6825409  15.3722486  74.8174896 161.4013367  14.6055059
  73.0000916 160.8656158  15.5272017  72.5708084 160.0668030  16.1319447
  72.9375229 161.7616730  16.1446667  72.2484818 161.0337372  14.1532192
  72.7420502 161.7725372  13.5218143  72.2196198 160.0545349  13.6752777
  70.7736816 161.3590393  14.4300127  70.2489853 161.0185852  15.4987068
  70.0808258 161.9762878  13.6050615  75.1959381 161.0198822  16.7217503
  74.8014679 160.5391998  17.7802258  76.2365952 161.8248138  16.6855526
  76.4739609 162.2074738  15.7814865  77.1119843 162.0826111  17.8617229
  76.7381744 161.4466095  18.6641407  78.6148758 161.7547455  17.7109165
  79.1698608 162.1966248  18.5384579  78.8192749 160.2477570  17.5891399
  78.4009781 159.8260498  16.6751995  79.8917542 160.0782776  17.4933720
  78.4209824 159.6333008  18.3965435  79.0994415 162.3429413  16.5669842
  79.7872696 162.9409637  16.8684063  76.9230423 163.4814758  18.3765984
  76.7318268 164.3406830  17.5345860  76.8451462 163.6586304  19.7144394
  76.8150406 162.8810883  20.3583488  76.7939911 164.9425201  20.3779926
  76.4825439 165.7695312  19.7399178  75.8039093 164.7685852  21.5622654
  74.8127289 164.7899933  21.1092758  76.0839233 163.7982635  21.9723396
  75.8286743 165.7157135  22.7586823  76.8796310 165.8326263  23.0231094
  75.2449646 167.0677338  22.3307819  74.2058182 166.9408417  22.0271988
  75.3493500 167.7813110  23.1480999  75.6321716 167.5510101  21.4337826
  75.0401154 165.2036285  24.0093155  75.5254059 164.2704773  24.2954121
  75.0819168 165.9112549  24.8373375  74.0250092 164.9850616  23.6778278
  78.1876678 165.2466583  20.9650574  78.9208069 164.4258118  21.5012474
  78.5861359 166.5331116  20.8002224  77.9603043 167.2631378  20.4911957
  79.8823090 167.0170441  21.3153114  80.4247131 166.0756836  21.4032707
  80.6646347 167.7453918  20.1702271  81.6448975 168.0206146  20.5593700
  80.9389877 166.7565155  18.9849567  80.0063400 166.4321594  18.5233917
  81.5709305 167.3362427  18.3121510  81.5197906 165.9532776  19.4383812
  80.0048294 168.8469238  19.6475658  79.0594101 168.7182159  19.5416718
  79.8999786 167.7842102  22.6924610  79.0644684 168.6329651  22.9319725
  80.8516693 167.4490356  23.5186234  81.5171890 166.7265472  23.2837105
  80.9026947 167.9292145  24.9533539  80.5615387 168.9629364  25.0094414
  80.0024261 167.0470886  25.9328480  80.2551575 167.3826752  26.9386387
  78.4611130 167.1457672  25.7605858  78.2319870 166.7986145  24.7530746
  77.9082336 166.5226135  26.4635105  78.2222672 168.2021332  25.8837414
  80.2444763 165.5296326  25.8890800  81.3023987 165.2672272  25.8831711
  79.8567505 165.0683441  26.7973671  79.7257767 165.0165253  25.0792885
  82.3448105 167.9038391  25.5220585  83.1367798 167.0388794  25.1522141
  82.6858444 168.9207001  26.2720547  82.0014954 169.5417328  26.6795826
  84.1135864 169.1130066  26.7466145  84.7574921 169.0372620  25.8703957
  84.1982117 170.4715576  27.4690990  83.4551773 170.6250153  28.2516880
  85.1715393 170.5470428  27.9539165  84.0769424 171.6726227  26.5277805
  85.2609634 172.1380310  25.9381618  86.1566391 171.5505829  26.0762768
  85.2256851 173.2729492  25.0467682  86.0757599 173.5531006  24.4423828
  83.9849854 173.9473572  24.9541492  83.8443222 175.0550537  24.1892433
  84.4653168 175.1638336  23.4652691  82.8368759 173.4974213  25.6157322
  81.9840698 174.1239319  25.3998585  82.8415985 172.3465271  26.3989449
  82.0207062 171.9635010  26.9870186  84.5472717 168.0210419  27.7350826
  85.6255722 167.4106140  27.6080647  83.7422943 167.7771912  28.7506218
  82.9268036 168.3666992  28.8376637  83.9817123 166.8556213  29.8300343
  84.9614792 166.4042664  29.6737537  84.1852875 167.8062744  31.0178127
  84.8999710 168.5516663  30.6688919  83.2534027 168.3069000  31.2806244
  84.7733002 167.2060699  32.3301125  84.1320496 166.3629608  32.5871429
  85.7615204 166.8891754  31.9968166  84.9305573 168.2599030  33.4797554
  85.6486588 169.0071259  33.1419830  83.9976501 168.8135376  33.5859299
  85.3023071 167.5406342  34.8462372  85.2080154 168.2577209  35.6617126
  84.4584732 166.8510590  34.8692627  86.6660690 167.0263672  34.9623146
  87.2761154 167.7000580  34.5217705  86.9255676 166.9764557  35.9371338
  86.7800751 166.1681671  34.4421349  82.8769760 165.8269043  29.9957848
  81.7032776 166.1453247  29.8218288  83.2986221 164.6316986  30.3049812
  84.2883911 164.6025696  30.5039997  82.4834137 163.4623260  30.6274700
  81.4859924 163.8229218  30.8788891  82.2539673 162.6717224  29.2852478
  83.1575546 162.4818420  28.7059574  81.6051331 161.8176880  29.4795341
  81.6655197 163.3585663  28.6769066  82.9929428 162.6063080  31.7841930
  84.1787796 162.5556335  32.1213112  81.9824905 162.0086823  32.5061302
  81.0195236 162.0948944  32.2139511  82.2155457 161.5480499  33.8957176
  83.1617584 161.9593353  34.2473221  81.1116486 162.1724091  34.7458267
  80.1650085 161.7166443  34.4555817  81.2180481 162.0952911  35.8278732
  81.0501099 164.0205688  34.4649010  82.1945190 164.2199402  35.1248093
  82.3392563 160.0377655  34.0222549  83.4494705 159.5980682  34.3515892
  81.3100433 159.2445984  33.7775230  80.4859467 159.6627655  33.3699684
  81.2724228 157.8366699  34.0063782  82.0787430 157.6494751  34.7155418
  79.9824295 157.4159393  34.7042389  79.1079178 157.6773834  34.1084480
  80.0787582 156.3458099  34.8876915  79.9810944 157.9062042  36.1154747
  80.6879349 157.4970245  37.0208626  79.0699234 158.8126678  36.3720589
  78.9778671 159.1159363  37.3310432  78.4800720 159.2395782  35.6721115
  81.4285507 157.0787659  32.6810455  80.5980225 156.2064056  32.2578278
  82.6233597 157.2189178  32.0730019  83.2956696 157.8321533  32.5112419
  83.0530624 156.5460663  30.8436832  82.3084488 155.8039703  30.5556641
  83.1211166 157.5672760  29.6425838  83.9029312 158.2780457  29.9102840
  83.3870773 157.0790863  28.7050133  81.8230209 158.2512207  29.2861176
  81.4004288 158.6960449  30.1870308  82.1360931 159.3190308  28.3167114
  82.4996490 158.8260193  27.4151192  81.2157974 159.8210907  28.0182362
  82.9507217 159.9746094  28.6244564  80.8199997 157.2416382  28.6206837
  80.4998703 156.4799194  29.3316097  79.9233551 157.7504578  28.2668095
  81.2086334 156.8315887  27.6885242  84.3743591 155.9385376  31.0334644
  85.2303391 156.5088043  31.7333813  84.6443405 154.7498016  30.4482746
  83.9040298 154.4273682  29.8415852  86.0289459 154.1563721  30.3170147
  86.7634048 154.6961212  30.9147968  85.9979172 152.7215118  30.8190670
  85.2902527 152.1674042  30.2024002  86.9747696 152.2645111  30.6609592
  85.6289825 152.5658112  32.2848511  85.2955704 153.4762115  33.0694389
  85.7623520 151.3144684  32.7971382  85.6588898 151.1948090  33.7946777
  86.1474152 150.6138611  32.1799049  86.5189209 154.2793732  28.8253136
  85.7175751 154.1206970  27.8694954  87.7887268 154.4362335  28.6907444
  88.3549957 154.3546600  29.5230827  88.5032272 154.2413940  27.4365654
  87.8846970 154.5844421  26.6071987  89.7924194 155.0369873  27.4307423
  90.4661789 154.5235596  28.1167011  90.3146362 155.0024872  26.4746037
  89.6729126 156.5022430  27.8816528  89.4639587 156.5671387  28.9494705
  90.9568024 157.1828156  27.5380783  91.2275848 157.3055725  26.4894066
  91.0500107 158.1869049  27.9518738  91.8120193 156.7186279  28.0292225
  88.5830612 157.1555328  27.0078239  87.5904388 156.7199554  27.1221657
  88.3567963 158.1583710  27.3700657  88.8652344 157.2542877  25.9596214
  88.8635559 152.7973175  27.0778999  89.2794647 151.9635468  27.9082413
  88.8071365 152.4629974  25.8141289  88.3997955 153.1526337  25.1988449
  89.4524765 151.2667084  25.2218208  90.2543488 150.8983002  25.8616447
  88.5000916 150.0720978  25.1411228  89.0022278 149.2216187  24.6799812
  88.2319260 149.8041229  26.1630764  87.3497467 150.4519501  24.3981876
  86.6233368 149.8517609  24.5817623  90.0825882 151.6461945  23.8873520
  90.1406021 152.8018188  23.5723362  90.5894470 150.6734924  23.0856342
  90.5800095 149.7101288  23.3888607  91.2549896 150.9101715  21.8908062
  91.5267944 149.9508972  21.4503212  90.5814667 151.3306274  21.1440220
  92.5080490 151.8327637  22.0722084  93.0527649 151.9823761  23.1797409
  92.9763260 152.2785034  20.9215183  92.4373856 152.0251312  20.1057663
  93.9848328 153.3686829  20.9283504  93.9551544 153.8265991  21.9170532
  95.3958893 152.7885437  20.5476494  95.2918625 152.2289276  19.6180744
  96.2228088 153.4633026  20.3262444  95.9351959 151.7511139  21.5750389
  95.1813736 150.9827271  21.7466087  96.7433395 151.2004547  21.0936108
  96.4305954 152.3038330  22.7980518  97.2070847 153.0410919  22.5940514
  95.5971375 152.7222595  23.3622971  96.9892273 151.2647400  23.6919479
  97.9785156 151.0820007  23.6024609  96.3313141 150.4788818  24.5495358
  95.0793610 150.7138367  24.9631863  94.6887970 151.5352325  24.5239983
  94.4868851 150.1087036  25.5135231  96.9372482 149.4487000  25.0722713
  97.8996811 149.2048950  24.8868408  96.5259323 148.9359741  25.8391132
  93.6029892 154.5131531  19.9302998  92.7916107 154.2504425  19.0578308
  94.1444092 155.7523499  20.1515865  95.0630264 156.1448517  21.2503777
  96.1271133 156.0176392  21.0512695  94.7396011 155.5893555  22.1306686
  94.8386307 157.6209717  21.4387817  95.7215576 158.1919556  21.7260609
  94.0656738 157.7686005  22.1930046  94.4009171 158.0695190  20.0418930
  95.2296448 158.4059448  19.4188976  93.8165512 158.9811401  20.1666355
  93.7066498 156.8485718  19.3715782  92.6268082 156.9878998  19.3203373
  94.0469055 156.6356964  17.8644638  95.2230225 156.4103241  17.4386520
  93.0733414 156.7413330  16.9788380  92.1219254 156.6886749  17.3137016
  93.2294235 156.7554932  15.5140133  94.2816467 156.9214783  15.2829742
  92.8008423 155.3862152  15.0358772  93.2396774 154.6155243  15.6695709
  91.7142868 155.3609467  15.1186495  93.1847992 155.1861267  13.6832399
  92.9207306 154.2996063  13.4264231  92.4422073 157.8404083  14.7653770
  91.3881760 158.2628174  15.1617613  92.9913788 158.2661591  13.6280546
  93.9458847 158.0191193  13.4090061  92.4094086 159.2477417  12.7684584
  91.7777023 159.8989105  13.3726387  93.4841614 160.1208954  12.0946560
  93.1072845 160.8196411  11.3477926  94.2393799 160.9830933  13.1090565
  94.8656464 160.3554840  13.7430964  94.9054260 161.6523743  12.5645103
  93.6382904 161.7059937  13.6605883  94.4560699 159.2438660  11.4616814
  95.0750656 159.8650055  11.0710011  91.6369476 158.5895691  11.5693560
  90.8702698 159.3151703  10.9366360  91.7473373 157.2794495  11.3585138
  92.2261047 156.6820984  12.0173492  91.0933685 156.6609344  10.1719751
  91.5391312 157.1031952   9.2810135  91.2154846 155.1398468  10.1817064
  90.6861877 154.7349396  11.0442553  90.7425079 154.7078400   9.2997961
  92.6624374 154.6543579  10.2222900  93.1799622 155.1084900  11.0672941
  92.6771774 153.6214752  10.5702009  93.4189987 154.6834869   8.8817053
  93.0144424 155.3225403   7.8897424  94.5436020 154.1265259   8.7711687
  89.5836563 156.9437256  10.0919905  88.8005142 156.5738068  10.9800797
  89.2416916 157.7201233   8.9846182  89.9806747 157.9609680   8.3396416
  87.8964996 158.1255341   8.6474333  87.9069901 158.6891479   7.7145209
  87.1570435 156.7716064   8.3951120  87.8505859 155.9781342   8.1167297
  86.7602615 156.3324890   9.3104496  86.0829544 156.7707214   7.3823338
  84.7003479 156.6528473   7.7863483  83.9334946 156.4584808   6.6918402
  82.8785934 156.2269897   6.6905546  84.8152771 156.3876038   5.6201067
  84.4746780 156.2008972   4.6877809  86.1333084 156.5686951   5.9946747
  87.0073547 156.3846283   5.3875904  87.2806091 159.0477142   9.7667637
  86.0419846 159.1474304   9.8429441  88.0827179 159.6323547  10.7354660
  89.0251389 159.2768707  10.8100758  87.5896454 160.5356140  11.7981195
  86.9901810 160.0058594  12.5384569  88.7338181 161.1899872  12.5916815
  89.3110199 160.4781036  13.1817398  89.4141388 161.7501831  11.9502420
  88.1989365 162.2561798  13.3953142  88.8656082 162.6919098  13.9313068
  86.8128738 161.7635498  11.2367535  87.2266235 162.4913483  10.3433828
  85.6546326 161.9930878  11.7972698  85.5452271 161.5352020  12.6908369
  84.6451874 163.0153351  11.4724998  84.4632721 163.0090790  10.3978052
  83.3405304 162.5708466  12.1031256  83.4397125 162.6060791  13.1880312
  82.6054535 163.3381348  11.8601503  82.7725677 161.1682129  11.7762260
  82.9332275 160.4311371  10.6608849  83.4026718 160.7086945   9.7286940
  82.4408188 159.1542206  10.8452063  82.4689713 158.4528656  10.1189775
  81.9192200 158.9910431  12.1104546  81.4596329 157.8857117  12.7870245
  81.4120712 156.8887024  12.3745995  81.1361313 158.0462189  14.1688690
  81.0030136 157.1705475  14.7868338  81.2615128 159.3074341  14.8718786
  81.1631470 159.3952637  15.9437971  81.7657928 160.3270111  14.0773020
  81.9748230 161.2916565  14.5156784  82.1453705 160.2452393  12.7275038
  84.9821167 164.4759216  11.8750563  84.2941284 165.3906555  11.4604836
  86.0901566 164.5552368  12.5086966  86.5984726 163.6875305  12.6024275
  86.6163330 165.7675018  13.2330809  86.0934067 166.6600037  12.8894453
  86.3527908 165.6448822  14.7586975  86.8147049 164.7589417  15.1944151
  86.8086014 166.5002747  15.2573347  84.9249573 165.7223206  15.1002512
  84.1784821 166.9234009  14.9000015  84.5829163 167.8597870  14.5449877
  82.8143234 166.9163666  15.2082129  82.2338638 167.8174133  15.0755291
  82.1603546 165.7889709  15.7168932  81.1374969 165.7865143  16.0635128
  82.7956009 164.5551910  15.7869968  82.3350525 163.6959381  16.2517128
  84.1962662 164.5478210  15.5521307  84.6728287 163.5809631  15.6191521
  88.1471024 165.9270630  12.8779669  89.0154877 165.5376740  13.6898937
  88.5345917 166.5543365  11.7388058  87.6784439 167.0525055  10.7069473
  87.6341476 168.1200104  10.9227991  86.7241364 166.5572357  10.5277500
  88.3862305 166.8840027   9.3420486  88.1332550 167.5370636   8.5068169
  88.2800827 165.8336182   9.0708590  89.8288345 167.0959015   9.8031797
  90.0328369 168.1666412   9.8075323  90.5531540 166.5922241   9.1630487
  89.9089737 166.5126038  11.2296343  90.1149673 165.4423981  11.2484837
  90.8417892 167.2222290  12.1802912  90.5778351 168.2562103  12.8091230
  92.0183105 166.6448822  12.3169146  92.3053818 165.9144287  11.6812067
  92.9986038 167.0297852  13.3426952  93.8840256 166.4633789  13.0540352
  93.1529617 168.1086578  13.3255978  92.7392197 166.5540161  14.7386627
  93.5454102 166.8808594  15.6453447  91.7117310 165.7627869  14.9447832
  90.9913940 165.5812836  14.2604790  91.4687958 164.9439087  16.1706791
  92.2080841 165.2288361  16.9192600  90.1692047 165.2975159  16.9359379
  89.3579254 165.0366364  16.2563210  90.0809555 164.6615753  17.8167877
  89.9716568 166.7617798  17.3809834  90.2776947 167.1022339  18.7200909
  90.5077133 166.3117218  19.4190731  90.0752182 168.3679962  19.1891422
  90.3064499 168.5053406  20.2351189  89.5309296 169.3638153  18.3538704
  89.5243378 170.7229156  18.7465839  89.6588440 170.8707581  19.6855450
  89.2356262 169.0520935  17.0315456  88.6529846 169.7552185  16.4548645
  89.5074310 167.7417297  16.4992638  89.1585388 167.4248505  15.5275316
  91.5730896 163.4696655  15.8951588  91.1407089 162.8916016  14.8849888
  92.1877365 162.7403107  16.8553143  92.5788269 163.2238770  17.6511250
  92.0963135 161.2508545  16.9278622  92.0540848 160.7768402  15.9472322
  93.3201599 160.6789093  17.5681839  93.4831772 161.1244354  18.5495262
  93.1181488 159.6129303  17.6730137  94.2360764 160.8412018  16.9999695
  90.8487396 160.8398590  17.6873894  90.5815430 161.4487152  18.7245007
  90.1664734 159.7712250  17.2017651  90.4504395 159.3874359  16.3117256
  89.0308838 159.0538483  17.9362926  88.4977493 159.7473450  18.5866280
  87.9184799 158.6038971  17.0156593  87.1072540 158.1713257  17.6012383
  87.5628128 159.5031586  16.5127449  88.2191162 157.6348114  15.9439793
  88.2304764 157.9262848  14.6203871  88.2103271 158.9176178  14.1922846
  88.6224518 156.8318024  13.9421501  88.8364639 156.7675476  12.9571791
  88.7378082 155.6857758  14.7369680  89.1813431 154.3787231  14.4558077
  89.4288712 154.0180511  13.4683647  89.2079773 153.4336395  15.5230227
  89.4929276 152.4282379  15.2503376  88.8256912 153.8219147  16.8386879
  88.9176407 153.1557770  17.6837940  88.5767517 155.2129822  17.0715866
  88.5023651 155.5733185  18.0869846  88.4443130 156.1684113  16.0465050
  89.5629044 157.8915558  18.8103848  90.5516357 157.2536469  18.4160271
  88.8803864 157.6410980  19.9258366  88.2442627 158.3507996  20.2601280
  89.3362350 156.5666656  20.8364773  89.6387863 155.7423859  20.1906261
  90.5964661 156.9272003  21.6991615  91.3605118 157.2400513  20.9874973
  90.4972763 157.8946533  22.8489799  89.7166138 157.5891418  23.5456219
  91.4669876 157.8912048  23.3467159  90.2065735 158.8758392  22.4736385
  90.9683609 155.6965332  22.2372646  91.8203354 155.7636108  22.6745625
  88.1098785 156.0794525  21.6358986  87.3587875 156.9352417  22.1400909
  87.7271576 154.7694397  21.5874634  88.4327393 154.0956726  21.3261318
  86.4099731 154.3028564  21.9586849  85.7682190 154.8023376  21.2328930
  86.3066101 152.7647247  21.8120594  86.6068497 152.2641144  22.7325764
  84.8177185 152.3361664  21.7021790  84.5094452 152.7023468  20.7229023
  84.7179031 151.2577820  21.8255539  84.2277603 152.7245789  22.5323467
  87.0648499 152.0791473  20.6238937  86.6519547 152.3768921  19.6600666
  88.0741577 152.4895782  20.6550865  87.2398987 150.5220337  20.6946602
  86.2612610 150.0948486  20.4758644  88.0346756 150.1316528  20.0590267
  87.5633926 150.2778931  21.7065125  85.9834976 154.6695557  23.3931885
  86.7294693 154.3829193  24.3503342  84.8271713 155.2637787  23.5674324
  84.2263107 155.4452820  22.7761497  84.1596375 155.3541412  24.9039631
  84.9072571 155.2370300  25.6884689  83.5742722 156.7268066  25.0425186
  82.8206100 156.9123535  24.2772274  83.1035080 156.7790222  26.0242310
  84.3285065 157.4917450  24.8579044  83.1793289 154.2443542  25.0980644
  82.3771591 153.9995422  24.1938667  83.1062927 153.6862793  26.2844429
  83.8315201 153.8835754  26.9591446  82.0506668 152.7824097  26.8516750
  81.1860962 152.8378754  26.1902046  82.5835876 151.3344269  26.7621536
  83.4999084 151.2520142  27.3466835  81.8321762 150.6826477  27.2078667
  82.9857864 150.7990723  25.3818760  82.1032257 150.6905823  24.7514706
  83.5979614 151.5082092  24.8246746  83.7766113 149.5016937  25.5113316
  84.9729233 149.4017639  25.5089836  83.0934372 148.4364624  25.7779560
  83.4687271 147.5046997  25.8832645  82.1350098 148.5394592  26.0794601
  81.6209641 153.2508240  28.2083340  82.3526840 153.9880829  28.9150410
  80.4654312 152.7821960  28.6514339  79.9502106 152.2293091  27.9813805
  79.8962936 153.0150757  30.0042973  79.9218140 154.0830231  30.2209415
  78.4258652 152.6040802  30.0459785  77.8730240 153.0698090  29.2301598
  78.2875519 151.5254211  29.9720402  77.5982208 153.1206512  31.6257992
  76.3467484 152.6901398  31.4431000  80.6811142 152.3352661  31.1693745
  80.9214554 151.1663971  31.0612907  80.9794617 152.9333954  32.3104172
  80.7605133 153.9190826  32.2866859  81.8144684 152.3770905  33.4364815
  82.7701721 151.9432983  33.1422691  82.2385788 153.5258789  34.2889519
  82.7761536 154.2728729  33.7049026  81.3549881 153.9789276  34.7385139
  83.1975098 153.1640625  35.4212189  82.7764053 152.4250031  36.1028137
  84.1029282 152.6302643  35.1324539  83.7041626 154.4286652  36.1281929
  82.8278351 154.9776764  36.4727631  84.3140411 154.1924286  37.0001755
  84.5868912 155.2476501  35.2434158  84.8504028 154.7950745  34.3797989
  85.0805817 156.4605560  35.4392090  85.1160431 157.0534668  36.6166458
  84.5881348 156.5012360  37.2772865  85.5822830 157.9274902  36.8136749
  85.6086426 157.1725159  34.4358406  85.5486298 156.9747009  33.4472198
  85.8535919 158.1521454  34.4565811  81.0558472 151.2520294  34.1203194
  81.6598892 150.2268372  34.4516716  79.7401733 151.4714966  34.4094620
  79.3776855 152.3733978  34.1350594  78.8681412 150.5121155  35.1511841
  79.4477310 150.1378632  35.9950447  77.6094513 151.2409668  35.6611099
  77.2482224 151.9198761  34.8886490  76.4859772 150.3902283  36.1455498
  76.8784103 149.5580292  36.7299576  75.8063126 150.9992981  36.7415237
  75.8352737 150.0122833  35.3569832  78.0749817 152.2597809  36.8136177
  78.6908646 153.0748596  36.4335480  77.2108154 152.7287598  37.2841225
  78.7804489 151.5441132  37.9500809  79.7623291 151.1620636  37.6707153
  78.8785095 152.2361298  38.7865028  78.1142960 150.7587891  38.3072739
  78.5421600 149.2788391  34.3383675  78.2912827 148.2134857  34.9500809
  78.6154022 149.3223877  32.9718628  78.9039612 150.2003937  32.5645027
  78.0922318 148.2165985  32.1712646  78.2228241 147.2942657  32.7372398
  76.5594711 148.3887634  31.9104958  76.1030502 147.4396667  31.6293926
  76.0487900 148.6927948  32.8242111  76.2757416 149.7026367  30.7234802
  74.9897308 149.5905914  31.0677395  78.8480606 147.8313141  30.8826237
  78.5801163 146.7227325  30.3959084  79.8073502 148.5962067  30.3531704
  80.1336212 149.3821869  30.8971214  80.4756165 148.2515411  29.1030636
  81.4915848 148.6447144  29.0665474  80.5753937 147.1662292  29.0875149
  79.7063141 148.7033691  27.7884998  80.2864151 148.4589386  26.7584591
  78.4618454 149.2943726  27.9084606  77.9145050 149.2057343  28.7526550
  77.7176208 149.6582336  26.6628284  77.7029877 148.7761993  26.0225868
  76.3204498 150.1368561  27.0599689  75.8772202 149.5044250  27.8291836
  76.4057770 151.1393585  27.4792519  75.4472656 150.0630035  25.8627319
  75.4340286 149.1291351  25.0728569  74.8232803 151.1667633  25.6238003
  74.2474289 151.1604309  24.7940655  74.8553162 151.9515991  26.2587109
  78.4842224 150.7007141  25.8365288  79.1171875 151.5740967  26.4005013
  78.5361786 150.6061096  24.5187683  78.0877686 149.8034821  24.1006546
  79.1460266 151.5697327  23.6111126  80.1985703 151.6249695  23.8889694
  79.1226730 151.0336761  22.1481037  79.7604599 150.1528625  22.0739002
  78.1148376 150.7765808  21.8221092  79.5365829 152.0655823  21.2204952
  78.6340561 152.9178162  20.5914097  79.4418488 153.6968536  19.8618355
  79.0908661 154.5248566  19.2638245  80.7527542 153.4208832  20.0426540
  81.5546494 153.8377228  19.5917492  80.8325653 152.3636627  20.8997211
  81.7279358 151.8477631  21.2136936  78.4810181 152.9690857  23.7385349
  77.2771912 153.0698242  23.6409130  79.2567596 154.0866699  23.8544598
  80.2640457 154.0239105  23.8153286  78.7597046 155.4788971  24.0718155
  77.6721878 155.4504089  24.0038910  79.0250473 155.8902588  25.5013790
  80.1101913 155.9120789  25.6018295  78.6085510 156.8855286  25.6565304
  78.4379807 154.9631348  26.6208115  78.9478226 154.0045471  26.5246487
  78.6742477 155.4184570  27.5825634  76.6692810 154.5440826  26.5876007
  76.0094528 156.1632538  26.9928837  76.2298431 156.8987427  26.2192039
  74.9200897 156.1292725  27.0077648  76.5154572 156.4829865  27.9038353
  79.3222122 156.5094757  23.0842648  79.1411209 157.7002106  23.2866783
  79.9288712 156.0553284  21.9871311  79.8627777 155.0611877  21.8214912
  80.6431122 156.8851471  21.0172138  80.5125732 156.4010162  20.0493927
  80.1513901 157.8544006  20.9343777  82.1105270 157.0466919  21.3594704
  82.7760162 156.0773773  21.6949978  82.7157135 158.2435455  21.1579990
  82.1045380 158.9557495  20.7847252  84.2154388 158.3699493  21.2022152
  84.7446060 157.5347595  21.6610680  84.8149261 158.2977600  19.7834816
  84.5791092 159.1639709  19.1652737  85.8927994 158.4335785  19.8719845
  84.4752274 157.1066742  18.9610271  85.2539825 156.0296326  18.8362236
  86.2264786 155.8543396  19.2720318  84.5169067 155.0294189  18.2388496
  84.8689728 154.0980682  18.0693092  83.2595673 155.4535522  17.9015026
  82.1242142 154.8435364  17.3096695  82.0991669 153.7921143  17.0641289
  80.9844589 155.6308289  17.0115509  80.1421127 155.2259369  16.4703255
  80.8780289 156.9859772  17.4445362  79.9677887 157.5199738  17.2149429
  82.0027466 157.6066742  18.0177307  82.0338974 158.6652832  18.2293396
  83.2272797 156.8649750  18.2393456  84.7597046 159.5926056  21.8934536
  84.1664886 160.6752472  21.6983986  85.8769608 159.3961487  22.5866394
  86.2642822 158.4726410  22.7178211  86.7848358 160.4635162  23.0689106
  86.2043228 161.2919159  23.4749603  87.6733932 159.9570770  24.1501541
  87.1517792 159.5062561  24.9944172  88.3278046 159.1903534  23.7354355
  88.4826736 161.1355286  24.7424355  89.2099457 161.4514923  23.9945412
  87.7094345 161.8759003  24.9474602  89.1628189 160.8397980  26.1035099
  88.4405365 160.5420380  26.8636093  89.8215027 159.9846497  25.9518909
  89.9754868 162.0739899  26.5813217  90.7990265 162.2361298  25.8859158
  89.3324890 162.9526520  26.5303288  90.6121979 161.8558044  27.9243221
  91.1479111 160.9996185  27.9310837  91.3474197 162.5187988  28.1242981
  89.9749756 161.7988892  28.7058640  87.6208420 160.9258728  21.9026775
  88.3005905 160.1178284  21.2884178  87.7585754 162.2283783  21.8220081
  87.2953110 162.8813019  22.4377823  88.5647278 162.9111633  20.8375797
  88.8817902 162.1422882  20.1330299  87.6005707 163.7931824  20.0570621
  86.9993973 164.4570465  20.6783409  88.2210922 164.3725128  19.3733768
  86.7604446 162.9701691  19.0982189  87.2194214 162.7135162  17.7762127
  88.1116943 163.1240082  17.3270359  86.3954468 162.0774384  16.8663940
  86.7207108 161.9741058  15.8417358  85.1668015 161.5359344  17.3003883
  84.5279846 160.9818420  16.6286087  84.6532440 161.7722015  18.5785522
  83.6738434 161.4334564  18.8825874  85.4778900 162.4737396  19.4743881
  85.0725861 162.8154449  20.4153233  89.7712173 163.6732330  21.4863644
  89.6321182 164.4105682  22.4366798  90.9213181 163.6847992  20.8443413
  91.0484009 163.0475464  20.0711308  92.1495438 164.3016510  21.4134407
  91.8882294 165.1421509  22.0563889  93.0843658 163.3437042  22.1759968
  93.9775238 163.9093475  22.4413910  92.4016571 163.0102539  23.5288982
  91.4710617 162.4743805  23.3419666  93.0419235 162.3696594  24.1353703
  92.0663147 163.9070587  24.0498238  93.4037247 162.0970459  21.4849815
  94.1574326 162.3831940  20.9637985  92.9435577 164.9123535  20.2137871
  93.0461197 164.2875824  19.1799088  93.5423889 166.1062469  20.3935452
  93.5979919 166.6217957  21.2602654  94.1036987 166.9561310  19.3612347
  93.5082779 166.9539948  18.4482307  94.2177353 168.3943329  19.9169693
  94.8078384 168.2445374  20.8210945  94.6363525 169.0533905  19.1563721
  93.2216415 168.7894135  20.1165180  95.5067673 166.4564209  18.9338932
  96.3533554 166.2596741  19.8380337  95.8005600 166.2016144  17.6368656
  95.0728989 166.2715302  16.9399261  97.1136780 165.5722961  17.2404633
  97.4145050 164.8216400  17.9712982  96.9518509 164.8244934  15.9111319
  97.9751740 164.6081543  15.6043682  96.0821075 163.5415344  16.0688839
  95.0414810 163.7819214  15.8511353  96.3652878 162.8003387  15.3215227
  96.1383438 163.0856171  17.0573578  96.5009537 165.6868134  14.9407635
  96.5093384 165.1766052  14.1276102  98.2027206 166.5857544  17.0287399
  99.3572388 166.2578125  17.2568893  97.8687515 167.8880157  16.7671604
  96.8849258 168.0121918  16.5754108  98.7427673 169.0548706  16.8762398
  99.8119659 168.8462677  16.8388939  98.3821487 169.9058533  15.6491985
  97.3045654 169.9168549  15.4854956  98.7174072 170.9212952  15.8603315
  99.0600204 169.3425446  14.3845043 100.1236191 169.3479309  14.6229191
  98.8474808 168.2756042  14.3170214  98.7497940 169.9916229  13.0502386
  99.2333527 170.9684753  13.0433197  99.1433258 169.3681946  12.2473888
  97.1498642 169.9585571  12.8185530  96.8088226 168.9278870  12.7209082
  96.6415482 170.4714355  13.6350517  96.7612381 170.6828156  11.5956564
  97.2168350 170.2131500  10.8262739  95.7664948 170.6724091  11.4210672
  96.9991226 171.6628571  11.6506882  98.6172104 169.7871552  18.2443275
  97.5580444 169.7344360  18.9084969  99.7134552 170.5079498  18.5663643
 100.5237961 170.5183105  17.9635963  99.9515839 171.0094452  19.9255447
  99.6488876 170.1686554  20.5496731 101.4856491 171.0198669  20.1371593
 101.7660522 171.1949463  21.1758213 102.1074677 170.1632080  19.8772278
 102.0637589 172.2362671  19.3306103 102.1120987 172.0202484  18.2633247
 101.4448929 173.1223602  19.4718208 103.4968185 172.5489349  19.8083000
 103.5095062 172.6715546  20.8913078 104.1009903 171.6936188  19.5058079
 103.9818649 173.8513641  19.1948700 103.1897583 174.5842438  19.3483067
 104.8853912 174.2551727  19.6516933 104.2707443 173.7811279  17.7043362
 103.6597137 173.1757355  17.1749516 104.2567596 174.7098846  17.3077106
 105.1561813 173.3309021  17.5215588  99.2315521 172.2595062  20.3243160
  99.4532547 172.6945496  21.4578533  98.5035629 172.9101715  19.4258327
  98.4652252 172.6058655  18.4635277  97.9702606 174.2330475  19.6961803
  98.0192490 174.4941254  20.7533169  98.8322983 175.2816010  18.9588146
  98.3340912 176.2501984  18.9998989  99.7618408 175.4372559  19.5063782
  99.1590729 174.9990692  17.4710217  98.6905746 173.9977112  16.9085770
  99.7241135 175.9053192  16.8070889  96.4992294 174.4300995  19.3639755
  95.9327164 175.5641022  19.5178661  95.8162537 173.4116669  18.9043770
  96.2037964 172.5135345  18.6528721  94.3328018 173.4776764  18.6872902
  94.0215378 174.3248901  18.0761967  93.8286057 172.1916656  18.0489883
  93.9128799 171.4044647  18.7981930  92.7446823 172.2914734  17.9919930
  94.4584503 171.9220123  16.6571884  94.0859222 172.6926422  15.9823103
  95.5357132 171.9439697  16.8218765  94.0353165 170.3658600  15.8213072
  92.2575607 170.4484711  15.6172466  92.0269775 171.0578461  14.7434092
  91.7862396 169.4979706  15.3672647  91.9278717 170.9011230  16.5523968
  93.6517181 173.5787201  20.0412483  94.2228470 173.1597595  21.0553894
  92.4380035 174.0629578  20.0508995  92.0723038 174.5076599  19.2210789
  91.5395737 174.2629089  21.1473637  91.8396835 173.5392761  21.9052582
  91.6754379 175.6342926  21.7918682  92.7456970 175.7043610  21.9861393
  91.4477997 176.3860474  21.0361385  90.8780212 175.7105713  22.9971733
  91.3492966 176.0412292  23.7653904  90.0887299 174.1367645  20.7051926
  89.7727051 174.8835907  19.7444801  89.2593918 173.2349396  21.2570286
  87.8468018 172.9848633  20.8410263  87.8768921 172.8684845  19.7576733
  87.1412582 173.7254333  21.2176533  87.4522018 171.6300201  21.3964748
  87.8081360 170.8611908  20.7106800  86.3870010 171.5924683  21.6245766
  88.2826767 171.6152039  22.6967201  88.5263901 170.5839844  22.9522057
  87.7541428 172.1464539  23.4882641  89.5681763 172.4150543  22.4539757
  89.8072891 173.0537567  23.3042564  90.7388153 171.4294739  22.2940464
  90.9974213 170.9068756  21.1740799  91.4983215 171.1881866  23.3429813
  91.2867584 171.7730408  24.1387672  92.5353928 170.1230774  23.3993435
  93.0874023 170.2796936  22.4726009  93.4986496 170.4166107  24.5626202
  93.9756622 171.3379822  24.2284679  92.9174118 170.7477417  25.4232101
  94.4382706 169.3109436  24.9886761  94.9284210 169.7254028  25.8696289
  93.8969879 168.3891449  25.2017574  95.5221024 169.0616760  23.9617558
  95.5361633 169.5759430  22.8572826  96.4668274 168.2355347  24.3472633
  97.1012039 167.9356079  23.6208305  96.5445557 167.7942657  25.2524376
  91.8889160 168.7301788  23.5037022  92.4262238 167.7002258  23.0430737
  90.7425690 168.6329956  24.1844311  90.3639450 169.4855652  24.5715809
  90.0427704 167.3281555  24.5012341  90.2039413 166.6395264  23.6718254
  90.5560608 166.7489166  25.8777256  90.0905609 165.7852783  26.0846214
  91.5936050 166.4626617  25.7054863  90.4227753 167.6230011  27.0925522
  90.7049942 168.6540375  26.8794899  89.3772964 167.6124725  27.4007072
  91.3405914 167.1585693  28.2544136  91.0083313 167.6139832  29.1873131
  91.2979660 166.0717773  28.3262386  92.7776642 167.6023560  28.0950985
  93.1098175 167.3203125  27.0959816  92.7358475 168.6843414  28.2202282
  93.7497482 167.0580597  29.0648403  93.7386475 166.0481110  29.0646343
  94.6556396 167.3137360  28.6986446  93.6718750 167.4379578  29.9974251
  88.5204620 167.4953613  24.4480247  87.9905014 168.4005280  25.0956898
  87.7878723 166.5438538  23.8245182  88.2652435 165.7927551  23.3469563
  86.2997513 166.5324707  23.8714943  85.9653854 166.7896881  24.8765545
  85.7592392 167.5953369  22.8441734  84.7783432 167.9156189  23.1954136
  86.3460388 168.5116425  22.9086361  85.6729202 167.1697388  21.3780193
  86.7349396 167.3978424  20.4832001  87.6114044 167.9260864  20.8284111
  86.6265564 166.9780579  19.1259632  87.3465958 167.2590790  18.3716621
  85.5219803 166.2346802  18.6962814  85.5655670 165.9286194  17.6614723
  84.4428329 166.0825806  19.5497036  83.5884476 165.5147705  19.2120667
  84.4879990 166.6342926  20.8574448  83.6678314 166.5563965  21.5557728
  85.7613525 165.0825806  23.6645184  86.5095901 164.1537476  23.3845921
  84.4384155 164.8778534  23.6451263  83.8822403 165.6039886  24.0735016
  83.7415466 163.6339874  23.3909073  84.4212799 162.9281769  22.9135189
  83.2451401 162.9248352  24.6323547  82.3966904 163.4667053  25.0502071
  82.9549561 161.8959656  24.4194832  84.2465973 162.7875061  25.7470665
  84.5938644 163.8206329  26.5306644  84.1077194 164.7790985  26.4239159
  85.3692551 163.4326019  27.5672379  85.8691025 164.0360413  28.2045040
  85.4572830 162.0581055  27.6102715  86.0391083 161.1684418  28.5473766
  86.3962402 161.5647125  29.4864254  86.0363159 159.7565002  28.2420979
  86.4748535 159.0317383  28.9120197  85.4315414 159.3311310  27.0486488
  85.4503632 158.2877960  26.7702427  84.8593369 160.2482452  26.1409988
  84.4139099 159.7864075  25.2722645  84.9354248 161.6424103  26.3551598
  82.6329117 163.8118896  22.3737164  81.9487762 164.7925262  22.5488758
  82.5840530 162.9627075  21.3701382  83.2686844 162.2201691  21.3680115
  81.5179672 162.7980804  20.3898830  80.8392563 163.6509552  20.3978138
  81.9653702 162.6961365  19.4011784  80.6596375 161.5295410  20.6911716
  80.9199677 160.4341736  20.2072620  79.7241669 161.6502838  21.6406994
  79.5025330 162.5994568  21.9053745  78.9110947 160.5753479  22.2398319
  79.5689468 159.7084961  22.1774578  78.6346893 160.9178925  23.7095528
  77.9178238 161.7386932  23.6873474  78.2063751 160.0442963  24.2009430
  79.8901138 161.2333069  24.5783215  80.3980103 162.0829468  24.1219616
  79.3911972 161.7033691  25.9707813  79.1155624 160.8377380  26.5731354
  80.2133408 162.2144623  26.4717426  78.5672073 162.4035645  25.8334675
  80.8597336 160.1086731  24.7682095  81.3668976 159.8109283  23.8504734
  81.6581726 160.3301086  25.4764214  80.3839035 159.2002869  25.1376839
  77.5537872 160.3002777  21.5326195  76.8801727 161.2846680  21.2118683
  77.1559448 159.0624390  21.4457378  77.7240067 158.3708801  21.9138718
  76.0734100 158.6376343  20.5777054  76.1120758 159.2063904  19.6486568
  76.2474976 157.1408386  20.2374935  75.2424088 156.8433533  19.9384975
  77.0871658 156.8549194  18.9807529  78.1125870 157.0942230  19.2624493
  76.9700470 155.8128052  18.6834469  76.8737946 157.4977722  18.1267548
  76.7260971 156.4077148  21.3333797  76.7585526 155.4668427  21.1455326
  74.7233887 158.9501343  21.1826077  74.3791351 158.3302612  22.1793213
  73.9248047 159.8575745  20.5983505  74.2441940 160.1046600  19.6725883
  72.6143036 160.2436829  21.2050896  72.7538834 160.5572357  22.2396469
  71.9846649 161.5147095  20.5312176  71.0122223 161.6726532  20.9975967
  72.6932144 162.3303833  20.6751575  71.7212982 161.3289948  19.0525398
  72.5249786 161.8260651  18.5093002  71.6966248 160.2705994  18.7931175
  70.4406509 161.9216003  18.5917912  70.4558334 162.9727478  18.8798561
  70.5131302 161.8895874  17.5046749  69.2082291 161.2708588  19.1503086
  68.7930832 161.5870667  20.0150433  68.6326523 160.2093048  18.5785217
  68.9931641 159.6300354  17.4682808  69.4539413 160.1955261  16.7697029
  68.5544357 158.7629700  17.1929245  67.6209183 159.6735687  19.0780468
  67.1827393 160.0724487  19.8959713  67.0754395 159.0965881  18.4538212
  71.6268005 159.0432587  21.2780418  70.8171616 158.9347076  22.1944847
  71.7848282 158.0110016  20.3912029  72.4506149 158.2275085  19.6632175
  71.0874252 156.6968842  20.5118370  70.0191956 156.9133606  20.5009594
  71.5482483 155.8971710  19.3517876  70.9980469 154.9613953  19.2532425
  71.2351379 156.3881073  18.4303551  72.9867020 155.6349792  19.2216015
  73.2142715 154.8375549  19.7052650  71.4229584 155.8726959  21.7501526
  70.5388489 155.1709747  22.1329441  72.5650406 156.0182648  22.3884583
  73.3010941 156.5653229  21.9653015  72.8853073 155.3599396  23.6672649
  72.1930084 154.5195160  23.7174149  74.2233887 154.6672211  23.5967369
  75.1012955 155.2795868  23.3908653  74.4374847 154.1440430  24.5286999
  74.1977158 153.8786926  22.8446236  72.6373138 156.3021240  24.9028893
  72.7021790 155.8761139  26.0096569  72.2736206 157.5731049  24.7292957
  72.1561050 157.9030762  23.7819729  72.0198975 158.6123047  25.8081436
  72.5554047 158.2736664  26.6950817  72.6728745 159.9916992  25.4628754
  72.3220520 160.2908173  24.4751778  72.3684616 160.6714478  26.2587128
  74.1863022 160.0270538  25.4330940  74.5943069 159.2637787  24.7705002
  74.5714111 161.4126740  24.8713436  74.2548676 162.2361908  25.5114403
  75.6553192 161.5268402  24.8567467  74.1994095 161.4672089  23.8482380
  74.7796783 159.9463348  26.8592567  74.6233826 158.9798889  27.3384857
  75.8637009 160.0536499  26.8207607  74.3496628 160.7335663  27.4784985
  70.5512009 158.7831879  26.2278690  69.6828918 158.5998535  25.3828392
  70.2457504 159.0449066  27.5270481  71.0145874 158.9622498  28.1767902
  68.8618317 159.2201385  28.0406780  68.0804214 159.2566528  27.2816181
  68.5072327 157.9432373  28.8601913  68.7461929 157.1405640  28.1625519
  69.2351608 157.8053284  29.6597004  67.1280518 157.6757202  29.2282104
  66.8420944 158.4998474  29.8817806  66.0298538 157.5055084  28.1898670
  66.1548615 156.6071167  27.5853958  65.0513306 157.4129333  28.6610546
  65.9254761 158.3729248  27.5381069  67.0852127 156.5009766  30.2335510
  67.8287430 156.7260437  30.9981480  66.1200790 156.4460602  30.7371330
  67.1779404 155.5226135  29.7620335  68.7346115 160.3996124  29.0483494
  69.2919464 160.3521881  30.1695499  67.9309387 161.4526520  28.7464600
  67.1547699 161.6287231  27.5491123  66.1385193 161.2555084  27.6757431
  67.6049728 161.1412964  26.6843414  67.1531754 163.1569214  27.2889423
  66.1708832 163.3026581  26.8395538  67.9763870 163.4036865  26.6184731
  67.3343582 163.7690582  28.6748009  66.3855209 164.2650299  28.8792915
  68.1321716 164.5036926  28.7839184  67.7433548 162.6274414  29.5614052
  68.5752487 162.9660797  30.1789742  66.7126389 162.3201294  30.6781006
  65.6924896 162.9923401  30.7282867  67.1121750 161.5097504  31.7139530
  67.9763870 161.0186005  31.5350475  66.4604492 161.1726074  32.9499855
  65.3917465 161.0952759  32.7499619  67.0528564 159.8721161  33.5081406
  66.6934128 159.1255951  32.7998962  68.1398544 159.9394989  33.4634895
  66.5831757 159.5802002  34.9702034  67.0324631 160.3723907  35.5690956
  65.5026169 159.7230988  34.9799118  67.0665131 158.2350616  35.3921700
  68.0952072 158.0573883  35.0786095  67.1675186 158.2519684  36.4773521
  66.1684799 157.0763245  35.0033798  65.7169189 157.1753387  34.1053886
  65.9337997 156.0470428  35.7973480  66.3364029 155.8590393  37.0040169
  67.0105209 156.4935303  37.4078522  65.9810257 155.1411896  37.6192589
  65.2330093 155.0274658  35.2372627  64.8453140 155.0823364  34.3062515
  65.0495453 154.2294464  35.8285446  66.5811005 162.3476257  33.9587936
  65.5759048 162.6264496  34.6468430  67.6636734 162.9947662  34.0164185
  84.3690491 154.0393372  13.8847303  85.2993088 153.2106476  13.1898890
  83.4131088 153.3255463  14.5318632  85.0504608 151.9129333  13.4027491
  83.2375259 151.9006500  14.7539148  84.2699661 151.1940613  13.9255571
  84.7912140 155.8500977  11.5429335  84.6954803 156.3017731  12.6846914
  84.4222870 155.4298553  13.8720751  84.9536896 157.7247162  12.9030180
  84.5525970 156.2209015  14.9253368  85.0032806 158.4300537  14.1604643
  84.7145081 157.3356628  15.1982403  85.2505798 159.6246490  14.2551565
  85.0276260 158.3774414  12.1316080  86.3699875 153.6570892  12.4106188
  87.2047501 152.8106079  11.8685474  82.2311401 151.2887573  15.5928831
  81.4666824 150.2005310  15.6886969  80.0319290 150.2176666  16.1809731
  82.1880264 150.3337097  16.8400021  79.7240524 150.3349762  17.5165062
  82.4092102 150.2552032  18.0787563  79.8479233 149.9094238  18.8387394
  81.2613144 150.0553284  18.4792233  79.5775681 148.9329224  18.9514885
  78.9425125 150.1092682  15.2412710  79.2392273 150.0955658  14.0583172
  77.6729889 149.9645386  15.6529541  77.7244415 149.8781433  16.6202431
