Cpptraj Generated Restart                                                       
 6188  4.0000001E-01
  90.0634460 180.6234131  24.7181549  91.0371628 180.3972015  24.5739098
  89.6827545 179.7574615  25.0721607  89.9565811 181.3359070  25.4259796
  89.3865128 180.8455963  23.3750305  88.3249054 180.7947845  23.6169453
  89.5782471 182.2935181  22.9435005  90.6578369 182.4411316  22.9151287
  89.2812195 182.3765411  21.8980427  88.9111938 183.4223022  23.7201157
  87.8355255 183.2461853  23.7149696  89.1745758 183.3657684  24.7763042
  89.3433990 185.1286774  23.1883945  88.2711945 185.3457031  21.7325554
  87.2801208 185.5907593  22.1144466  88.6102448 186.1926575  21.1360512
  88.2049103 184.4201355  21.1606808  89.5417786 179.7231445  22.3392582
  90.5816803 179.0231934  22.2718239  88.5219955 179.5310822  21.5055599
  87.7354813 180.1544800  21.6190147  88.5883255 178.4564819  20.5192966
  89.1127090 177.6395111  21.0149517  87.1147232 178.0261383  20.3153133
  86.5577774 178.9524689  20.1744900  86.8054962 177.2243958  19.0980473
  87.2477798 176.2291260  19.1417465  85.7352295 177.0179596  19.0968056
  87.1026230 177.7014313  18.1640987  86.4247208 177.3846893  21.5854378
  85.4506836 177.0594788  21.2199364  87.0785599 176.5579376  21.8630390
  86.0846481 178.3383331  22.7888031  85.5638733 179.2328796  22.4472027
  85.4708786 177.7943726  23.5067787  86.9819565 178.6168518  23.3414059
  89.3130341 178.8570099  19.2329674  89.4002838 180.0636597  18.9685841
  89.7592316 177.9702911  18.4000473  89.8888855 177.0171509  18.7079487
  90.2555389 178.3323364  17.0454865  89.6999893 179.2039948  16.6995487
  91.7351379 178.6492157  17.1490993  92.0008392 179.0888824  16.1877460
  91.8615875 179.4756775  17.8484287  92.6188431 177.4463196  17.5795097
  92.2810822 176.3005981  17.4132538  93.7970505 177.7288513  18.0860806
  94.4526825 176.9685364  18.1964588  94.1860428 178.6580963  18.0134201
  89.8507767 177.2727661  15.9790230  90.2751694 177.3449554  14.8472443
  89.1856003 176.2010651  16.2940083  88.8979950 176.1600647  17.2613258
  88.7624969 175.2034302  15.3132219  89.6241913 174.8432159  14.7512341
  88.2056046 173.9202271  15.8757124  88.8640518 173.4976501  16.6346531
  87.3007736 174.1420288  16.4415474  87.8328323 172.8543091  14.9063196
  88.7425613 172.1080933  14.1764278  89.7693558 172.4323120  14.0928326
  88.3937531 170.9490814  13.4740305  89.1271439 170.3146057  12.9986544
  87.0664444 170.5260010  13.4478893  86.7172241 169.6658630  12.8959799
  86.0519791 171.3308716  14.0406361  84.9907761 171.1732941  13.9163923
  86.4662247 172.5294647  14.7036085  85.7567749 173.2187500  15.1371717
  87.7311554 175.8246307  14.2935038  86.7842102 176.5145264  14.6583071
  87.9635468 175.5921173  12.9949760  88.7412567 174.9783630  12.7985554
  87.0637054 176.0242615  11.9407711  86.7753830 177.0626678  12.1041880
  87.7539902 175.9762115  10.6246433  88.5504074 176.7197418  10.6559896
  88.1266327 174.9702148  10.4317179  86.8507309 176.3230286   9.4043589
  85.6962585 176.7496185   9.6858625  87.2519531 176.2214203   8.1965189
  85.7787476 175.1426697  11.9660292  85.6901627 174.0688171  11.3837709
  84.6486664 175.7199554  12.4573450  84.6290970 176.7017365  12.6936398
  83.3996201 174.9256134  12.7267570  83.6397705 174.0023651  13.2540665
  82.4976120 175.5186615  13.7263889  81.6046219 174.8982086  13.8019905
  83.1717148 175.6138611  15.1284208  83.8791199 176.4394989  15.0509071
  82.4637299 175.7879944  15.9386921  83.7137527 174.6800232  15.2775612
  82.0317383 176.7913208  13.3528500  81.5977936 177.1204224  14.1434088
  82.6442413 174.5097198  11.3931913  81.6509552 173.8469543  11.3815413
  83.2068787 174.9056091  10.2494354  83.9729233 175.5626984  10.2105541
  82.8085403 174.3156586   8.9591398  81.7245560 174.2051697   8.9885988
  83.0569839 175.2451324   7.7462626  82.4674911 174.9273376   6.8862591
  82.6902161 176.2556305   7.9265027  84.4192581 175.4089813   7.4595003
  84.8430557 175.8957367   8.1701775  83.4226913 172.9964447   8.6271276
  82.8015671 172.2522430   7.8446341  84.6086884 172.6514282   9.1955261
  84.9842300 173.2971649   9.8752956  85.2894669 171.3726654   8.8439274
  85.5074692 171.3246613   7.7770262  86.5874405 171.3033905   9.6184654
  86.2937088 171.5926514  10.6274977  87.0131073 170.3094177   9.7560215
  87.7530441 172.1574707   8.9866114  87.5357819 173.2221680   8.9009657
  88.9462280 171.9944458   9.9204750  89.2465591 170.9466248   9.9191027
  89.8401108 172.5929871   9.7449312  88.6284637 172.2478180  10.9318752
  88.2579956 171.5815887   7.6957688  87.4482803 171.4426880   6.9794025
  88.9722824 172.2405396   7.2021298  88.6979523 170.6106415   7.9233427
  84.5197906 170.0350037   9.0879993  84.9459305 169.0060425   8.5491848
  83.3851089 170.0022430   9.9127645  83.2347641 170.8334808  11.1321907
  82.5772858 171.6760101  10.9178238  84.2208862 171.1688690  11.4533806
  82.5039139 170.0043335  12.1627817  81.8066025 170.6420441  12.7060881
  83.2589417 169.5630646  12.8134060  81.7478485 168.9868927  11.1975670
  80.7305222 169.3311462  11.0114841  81.7420120 168.0016174  11.6637058
  82.4137268 168.9473724   9.8560114  82.9395447 167.9997864   9.7389870
  81.3629990 169.0445251   8.8180838  81.0037918 168.0193481   8.2125616
  80.8173065 170.2290497   8.5647249  81.1818466 171.0358734   9.0507679
  79.6331253 170.4565277   7.6780577  78.9096527 169.7450256   8.0761108
  79.0328903 171.8113403   7.7646184  78.1939468 171.7475128   7.0716553
  78.6229477 172.0795746   9.1906862  79.4540100 172.4555054   9.7874355
  77.8535995 172.8512268   9.2181482  78.2841339 171.2104187   9.7544823
  79.9091339 172.8313751   7.3673830  79.7975311 173.0769348   6.4460535
  79.8323441 170.1228943   6.1877956  78.8965225 169.7741089   5.4534807
  81.0773315 170.1467133   5.7570076  81.8304138 170.4503937   6.3576369
  81.6619186 169.6774139   4.4941454  81.1055527 170.0430145   3.6310747
  83.0579071 170.3108521   4.4123826  83.5240631 169.7925568   3.5744214
  82.8912201 171.3554230   4.1493888  83.7645340 170.1254120   5.6316199
  84.5317459 170.7023773   5.6225715  81.8080292 168.1467285   4.4280696
  81.7759323 167.5483856   3.3015189  81.7421875 167.4379730   5.6003351
  81.7328186 167.9008636   6.4979696  81.8680496 165.9390106   5.6589355
  82.0733643 165.6426697   6.6875901  80.5744171 165.1389008   5.3986402
  80.2228622 165.2747040   4.3758688  80.8757782 164.1092682   5.5913949
  79.4460068 165.3597565   6.3679013  79.4795456 164.7713776   7.6264849
  78.4142685 165.3033752   8.2340450  78.2262421 164.9973297   9.2525682
  77.7581482 166.1582031   7.4695230  77.0338821 166.7303162   7.8796959
  78.3847046 166.2245941   6.2675462  78.0684891 166.8084717   5.4157891
  83.1014938 165.3696136   4.9629154  83.1168213 164.2840271   4.3695073
  84.2466431 166.0655975   5.1602082  84.1454315 166.9859772   5.5636201
  85.4917831 165.7798615   4.5201287  85.4043427 166.0077820   3.4578166
  86.5084763 166.7732849   5.0927310  86.3986588 166.9697723   6.1592364
  87.5123978 166.3656921   4.9739013  86.4312363 168.1414185   4.2924047
  86.5284042 167.8478851   3.2471781  85.4099884 168.5149078   4.3675971
  87.5130539 169.5898590   4.7457576  89.0928955 168.9472351   4.2207723
  89.2472153 168.9061584   3.1425385  89.8597260 169.5830536   4.6632829
  89.2214432 167.9295044   4.5893002  86.0532150 164.3591766   4.7065935
  86.6150131 163.7927399   3.7669780  85.6931229 163.7167511   5.7848339
  85.1137543 164.2443390   6.4220757  86.1441727 162.2924652   5.9482884
  87.2326279 162.2672577   5.8959942  85.7251282 161.7415771   7.3356943
  86.1209030 160.7310944   7.4374819  86.2083206 162.3425293   8.1060772
  84.2085037 161.6036530   7.5789919  83.4963379 162.7851868   7.8672547
  84.0048370 163.7263641   8.0155993  82.1317825 162.7542267   8.0088348
  81.7503967 163.6964874   8.3736544  81.3908997 161.5774078   7.7566991
  80.0785828 161.4587860   7.8796906  79.7724228 162.3627777   7.7763934
  82.1118774 160.4191742   7.4630022  81.5398483 159.5272827   7.2539053
  83.5102844 160.4037170   7.3741484  84.0469131 159.5197754   7.0625567
  85.5579453 161.3185425   4.9537249  86.2940369 160.3302765   4.6374044
  84.3278656 161.5726929   4.3581400  83.9175797 162.4632721   4.6003361
  83.6758804 160.6754913   3.3906362  83.8016586 159.6557159   3.7544568
  82.1716995 161.0606537   3.4180899  81.6920395 160.9721527   4.3928685
  82.2338409 162.1193390   3.1662574  81.2421494 160.3862152   2.3827600
  81.4854965 160.6100006   1.3441066  81.0947952 158.8757019   2.5733223
  80.7980576 158.6390076   3.5950973  80.3727951 158.4030914   1.9073952
  82.1064377 158.4701233   2.5598886  79.8625107 161.0167389   2.4623518
  79.9441528 162.0637512   2.1704648  79.2850647 160.6874695   1.5984979
  79.3628159 160.8966980   3.4235969  84.3503189 160.8851929   2.0457983
  84.2096481 160.0594330   1.1300627  84.9845657 162.0576324   1.8242937
  84.8666534 162.8154602   2.4814808  85.7723923 162.3288574   0.6575528
  86.8311234 162.2933044   0.9143190  85.6271973 161.6290741  -0.1654512
  85.5698929 163.6945343   0.0323196  84.4685974 164.1741638   0.0647971
  86.5412674 164.2530365  -0.6860185  87.4689484 163.8565521  -0.7340605
  86.4058685 165.4726868  -1.5154793  85.6052551 166.1105042  -1.1408777
  87.7743912 166.2434692  -1.3915184  87.5477982 167.2063141  -1.8494314
  88.1025696 166.3558960  -0.3581946  88.7432556 165.6378479  -2.1847270
  89.4135971 166.2821655  -2.4236963  86.1417389 165.0762787  -3.0380113
  86.1683197 163.8963165  -3.3634706  85.9769974 166.0936432  -3.8925085
  86.0646973 167.0449524  -3.5647986  85.8252182 165.8208923  -5.3723135
  85.5681534 166.7845154  -5.8121567  87.1997528 165.3668976  -6.0043163
  88.0192108 166.0407257  -5.7542214  87.5430679 164.3989410  -5.6392469
  87.2044907 165.2756958  -7.5337958  86.4012222 165.9473267  -8.2180071
  88.0372696 164.4737854  -8.0538521  84.6299210 164.9217834  -5.7319403
  84.7720871 163.8617554  -6.3787208  83.4758377 165.2295837  -5.1235461
  83.5250626 166.1312714  -4.6711650  82.1792145 164.7030792  -5.6076689
  82.4473801 163.7130127  -5.9763646  81.2246323 164.5144958  -4.4199624
  80.7479630 165.4643097  -4.1775694  80.4201813 163.8900757  -4.8086300
  81.9004898 163.7790833  -3.2614424  82.2516556 162.7840271  -3.5346963
  82.7241287 164.4122314  -2.9315441  80.7544632 163.6372223  -1.8920153
  79.6540604 162.3283539  -2.4637351  80.2283478 161.4182129  -2.6367507
  78.8676605 162.2119904  -1.7179930  79.1474991 162.5863037  -3.3937635
  81.5797043 165.4942322  -6.7848587  81.7840424 166.6800537  -7.0301294
  80.6017914 164.8875122  -7.4504623  80.4030075 163.9373169  -7.1717176
  79.5777359 165.5686188  -8.2908258  80.0559387 166.3259125  -8.9120674
  79.1249008 164.4529266  -9.2873831  79.9571152 163.9503632  -9.7802753
  78.5808334 163.6765594  -8.7494850  78.2123032 165.0933228 -10.3712063
  77.3845978 165.5523987  -9.8305807  78.7622528 165.9138184 -10.8321381
  77.5860138 164.0824585 -11.4677830  76.9710999 163.0959625 -10.9900866
  77.7726440 164.3114471 -12.6899910  78.4404526 166.2180176  -7.5246806
  77.7190704 165.5730286  -6.7110500  78.1595688 167.5042419  -7.7556462
  78.7253876 167.9240265  -8.4793329  77.0252304 168.2183533  -7.0697360
  76.6433716 167.7029724  -6.1884489  77.5078049 169.5947418  -6.6004448
  77.8890915 170.2130280  -7.4131207  76.6577225 170.1368713  -6.1862383
  78.4927292 169.5316010  -5.4865074  78.0828094 169.0317230  -4.6088991
  79.3753281 168.9852753  -5.8191628  78.9315567 170.9059753  -4.9522128
  77.9945602 171.7323456  -4.7026668  80.1266174 171.2016296  -4.6384406
  75.7831039 168.4004669  -7.9523749  75.8392715 168.4303589  -9.1856394
  74.6002808 168.6518402  -7.2905412  74.7072601 168.5978088  -6.2876768
  73.2973404 168.9723816  -7.8802547  73.4250488 169.1199799  -8.9526377
  72.3351135 167.8175049  -7.6103201  72.3192368 167.6383667  -6.5352588
  71.3230591 168.0885468  -7.9109626  72.7061996 166.5281982  -8.3703756
  72.2379303 166.2191467  -9.6485958  71.5853195 166.9170990 -10.1519508
  72.5011063 165.0257568 -10.2666159  72.0788651 164.8249817 -11.2401648
  73.3391724 164.1093140  -9.6132612  73.6338577 163.1246643  -9.9449883
  73.8556976 164.3711700  -8.3533459  74.4632568 163.6479645  -7.8296518
  73.5281906 165.5741882  -7.7277794  73.8152313 165.7677002  -6.7047648
  72.7550278 170.2930603  -7.3282967  72.8158951 170.5677032  -6.1505570
  72.1717148 171.0514526  -8.2277098  72.0963745 170.6430054  -9.1483612
  71.8721313 172.4983063  -8.0969200  72.2541504 172.9687500  -7.1909142
  72.5082779 173.2593536  -9.3054981  72.4332352 174.3349304  -9.1455355
  73.5275726 172.8795776  -9.3755484  71.8879242 172.8989105 -10.6672697
  72.1061401 171.7675171 -11.4184380  71.4654999 171.9513550 -12.5592384
  71.5008087 171.2857208 -13.4090023  70.7118301 173.0699005 -12.4908705
  70.1081238 173.4387665 -13.2116928  71.0248337 173.7048187 -11.3009167
  70.7520294 174.7020569 -10.9886799  70.3979950 172.9667053  -7.9862061
  70.1001587 173.8401642  -7.2073736  69.4479370 172.4296570  -8.7791624
  69.8623123 171.8159637  -9.4660110  67.9648132 172.6020203  -8.7022886
  67.7698898 173.6558533  -8.5034409  67.5134583 172.4646759  -9.6848936
  67.2846756 171.7187042  -7.6664538  67.7265091 170.5670471  -7.4361920
  66.4387817 172.2843170  -6.8389053  66.1263733 173.2244568  -7.0355067
  65.7631989 171.5538177  -5.7146716  66.4625854 170.8178101  -5.3181543
  65.4424515 172.5836334  -4.5580177  64.8749771 173.4743042  -4.8278041
  64.8954391 172.0444489  -3.7846150  66.7346115 173.1692810  -3.9695444
  67.3860855 173.4967041  -4.7797709  66.4830627 173.9629669  -3.2660739
  67.5708389 172.2012939  -3.1224160  67.1914215 172.1150513  -2.1042266
  67.4494781 171.2164459  -3.5734758  68.9807663 172.4943542  -3.1585419
  69.4619217 172.0050049  -3.8995657  69.7384262 173.2310944  -2.3519666
  69.2727280 173.9269867  -1.3833944  68.2706757 174.0195465  -1.2972473
  69.7229614 174.5491638  -0.7274200  70.9967804 173.3643341  -2.5554285
  71.4640961 172.8096313  -3.2582936  71.6125336 174.0708008  -2.1787672
  64.4953613 170.7863464  -6.1129251  63.7849121 171.1320343  -7.0486870
  64.2717133 169.6455231  -5.4491305  64.9232101 169.3230133  -4.7479620
  63.0773315 168.7811432  -5.4833093  62.6690636 168.9905090  -6.4720368
  63.4654274 167.2114563  -5.3989625  63.6554108 166.9620667  -4.3550239
  62.3392220 166.2536926  -5.8149090  62.0284157 166.5037537  -6.8292847
  62.7564735 165.2468414  -5.7982001  61.5724182 166.2437286  -5.0403085
  64.6680450 166.9006348  -6.1175547  64.7289581 165.9431763  -6.0835881
  62.0597992 169.0854492  -4.3791032  62.1888847 168.6605682  -3.2417686
  60.9718933 169.7224731  -4.7466035  60.9243011 170.1394806  -5.6652713
  59.7391968 169.9450684  -3.9651942  59.8993607 169.2879639  -3.1104040
  59.5222015 171.3756561  -3.4135406  59.6352768 172.0157013  -4.2885556
  58.5075645 171.5761566  -3.0694332  60.5669556 171.7194824  -2.4260442
  61.4988480 171.3019104  -2.8072422  60.8156776 173.2035828  -2.2099311
  60.0506744 173.7021942  -1.6147449  61.7078819 173.2799530  -1.5884492
  61.0116425 173.7162018  -3.1517000  60.3510399 171.1277466  -1.0262060
  60.3591919 170.0392456  -1.0825969  61.1837959 171.4795685  -0.4172437
  59.4206657 171.4539948  -0.5613565  58.4520035 169.5123901  -4.7104878
  58.1321259 169.9177094  -5.8379717  57.6790962 168.7429962  -3.9909422
  57.9047356 168.6669464  -3.0094121  56.2750740 168.3471069  -4.2589412
  56.1955299 168.3085175  -5.3453503  56.1110153 166.8725433  -3.8204794
  56.0999718 166.8500366  -2.7307708  55.1775742 166.4241638  -4.1606941
  57.2101135 166.0430603  -4.2827144  58.3130493 165.7576141  -3.5627978
  59.0306778 165.0367584  -4.3942657  59.9708672 164.5817413  -4.1196694
  58.4490471 164.9006042  -5.6194158  58.8579674 164.4409485  -6.4204211
  57.2427597 165.5385437  -5.5591645  56.4722023 165.6554871  -6.3068037
  55.2292747 169.2556152  -3.6908243  55.4260864 170.0552368  -2.7740664
  54.0455170 169.2256165  -4.2778702  53.9308243 168.8241425  -5.1975265
  52.8865700 170.0122375  -3.8121495  53.2905312 171.0238953  -3.7739508
  51.7439957 170.0259705  -4.8648567  51.2779884 169.0413361  -4.8270483
  50.9935532 170.7314758  -4.5082088  52.1968384 170.5008850  -6.2388506
  51.6803169 171.5074615  -6.7401233  52.9823799 169.7620087  -6.8892894
  52.3430328 169.6962280  -2.4224737  52.4071159 168.5875854  -1.8812740
  51.8569908 170.7174683  -1.7045909  51.6586533 171.4866180  -2.3284254
  51.3808022 170.6046295  -0.3763926  52.2153130 170.2601166   0.2343441
  51.0963440 172.0447083   0.1531432  50.3065300 172.4478607  -0.4807050
  50.7350960 172.0032349   1.1807036  52.3827209 172.9086456   0.1540449
  53.4598389 172.3467712   0.5126090  52.4452591 174.0921478  -0.2011770
  50.1779861 169.6799469  -0.3415449  49.1859589 169.8325500  -1.0469941
  50.2709389 168.7125854   0.6121922  51.1351089 168.6893921   1.1344739
  49.3807030 167.5111847   0.8999752  49.9209251 166.9135895   1.6342347
  48.0969276 168.0109711   1.5489134  47.7453156 168.8680267   0.9745250
  47.3713875 167.2032166   1.4528747  48.2948570 168.4307709   2.9864624
  48.6505890 167.5734711   3.8104384  47.9483109 169.6029816   3.3378396
  49.1028862 166.6098785  -0.3883429  48.1646500 165.8246765  -0.4920818
  49.9157639 166.6873474  -1.4059044  50.7218895 167.2858429  -1.2960432
  49.8789406 165.7007294  -2.5005503  48.9231262 165.6348877  -3.0203481
  50.7802544 166.1768951  -3.6089380  50.5777664 165.5269318  -4.4601974
  50.6305008 167.2202759  -3.8865173  52.1703186 166.0919952  -3.3525112
  52.4225960 166.9460754  -2.9940629  50.3674889 164.2607880  -2.0907741
  51.2123222 164.1478729  -1.2076792  49.7205467 163.2238159  -2.6671720
  48.9104004 163.3961792  -3.2451458  50.0534935 161.7868195  -2.4443519
  50.3921127 161.6985626  -1.4120495  48.7602539 160.9336243  -2.5282643
  48.2423630 161.1661835  -1.5977793  48.0905457 161.0826721  -3.3752432
  49.0520668 159.1338959  -2.6364858  49.0610313 158.9767456  -3.9631820
  51.1636009 161.4270782  -3.3549473  51.0961571 161.8383179  -4.5213828
  52.1271553 160.6964264  -2.8220711  52.0527573 160.4622040  -1.8424239
  53.3429565 160.3135681  -3.6140788  53.1487579 160.2926941  -4.6864386
  54.4969978 161.2289276  -3.2386405  54.9396820 161.0321960  -2.2622042
  55.3146400 160.9995270  -3.9219720  54.3150482 162.7336578  -3.4573739
  53.5527534 163.0835266  -2.7612419  55.2570877 163.2241669  -3.2122772
  53.9203491 163.0738831  -4.8852344  54.2575150 162.3463593  -5.8008375
  53.3307304 164.2193146  -5.2430573  52.8696442 164.2460327  -6.1412711
  53.0781593 164.9036102  -4.5444598  53.7907295 158.8741760  -3.2628555
  53.4249611 158.4683990  -2.1541193  54.5818787 158.1782990  -4.0406075
  54.8217049 158.5373993  -4.9536400  55.2378235 156.9626923  -3.6474731
  55.0163307 156.8308411  -2.5883868  54.7002373 155.7682037  -4.4335608
  53.6169548 155.8538971  -4.3483562  54.9914284 155.5868225  -6.0164590
  56.0680275 155.4673004  -6.1379251  54.3872986 154.7566986  -6.3825693
  54.6962280 156.5162659  -6.5033760  55.1420975 154.4561920  -3.7756715
  54.7392464 154.3894348  -2.7650461  54.7209969 153.6219025  -4.3366628
  56.2164230 154.3457642  -3.6282578  56.7240944 157.0916748  -3.8374093
  57.1221657 157.5628815  -4.8905349  57.5261879 156.8143463  -2.8109553
  57.0884247 156.5372467  -1.9439611  58.9479027 157.1927185  -2.7635913
  59.2911110 157.4528961  -3.7649035  59.0097923 158.5942383  -2.0158870
  58.5847473 158.5102386  -1.0156918  60.4760399 159.0699005  -1.7905577
  60.9546928 159.3200836  -2.7373419  60.4212036 159.9949646  -1.2166607
  61.1644135 158.3280182  -1.3857667  58.2027435 159.7135315  -2.7419949
  58.4876060 159.7462158  -3.7936063  57.1378670 159.5257568  -2.6046023
  58.3468742 161.1729279  -2.2803946  59.2331314 161.5830841  -2.7645626
  57.5239754 161.7966156  -2.6296110  58.3164330 161.2305603  -1.1923443
  59.8639565 156.0796661  -2.2226665  59.4865189 155.5002747  -1.2006780
  61.0550156 155.7389984  -2.7898340  61.6283836 156.3222961  -3.9668264
  61.8332825 157.3921051  -3.9264317  60.9873543 156.0791626  -4.8142152
  62.9822502 155.5852051  -4.1938972  63.8446121 156.1793060  -3.8914435
  63.1319313 155.2859497  -5.2312727  62.9034996 154.2785187  -3.3721161
  63.8427391 153.9254913  -2.9463120  62.5654335 153.5119934  -4.0694447
  61.9350891 154.6371155  -2.2474513  61.2347679 153.8251190  -2.0516694
  62.6280479 154.8787079  -0.8559955  62.8049507 155.9290771  -0.3472456
  63.1168404 153.7602386  -0.2482371  62.8607674 152.8542480  -0.6139212
  63.6701851 153.7856293   1.0905347  64.0308456 154.7788849   1.3578622
  62.6461334 153.2875671   2.1770861  62.4048309 152.2418060   1.9866980
  63.2863884 153.3398743   3.5745997  63.6228867 154.3495026   3.8102248
  62.5924683 152.9873352   4.3376751  64.1135559 152.6352997   3.6610436
  61.2877769 154.0980682   2.1343346  60.7987480 154.0272675   1.1627710
  60.6777954 153.6832886   2.9368222  61.4571266 155.1634064   2.2907538
  64.8383255 152.8192596   1.0876212  64.6349564 151.6258698   0.8159491
  65.9913406 153.1517334   1.6323781  66.1142578 154.0812531   2.0078783
  67.0970688 152.2735596   1.8952514  67.2320175 151.4937286   1.1457436
  68.4061432 153.0468597   1.8563764  68.4167633 153.6412048   2.7700214
  69.1212158 152.2446594   2.0386930  68.8060379 153.9244843   0.6243809
  67.9263992 154.4704742   0.2834737  69.8254395 155.0163269   1.0768872
  70.7051544 154.5178528   1.4839566  70.1191177 155.5958252   0.2016479
  69.2791519 155.6562500   1.7698460  69.4820786 153.1128082  -0.5057845
  68.7280197 152.3703461  -0.7670828  69.8877106 153.6949005  -1.3332640
  70.2759094 152.4983826  -0.0810403  66.8815155 151.6246338   3.2860487
  66.8622894 152.3271790   4.2674375  66.7172546 150.2959137   3.3689995
  66.5470505 149.3724518   2.2521484  67.3879776 149.4473572   1.5627086
  65.6254272 149.6201324   1.7254771  66.4932022 147.9764862   2.9605353
  67.4779510 147.5152740   3.0356405  65.8373260 147.2739105   2.4464178
  65.7800064 148.2961121   4.2932544  66.0274353 147.6126404   5.1055055
  64.7091522 148.4189911   4.1311650  66.3277435 149.6905823   4.6219316
  65.5726395 150.3228912   5.0889349  67.4666138 149.6150665   5.6488485
  67.2079849 149.3524475   6.8534942  68.7415237 149.8113251   5.2103009
  68.9307861 149.9052429   4.2226462  69.8635178 150.0370026   6.1853218
  69.6602173 149.4560089   7.0848832  71.1774979 149.4674530   5.6578465
  71.4130249 149.7212067   4.6242895  72.0042953 149.7873535   6.2920113
  71.1369476 147.9431000   5.6608057  70.5936890 147.1309967   4.6064763
  70.5942307 145.8769684   5.1613445  70.1823578 144.9988708   4.6862636
  71.0374832 145.8920441   6.4651980  71.1946030 145.0585327   7.0135365
  71.4122849 147.1967163   6.7897625  71.7852554 147.5614319   7.7354212
  69.9380875 151.4302979   6.8032832  70.7487793 151.7129059   7.6828189
  69.0328751 152.3616943   6.3690124  68.4666977 152.1315765   5.5649042
  68.7864838 153.6616974   7.1027913  69.6868362 154.1155090   7.5169439
  68.2830353 154.8889465   6.2453785  67.4255295 154.4555359   5.7306552
  67.8190536 156.0117950   7.1612759  68.6367874 156.2513580   7.8409963
  67.5700455 156.9302826   6.6298113  66.9572296 155.7374115   7.7696176
  69.3479919 155.3158112   5.2583785  69.8704147 154.4787903   4.7951632
  68.8773193 155.9623871   4.5177717  69.9932175 155.9373322   5.8792467
  67.8700333 153.3637085   8.3558512  66.8174133 152.8915405   8.0377598
  68.3265762 153.6931915   9.5996923  69.3293991 153.7322998   9.7133808
  67.5268326 153.3947601  10.8016691  66.4996109 153.1229858  10.5586786
  68.0993423 152.1261749  11.4704208  69.1723938 152.1627197  11.6583920
  67.5604324 151.9402466  12.3994579  67.8987732 150.8896942  10.6548395
  66.8231583 150.7783051  10.5179052  68.4372406 150.9963989   9.7131586
  68.5209503 149.4104462  11.4592171  69.0961609 148.5299225  10.0113573
  69.9464874 149.0126953   9.5297194  69.2769012 147.5099335  10.3505440
  68.2738266 148.4055634   9.3067932  67.4108810 154.6018066  11.7584457
  66.5324326 154.5722198  12.6583576  68.0949936 155.7307739  11.4849997
  68.5710983 155.8305969  10.5998650  67.9233246 157.0397339  12.2187262
  67.6880417 156.8668671  13.2688971  69.1893845 157.8946228  12.2534332
  68.9793625 158.7770996  12.8577824  70.2265854 157.1731110  13.1039648
  70.5757751 156.2420349  12.6575727  71.0569229 157.8170624  13.3937407
  69.8039780 156.9524384  14.0841713  69.6969147 158.2904510  10.8610249
  68.8995819 158.6976624  10.2392988  70.4392624 159.0650940  11.0532494
  70.0909576 157.3704681  10.4292154  66.7630768 157.8158417  11.6257992
  66.3649979 157.6822052  10.4727116  66.2724762 158.7065125  12.4138098
  66.5677719 158.6900482  13.3795385  65.2807693 159.5981140  12.0123224
  64.6175156 159.1790924  11.2556095  64.4422607 159.8913422  13.2208729
  64.0170898 158.9313812  13.5137815  65.0555801 160.1742706  14.0763826
  63.3145714 160.9081116  12.9102926  63.5933151 161.8807983  12.5049629
  62.6570587 160.5019531  12.1416483  62.4475822 161.4057465  14.3765717
  62.3938484 159.9525909  15.4200039  63.3347740 159.7431488  15.9288139
  61.7191658 160.1436615  16.2545090  62.0419846 159.0909271  14.8527279
  65.9052734 160.9290009  11.4679060  66.7071533 161.5526581  12.1356010
  65.5532913 161.2561646  10.2348928  64.8925018 160.7016296   9.7095861
  65.9755554 162.4976501   9.6185255  66.9524994 162.7696838  10.0181274
  66.0992508 162.2465668   8.0531101  66.7547073 161.3868713   7.9138403
  65.1121521 161.9560547   7.6934729  66.5571365 163.4355164   7.2427454
  65.8694611 164.2664032   7.4003062  68.0313721 163.8298950   7.5951133
  68.5877762 162.9114685   7.4080105  68.4597702 164.5276794   6.8756170
  68.1852798 164.1919708   8.6116343  66.5364761 163.0629272   5.7228131
  65.6063995 162.6127014   5.3758869  66.8813934 163.9118805   5.1325469
  67.3515472 162.3578491   5.5596795  64.8970642 163.5262451   9.9685564
  63.7323418 163.3528748   9.5953274  65.2486877 164.6697083  10.5230684
  66.2357254 164.6774139  10.7370720  64.4596024 165.9191132  10.5680761
  63.3960037 165.6808624  10.5579758  64.7459946 166.6616669  11.8991299
  65.7818604 166.9977417  11.8528271  63.9244347 167.9841003  12.0575848
  62.8669319 167.7667999  11.9073439  64.1091156 168.3926697  13.0510950
  64.2092514 168.6930237  11.2801476  64.5176086 165.7927551  13.1308250
  65.2827454 165.0329437  13.2900543  64.5593033 166.3704376  14.0542183
  63.1827927 165.0697937  13.2523584  63.0149269 164.3518219  12.4495897
  63.1283722 164.5853729  14.2272768  62.3377419 165.7525635  13.1638889
  64.8311310 166.7901764   9.3378868  65.9661102 166.6381073   8.8703032
  63.8556900 167.5041199   8.7249660  62.4091530 167.3918152   8.8744507
  62.1412926 167.8420105   9.8303108  62.1733780 166.3296661   8.8084993
  61.7913437 168.0771332   7.6841846  60.8334541 168.5130157   7.9680104
  61.6654167 167.2752228   6.9567337  62.7988434 169.1124878   7.2779474
  62.7704277 170.0278015   7.8691354  62.7534561 169.3182983   6.2085128
  64.1901398 168.4768524   7.5959821  64.4860077 167.9953766   6.6639228
  65.2728500 169.4237976   7.9648037  65.5555878 169.6276703   9.1669798
  65.9254303 170.0711670   7.0024662  65.4841156 170.0210419   6.0953655
  67.1217728 170.9514313   7.1554332  67.2053528 171.4686737   6.1996260
  66.8518295 171.7024841   7.8978333  68.4342957 170.2881317   7.5844421
  69.5311279 170.9131775   7.5092778  68.3842850 169.0344086   8.1305370
  67.4540405 168.8329620   8.4684162  69.5316086 168.1930389   8.5821047
  70.1778564 168.7952881   9.2206573  68.9781342 167.0447693   9.5123749
  68.2863922 167.4544678  10.2483988  68.3628922 166.3333282   8.9615250
  70.1339417 166.3533630  10.2315397  70.7677536 165.7517090   9.5800810
  70.7666779 167.1256104  10.6689968  69.6465073 165.4582672  11.4330940
  68.5234604 165.5171661  11.8748150  70.4831238 164.5642700  12.0177107
  70.2585297 164.0498657  12.8573837  71.3374405 164.3078613  11.5439024
  70.3115234 167.6040192   7.4037399  69.6974945 167.0560913   6.4823070
  71.6341019 167.6566162   7.4584746  72.0440903 168.0580444   8.2896605
  72.4742737 166.9938507   6.4424353  71.9689331 166.9457855   5.4778514
  73.8334122 167.6856232   6.3727698  74.3610764 167.5986786   7.3225651
  74.7197876 167.2652130   5.2048039  74.2400589 167.4526825   4.2441730
  75.6459961 167.8374939   5.2570124  74.9584045 166.2088013   5.3279767
  73.6732788 169.0717163   6.1157269  73.1894760 169.5792236   6.7714472
  72.7332535 165.4862518   6.8553820  73.0056763 165.2182465   8.0271997
  72.8085632 164.5728760   5.8714271  72.5553284 164.8750763   4.9415646
  72.8401031 163.1443481   6.0556026  73.0333939 162.9519806   7.1109366
  71.4637527 162.5000153   5.7870841  70.6894989 163.0052185   6.3644881
  71.2349243 162.5767822   4.7241426  71.4160995 160.9969482   6.1870170
  72.2775497 160.5738525   5.6703072  71.6119690 160.7462616   7.7139773
  70.9520264 161.3425446   8.3440809  71.4515076 159.7365723   8.0919542
  72.6653366 160.8536530   7.9728327  70.1157532 160.4254913   5.7710586
  69.9981155 160.6413574   4.7091422  70.1217422 159.3456573   5.9195342
  69.3150558 160.8638306   6.3667440  73.9345245 162.5452423   5.1053534
  73.6775665 162.2035370   3.9526427  75.1187668 162.2142181   5.6044054
  75.5696869 162.5819397   6.9297872  74.9599762 162.1174164   7.7047510
  75.6612167 163.6670837   6.8827910  76.9635239 162.0284576   7.0777235
  76.9497604 161.0682373   7.5933685  77.5764999 162.6877899   7.6922431
  77.4617538 161.8497925   5.6750579  78.2652359 161.1298676   5.5193696
  77.7116699 162.8159943   5.2367697  76.1511383 161.5604248   4.9468703
  76.2717667 161.8670197   3.9078574  75.9138641 160.0909882   4.9078245
  75.7951202 159.4885101   5.9794960  75.8425064 159.4758301   3.7472506
  75.8715210 159.9886627   2.8776131  75.8211060 157.9879150   3.6648326
  75.8944702 157.6092682   4.6843166  74.4738846 157.5321503   3.0204198
  74.4422913 157.9088745   1.9980737  74.3890305 156.4544067   2.8812556
  73.1900101 157.8789520   3.6988280  73.1306915 158.9640656   3.7830582
  72.0416794 157.4551849   2.8251092  72.0289917 156.3747253   2.9684980
  71.0727234 157.8357086   3.1482651  72.1062012 157.8580017   1.8143243
  73.0835648 157.3132935   5.1446891  73.7677612 157.7532654   5.8702273
  72.0859985 157.5738983   5.4983082  73.2175674 156.2372742   5.2555938
  76.9676590 157.4245300   2.7817085  77.5069656 158.1060944   1.9352248
  77.2522049 156.1192322   2.9885430  76.6626740 155.7171173   3.7032871
  78.2268372 155.2829895   2.2451663  78.4493103 155.6566620   1.2456789
  79.5832443 155.2657623   3.0149586  80.0052490 156.2690887   2.9572985
  79.4690933 155.0499725   4.0772710  80.5747147 154.1914520   2.5601046
  80.2377014 153.1686096   2.7284033  80.6355896 154.2400970   1.4728934
  82.0345154 154.2364197   2.9725893  82.4538574 154.9951630   3.8468094
  82.8762970 153.3832550   2.3886411  83.8322296 153.3652954   2.7141726
  82.5593338 152.8837738   1.5700078  77.6779785 153.8607178   2.0501165
  77.4211655 153.0835876   2.9861357  77.3117065 153.5032501   0.7731804
  77.5315475 154.0687714  -0.0342490  76.3185120 152.4337006   0.5290005
  75.9353409 152.0475922   1.4735626  75.1119919 153.1485138  -0.1475778
  75.4962692 153.4342041  -1.1267638  74.3902130 152.3408661  -0.2695228
  74.3694458 154.2302246   0.6281957  75.0936966 155.0193024   0.8305251
  73.2955780 154.9563599  -0.1370465  72.4979019 154.2888947  -0.4630963
  72.9035645 155.7515717   0.4970329  73.8113785 155.3759918  -1.0007304
  73.7577362 153.7428131   1.9683558  74.4780502 153.2544708   2.6246932
  73.1953888 154.4409180   2.5884509  73.0993500 152.9075928   1.7295226
  77.0463867 151.3799438  -0.3496308  77.5112915 151.6792603  -1.4747506
  77.1161499 150.1468048   0.1376156  76.7305756 149.9619598   1.0526369
  77.9245300 149.0926056  -0.3533898  78.1978302 149.3562317  -1.3751105
  79.2001953 148.9696655   0.4714607  79.8636322 148.2435608   0.0016570
  79.6956253 149.9372559   0.3912708  79.0234222 148.5997314   1.9734762
  78.5618362 149.6201782   2.8784361  78.3639908 150.6100159   2.4944260
  78.2572479 149.2789764   4.1874919  77.6907501 149.9700470   4.7940383
  78.3828354 147.9727936   4.6388459  78.0366516 147.6374054   5.6053271
  78.8985596 146.9523468   3.7556925  78.8665161 145.9256592   4.0893130
  79.2047653 147.2627106   2.4527004  79.5574951 146.5607300   1.7116166
  77.2817688 147.6457214  -0.5139158  77.9366684 146.8132782  -1.1865854
  76.0741806 147.3889008  -0.0299823  75.6407166 147.9993439   0.6479364
  75.2637558 146.2659760  -0.5750740  75.8691101 145.3596344  -0.5889583
  74.0388641 145.9930420   0.2608176  73.4561005 146.9039459   0.3976315
  73.3925781 145.2955475  -0.2720325  74.4302521 145.3680725   1.6347979
  75.0940781 144.1119080   1.7523905  75.1365204 143.8961639   3.0943096
  75.6600494 143.0415497   3.4967446  74.5708313 144.9455872   3.7667000
  74.4352188 144.9832611   4.7668452  73.9637375 145.8055420   2.8531592
  73.2566528 146.5920410   3.0718980  74.7358780 146.5913696  -2.0122631
  74.2644196 147.7324066  -2.1894956  74.6322403 145.6253815  -2.9629078
  75.0385208 144.2370605  -2.8107386  74.6868973 143.7965698  -1.8777697
  76.1272736 144.2062225  -2.8529708  74.5574493 143.4783630  -4.0458465
  73.5254364 143.1321716  -3.9894061  75.2188263 142.6214447  -4.1738725
  74.6585541 144.5306702  -5.0872817  73.9926987 144.4573059  -5.9471393
  75.6843414 144.5442963  -5.4556222  74.4063110 145.8723450  -4.3969741
  75.1493454 146.5375671  -4.8368478  73.0160828 146.5070190  -4.6845565
  72.9125900 147.4983521  -5.4793458  71.9404373 146.0715027  -4.0191579
  71.9276505 145.2480011  -3.4345365  70.6398392 146.6593170  -4.2072425
  70.5606842 146.6476898  -5.2943039  69.5585480 145.7063446  -3.6337385
  68.6079178 146.0957336  -3.9981182  69.6738739 144.7509766  -4.1456704
  69.2867661 145.5300293  -2.1834908  69.0541687 146.5223389  -1.7970530
  68.3513107 144.9884033  -2.0432520  70.2876740 144.8411255  -1.2868062
  71.4417191 144.6230774  -1.6916600  69.9931030 144.6094208   0.0097920
  70.7565765 144.3295135   0.6088441  69.0851288 144.7513275   0.4287730
  70.6811829 148.1117096  -3.7709091  69.9284134 148.8989868  -4.3072443
  71.4600220 148.5694122  -2.7847369  72.0485458 147.9777832  -2.2157717
  71.4564743 150.0113525  -2.3952510  70.4407425 150.4060364  -2.4200890
  72.0241394 150.1504517  -0.9635676  73.0727310 149.8981476  -0.8058083
  71.9431229 151.2007446  -0.6835005  71.1579514 149.3248444   0.0320514
  70.1069794 149.5006104  -0.1974666  71.4520264 148.2770538  -0.0290616
  71.3704453 149.8320465   1.5056255  72.5262527 149.9804993   2.0064359
  70.3276596 149.9732208   2.1858706  72.2613831 150.9390106  -3.3438776
  71.8230438 152.0358582  -3.6207709  73.2852097 150.4279633  -3.9374154
  73.6258469 149.5412750  -3.5941336  74.0967255 151.0450287  -4.9932079
  74.4137115 152.0383148  -4.6754079  75.3381042 150.1911621  -5.2988605
  75.0470200 149.1746521  -5.5636196  76.2332230 150.8787689  -6.3814220
  76.6158981 151.8450317  -6.0527515  77.0366135 150.1734619  -6.5940356
  75.6681442 151.0771179  -7.2921591  76.1682663 150.0950012  -3.9833536
  75.9773331 149.2165833  -3.3669004  77.2233963 150.0152130  -4.2449379
  76.1573563 150.9980316  -3.3730009  73.2178497 151.1537018  -6.2472677
  73.2398453 152.1770477  -6.9327159  72.4060287 150.1415710  -6.5391912
  72.4779739 149.2902679  -6.0004911  71.4736404 150.1013489  -7.7026548
  72.1317978 150.0843964  -8.5713577  70.6895828 148.7834015  -7.8222275
  71.3451157 147.9251709  -7.6744761  70.0469360 148.7811432  -6.9418292
  69.9134369 148.7558289  -8.9897461  69.2788086 148.0374298  -8.9373608
  70.4941559 151.2457275  -7.6467404  70.3055038 151.9364319  -8.6260872
  69.9652023 151.5550079  -6.4532356  70.3203964 151.1440125  -5.6017523
  68.8346329 152.4582672  -6.3325086  68.0728760 152.3216858  -7.1000900
  68.0815277 152.2502289  -4.9890337  68.0271149 151.1732635  -4.8300161
  68.6880722 152.7308044  -4.2214046  66.5726013 152.7542419  -4.8587761
  66.0424805 152.5352173  -5.7856531  66.1125336 152.1576996  -4.0710168
  66.3878250 154.5310516  -4.5313392  66.9451752 154.7516785  -2.8775535
  68.0317383 154.7629089  -2.7918284  66.6410980 155.7655945  -2.6175284
  66.4940796 153.9742432  -2.2609465  69.2720718 153.8959503  -6.4750810
  68.6547928 154.6366730  -7.2255158  70.2415161 154.3126068  -5.6910396
  70.6559906 153.6586151  -5.0424895  70.6427155 155.7005310  -5.6658030
  69.7285538 156.2771606  -5.5246668  71.6678314 155.9829865  -4.5536604
  71.9042664 157.0468597  -4.5729027  71.2401810 155.4737549  -3.1615701
  71.3446045 154.3919830  -3.0780423  71.7232971 156.0007629  -2.3387928
  70.1679306 155.6531372  -3.0829189  73.0261765 155.3382416  -4.7545967
  73.5652618 155.6269226  -5.6569014  73.6121445 155.5806122  -3.8680308
  72.8568344 154.2658691  -4.8517466  71.1335526 156.1026154  -7.0445418
  70.8559113 157.2188416  -7.4841418  71.7225800 155.1833954  -7.7793489
  71.7632523 154.2669830  -7.3566756  72.1327820 155.3730316  -9.2006426
  72.6641159 156.3099060  -9.3681278  73.0271301 154.2021790  -9.6488247
  73.9353027 154.0851288  -9.0575390  72.4254608 153.3039093  -9.5101337
  73.3726883 154.3312836 -11.1011877  72.4743042 154.4325714 -11.7100801
  74.1328812 155.0980530 -11.2504377  73.8327179 152.9432220 -11.5769062
  73.0104675 152.2575684 -11.3722439  73.9860001 152.9455719 -12.6560755
  75.1588821 152.5389252 -11.0525217  75.7342758 153.3393707 -10.8327045
  75.6940918 151.3384399 -10.9636726  75.1622772 150.3149414 -11.5531235
  74.3090820 150.4049072 -12.0860996  75.6535721 149.4356079 -11.4788036
  76.8241959 151.1381226 -10.3404722  77.3470993 151.9075470  -9.9472027
  77.2985687 150.2522736 -10.4421902  70.8264160 155.5297699 -10.0754156
  70.6625748 156.5040131 -10.7227201  69.8903275 154.5882568 -10.1464167
  70.0323639 153.8116760  -9.5164499  68.6636429 154.7351379 -10.9803028
  68.9314041 154.8804474 -12.0268641  67.9501343 153.3041077 -11.0019522
  67.6996765 153.0089569  -9.9830017  67.0703888 153.3982086 -11.6385803
  68.8060760 152.1715698 -11.5896826  69.6461639 152.3920288 -12.4909592
  68.6097794 150.9471130 -11.1604538  69.3152618 150.2641144 -11.3969288
  67.9862823 150.7673950 -10.3864727  67.7098312 155.7850494 -10.4677591
  66.6843262 155.9670715 -11.1617317  67.9463120 156.3820953  -9.3130569
  68.7369080 156.0034485  -8.8113861  67.2019272 157.5500793  -8.8342333
  66.2076263 157.6759796  -9.2627449  67.1003189 157.4208984  -7.2954836
  66.5138931 156.5358429  -7.0487599  68.1029205 157.3603058  -6.8721309
  66.4334030 158.6532288  -6.6216536  67.0577774 159.5208130  -6.8350582
  65.0595474 158.9283600  -7.2085743  64.5843582 158.0077820  -7.5474515
  64.3748169 159.4245911  -6.5208254  65.1473694 159.6357727  -8.0331612
  66.4599609 158.4363251  -5.1185346  67.4716644 158.4846039  -4.7157617
  65.8597031 159.1851196  -4.6017303  65.9739990 157.4732971  -4.9618907
  67.9359665 158.8545837  -9.2107105  67.3114624 159.9158630  -9.4336567
  69.2876740 158.8272095  -9.4617748  69.8000412 157.9834747  -9.2480154
  70.0437622 160.0235596  -9.9329863  69.6736221 160.8611603  -9.3417854
  71.5704041 159.8058014  -9.5476809  71.6233292 158.8663635  -8.9974384
  72.5278473 159.6640930 -10.7384424  72.5491180 160.6390686 -11.2253714
  73.4791718 159.4015045 -10.2756920  72.2066879 158.8620911 -11.4030733
  72.1222382 160.9220123  -8.7100706  73.2095718 160.9686432  -8.7702990
  71.7287903 161.8594360  -9.1031923  71.7062988 160.6728363  -7.2628069
  72.0768127 159.7039185  -6.9281287  72.1614532 161.4450684  -6.6426401
  70.6248932 160.6000824  -7.1472182  69.7706146 160.4469452 -11.3103819
  69.7662430 161.6496429 -11.6493835  69.4007950 159.4888916 -12.1694260
  69.4075928 158.5423889 -11.8170204  68.7826614 159.8019104 -13.5060692
  69.4456482 160.5233765 -13.9835978  68.7380905 158.5430450 -14.3567333
  68.5957413 157.7357330 -13.6383438  67.8555603 158.6467438 -14.9879923
  69.9632874 158.3395538 -15.2710609  69.9203033 157.3622589 -15.7518520
  69.7981873 159.0363007 -16.0928783  71.3205490 158.6515198 -14.6652164
  71.7490311 159.7824860 -14.4929743  72.0358276 157.5991211 -14.3502789
  72.9130478 157.6675720 -13.8544054  71.8313522 156.6861420 -14.7307425
  67.4595032 160.5855103 -13.4026480  66.9728546 160.9123077 -14.4486332
  66.8076401 160.7128754 -12.2223625  67.2900620 160.5216827 -11.3558693
  65.4998474 161.2938232 -12.0607014  65.4840698 162.1116791 -12.7810965
  64.4339294 160.2987518 -12.4142275  63.4639626 160.7867889 -12.3189440
  64.4888382 159.9496613 -13.4453535  64.4295731 158.9663696 -11.6140022
  65.4571304 158.6061707 -11.6638269  64.2620087 159.1400604 -10.5510559
  63.4312477 157.8890839 -12.0835810  63.2170372 157.0704803 -11.3964882
  62.5189018 158.4794464 -12.1684790  63.7624474 157.1770630 -13.4376268
  63.8496361 157.8446045 -14.2948914  64.7073593 156.6346130 -13.4689827
  62.6986465 156.2125397 -13.8866272  61.8607101 156.6804962 -14.2012568
  63.0661850 155.6412354 -14.6340399  62.4565086 155.4925842 -13.2209511
  65.3545990 162.1278076 -10.7426968  66.1524811 162.9648590 -10.5519333
  64.2945557 162.0145111  -9.9771795  63.6689758 161.2788849 -10.2731838
  63.9504013 162.9260864  -8.8418713  63.8448334 163.9432220  -9.2192459
  62.6473083 162.5578156  -8.1113205  62.3978004 161.5375824  -8.4028234
  62.8142738 162.6102448  -7.0354614  61.3577309 163.2769012  -8.5977993
  61.4063034 163.7969818  -9.7517252  60.2647552 163.3578339  -7.9692612
  64.9755554 163.1133118  -7.6683278  64.8303375 164.1350861  -6.9801636
  65.9533615 162.2589569  -7.4735885  66.0359879 161.5556183  -8.1937227
  66.9143982 162.2748260  -6.3596387  67.5195465 161.3767395  -6.4835010
  67.8348694 163.4947510  -6.5313234  67.2493134 164.4124451  -6.4758878
  68.4749680 163.6952820  -5.6721606  68.6655731 163.2923889  -7.8133302
  69.2630997 162.3870850  -7.7060905  68.0778809 163.0767517  -8.7056398
  69.6697998 164.3775024  -8.0205879  70.2901917 164.3579407  -7.1245794
  70.2875977 164.0679321  -8.8635597  68.9599380 165.7062073  -8.3110323
  68.6147308 165.7118378  -9.2601910  68.8042908 166.6952057  -7.4401026
  69.2562027 166.6542053  -6.2521038  69.6832504 165.8316040  -5.8507938
  69.0216599 167.4234619  -5.6410866  68.1960449 167.7839355  -7.8162937
  68.0437012 167.9614258  -8.7988377  68.0156708 168.5316925  -7.1617436
  66.3995056 162.3808594  -4.8921232  67.2230759 162.3139038  -3.9494205
  65.1029205 162.5784607  -4.6212707  64.4906769 162.6544495  -5.4209490
  64.5036469 162.3342285  -3.3467433  65.1871719 162.7359161  -2.5987184
  63.2564125 163.1770020  -3.0526483  62.8522949 162.7028656  -2.1582313
  63.7185745 164.5816040  -2.7285576  64.1541901 165.0441284  -3.6142242
  62.8248138 165.1334686  -2.4374745  64.3642883 164.5208588  -1.8525089
  62.5169411 163.0470581  -4.2198677  61.6718445 162.5987701  -4.1395745
  64.2861710 160.8590851  -3.0387471  63.5685959 160.0488434  -3.6542935
  64.7916946 160.4307404  -1.8650105  65.2580566 161.0650482  -1.2323506
  64.3958588 159.2237396  -1.1967114  63.6789894 158.6941528  -1.8242068
  65.6403503 158.2708893  -1.3020333  65.2603302 157.2597046  -1.1564467
  66.0342178 158.2253418  -2.3173652  66.7632141 158.5303650  -0.3862092
  67.7991180 159.3827057  -0.8089261  67.6872177 159.8162537  -1.7917329
  68.8520584 159.6431427  -0.0030265  69.7152023 160.1885986  -0.3549621
  68.8534317 159.1823730   1.3230441  69.7021866 159.3303680   1.9742887
  67.7963409 158.3845978   1.7986737  67.8604736 157.8209534   2.7176950
  66.7862549 158.0384674   0.9671415  65.9644775 157.4186707   1.2941383
  63.8486519 159.4772186   0.1418946  64.0420380 160.5402985   0.6999356
  63.0590096 158.5523682   0.6443586  62.9208107 157.7132111   0.0995427
  62.3685837 158.6354675   1.8605592  62.3493233 159.6779480   2.1782784
  60.9725304 158.0010376   1.7561704  61.1747284 157.0461273   1.2710457
  60.4029541 157.8741150   2.6768064  60.3938980 158.6097412   1.0613503
  63.2118034 157.9990692   3.0093796  63.6592674 156.8654175   3.0077696
  63.3011436 158.7171326   4.1071286  62.9663048 159.6699982   4.1134076
  63.8305779 158.1905518   5.4068727  64.2475967 157.1881714   5.3097510
  64.8729095 159.1687622   6.0383716  64.3943863 160.1452332   6.1132364
  65.2861252 158.6636200   7.4568400  65.4799042 157.5962677   7.5632858
  66.1663132 159.1820831   7.8370361  64.5564880 158.8805237   8.2370157
  66.0725861 159.3319855   5.0877709  65.8301926 159.7214203   4.0989842
  66.7231598 160.1484375   5.4012432  66.5335999 158.3491516   4.9898481
  62.6502724 158.1092834   6.3368483  61.8916779 159.0833282   6.4707360
  62.4624825 156.9467621   6.9970841  63.0983620 156.1653595   6.9252925
  61.2722931 156.7660065   7.8244967  60.4703941 157.4608459   7.5749578
  60.7955132 155.3001251   7.6783671  61.7038994 154.6981354   7.7018018
  60.2330856 155.0654755   8.5820875  59.9634361 154.9232635   6.4786386
  60.5148544 155.0185699   5.5432487  59.6438484 153.4221344   6.5271549
  58.8392868 153.1969452   7.2272091  59.2952309 153.1441345   5.5325313
  60.5224190 152.8222351   6.7644677  58.6036911 155.6716003   6.4396777
  58.8576736 156.7077026   6.2159195  58.0346603 155.2951050   5.5896363
  58.1659241 155.6038513   7.4356065  61.6188812 157.0977783   9.3298607
  62.7650681 156.9640350   9.7390709  60.6950264 157.6490326  10.0530825
  59.8008461 157.8048553   9.6100664  60.6864281 157.7664185  11.5099907
  61.6976547 157.9758759  11.8587666  59.8566589 159.0043640  11.9105129
  58.8351974 159.0310211  11.5310392  59.8074875 159.0261688  12.9991856
  60.3690109 159.8899841  11.5346375  60.2061157 156.4551239  12.0821314
  59.0042648 156.2187805  12.1630449  61.2067337 155.5661469  12.3893023
  62.1475487 155.6853790  12.0418139  60.7826767 154.2439270  12.9016829
  59.9687309 153.9084778  12.2589798  61.8962326 153.2285919  12.7270851
  62.7863350 153.7139282  13.1274128  61.5812683 152.3473969  13.2860146
  62.2811241 152.9748535  11.2454033  61.5280914 152.0180054  10.4671440
  60.7230988 151.4610748  10.9234419  61.8119698 151.8282166   9.0693970
  61.2034988 151.1640625   8.4735403  62.8772049 152.5853424   8.5496597
  63.1513214 152.4696503   7.2447181  62.7915764 151.6722412   6.8493514
  63.5970039 153.5829926   9.3224602  64.4295883 154.0900726   8.8576241
  63.3089943 153.7592926  10.7001143  63.8656921 154.4654999  11.2982349
  60.1973572 154.2830200  14.3210649  60.8969536 154.4380035  15.3070107
  58.8768806 154.1340179  14.4824352  58.4061699 154.0181580  13.5963726
  58.0476799 154.0514984  15.6751547  58.3931808 154.8334503  16.3513966
  56.6580009 154.4698944  15.2559538  55.9805069 154.6585083  16.0887375
  56.7392578 155.2931213  14.5461750  56.1232452 153.3350983  14.5427141
  55.1849556 153.5353394  14.5093546  58.2259750 152.6968079  16.3307629
  57.9186974 152.5236511  17.5296688  58.9409714 151.7299957  15.6899977
  59.1520882 151.9619293  14.7299232  59.5868416 150.5126190  16.2981815
  60.1025391 150.8009949  17.2141552  58.4728127 149.4981689  16.6490002
  57.7645416 149.9314880  17.3551769  58.0176544 149.2109528  15.7011404
  58.9799118 148.2560577  17.3149261  59.9646568 147.6243439  16.9200401
  58.3973999 147.8126984  18.3774586  58.7681313 146.9761810  18.8051281
  57.5998688 148.2844543  18.7793026  60.6613197 150.0069427  15.3241796
  60.2388039 149.5531769  14.2521915  61.9228935 150.0115051  15.7005997
  62.1910515 150.4305420  16.5795765  63.0697823 149.5828552  14.8116713
  62.8728218 150.0006561  13.8243742  64.3470230 150.4240265  15.0860748
  64.0730591 151.4675903  14.9311361  65.0260315 150.2865753  16.4413071
  65.3455811 149.2510834  16.5584869  65.9565811 150.8383026  16.5746670
  64.3454361 150.6093140  17.2291737  65.4015198 150.1388855  14.0227919
  65.0705490 150.5662842  13.0762777  66.3097534 150.6576080  14.3296156
  65.6042252 149.0758667  13.8923187  63.2131462 148.0619354  14.6852360
  63.3920326 147.6309204  13.5635242  63.0400581 147.2175140  15.7716417
  62.8387375 147.5940399  16.6869526  62.9934502 145.7792053  15.6658735
  63.9735909 145.4201508  15.3520136  62.8045082 145.1745148  17.0753078
  63.4818878 145.6852112  17.7597351  61.7726707 145.3484955  17.3805065
  63.0803375 143.6727753  17.0312614  62.5738716 143.2042389  16.1874218
  64.1512909 143.5038147  16.9189739  62.7066116 142.9697113  18.3509369
  63.4370918 143.3135529  19.0832481  61.6490974 143.1303558  18.5605812
  62.9665222 141.5140686  18.2043858  63.8617897 141.0852051  18.3905811
  62.0614433 140.6159363  17.8843746  60.8017807 140.9227295  17.5467491
  60.4885063 141.8676300  17.3760643  60.1644554 140.1615295  17.3610744
  62.3427505 139.3777466  17.9883537  63.1045532 138.9246826  18.4725952
  61.5958786 138.7627869  17.6983433  61.8848152 145.2685852  14.6726990
  62.1479988 144.4998474  13.7572908  60.6615334 145.7751465  14.8253813
  60.3748970 146.3792114  15.5823765  59.5699844 145.3053436  13.9792299
  59.8224716 144.3228912  13.5803299  58.2554741 145.1501923  14.7504778
  58.0779686 146.1152496  15.2251148  57.4608536 144.9373779  14.0353699
  58.1966400 144.1240845  15.8490973  59.1238403 144.1722717  16.4201336
  57.3487015 144.3735962  16.4869423  57.9861526 142.6352844  15.3603077
  57.2038574 141.9439545  16.0497913  58.6176872 142.2090454  14.3989925
  59.4026146 146.1414948  12.7402363  58.6874695 145.7472992  11.8460827
  60.1085815 147.3095398  12.6380768  60.7230911 147.6047668  13.3832722
  60.0574379 148.1435699  11.4039793  60.7578392 148.9760895  11.4705477
  60.5496979 147.4176025  10.1583128  59.8004608 146.7551575   9.7248077
  60.8047485 148.1509247   9.3932724  61.7853241 146.5079193  10.3381023
  62.2197647 146.7689972  11.3030882  61.6390076 145.4291229  10.3918428
  62.8450279 146.6586151   9.2938280  63.6500893 145.9263000   9.3545122
  62.3531303 146.3732300   8.3639393  63.4512787 148.0349274   9.2988482
  62.9713516 148.7317505   9.8503971  64.5181961 148.4376221   8.6008110
  65.2687073 147.5685730   8.0584936  65.1198196 146.5782623   8.1897383
  66.0487747 148.0218506   7.6044679  64.9203949 149.6722565   8.5421133
  64.3840714 150.3929138   9.0037642  65.7180710 149.8979797   7.9651756
  58.6651115 148.8092346  11.2389059  58.1194153 148.8178864  10.1400976
  58.0558853 149.2668762  12.2710295  58.6020699 149.2818298  13.1204758
  56.9064140 150.1259308  12.1733942  56.3156319 149.8321075  11.3057842
  55.9545021 150.0125580  13.4605942  56.5203171 150.3356781  14.3344049
  55.0700607 150.6292725  13.3008108  55.5948143 148.5359802  13.7474985
  55.3719254 148.0806732  12.7825508  56.4392014 148.0278320  14.2132130
  54.3771248 148.4022827  14.7186546  54.6308899 148.7253571  15.9032965
  53.2841797 147.9594879  14.2027950  57.2778664 151.6209106  12.0057373
  58.2249069 152.1389313  12.6094236  56.4608955 152.2460785  11.0954027
  55.6567574 151.7767944  10.7039509  56.6091728 153.6948700  10.9778929
  56.9434052 154.1033630  11.9315844  57.7918282 153.9625092  10.0013437
  57.5885201 153.6287079   8.9838285  57.8855705 155.0483551  10.0177326
  58.7103577 153.5709686  10.4384871  55.3429489 154.3873444  10.5033865
  54.7320023 153.9087982   9.5718851  54.9855614 155.4877167  11.1506796
  55.5193329 155.7601013  11.9636946  53.7469330 156.1889648  10.7607346
  53.0746078 155.5183258  10.2256517  52.9581604 156.5890503  12.0194921
  53.6073036 157.2187805  12.6278896  52.0166817 157.0928802  11.8006897
  52.4998055 155.5068970  12.8818750  51.8222275 154.3567047  12.5022402
  51.6097336 153.6227417  13.6242990  51.1902199 152.6283264  13.6635265
  52.1483154 154.2472534  14.6378860  52.3551369 153.7809906  15.5096178
  52.7480736 155.3743896  14.1847782  53.3299026 156.1237946  14.7008018
  54.1363335 157.4703674   9.9275541  53.2738037 158.0383301   9.2289572
  55.4109154 157.9291992   9.9848948  56.0319633 157.5915375  10.7062683
  55.8449593 159.2399445   9.3847113  55.1918068 159.4965210   8.5506496
  55.6713409 160.4241486  10.3743305  56.3792839 160.2310486  11.1803246
  55.9946136 161.3575134   9.9134378  54.2087631 160.6059113  10.8823233
  53.2851639 161.4046478  10.1546783  53.6346512 161.8537140   9.2367449
  51.9596672 161.5163422  10.6111774  51.2844086 162.1702271  10.0793352
  51.5228119 160.8106995  11.7765388  50.5196915 160.9083405  12.1646376
  52.4786987 160.1206360  12.5040941  52.1971436 159.8329163  13.5062647
  53.8445091 160.0310364  12.0885839  54.6560402 159.6091919  12.6629171
  57.3030052 159.2018280   8.8070431  57.9524155 158.0962067   8.7829981
  57.8231049 160.3335571   8.3444300  57.1166420 161.0533752   8.2908602
  59.2119408 160.4772186   7.9199142  59.8192673 160.5290527   8.8235588
  59.5728340 159.6873627   7.2611399  59.4935303 161.8099213   7.2405715
  58.7584801 162.7747040   7.3215723  60.6077690 161.8257751   6.5821805
  61.0456238 160.9159546   6.5578308  61.2249718 162.9356232   5.8721137
  60.4700394 163.7108002   5.7406440  62.3439026 163.5884247   6.6260972
  63.0161667 162.7668304   6.8733735  63.0909729 164.7077942   5.8477058
  62.4178772 165.4558716   5.4288640  63.7420845 165.1747284   6.5867176
  63.6455421 164.2193909   5.0464506  61.8220177 164.0345917   7.8904691
  62.4486847 163.7615509   8.5645199  61.7920837 162.5278015   4.4883595
  62.3025551 161.4381104   4.3235321  61.5498466 163.3803864   3.4459622
  60.9571762 164.1935272   3.5334187  62.1409874 163.1494751   2.0796578
  62.2701645 162.0884094   1.8662379  61.2635612 163.7190704   0.9150363
  61.7964249 163.6230774  -0.0309819  59.9109230 163.0419312   0.7643279
  59.2409668 163.3836975   1.5532906  59.4869843 163.2510834  -0.2178296
  59.8730164 161.9559174   0.8494842  60.9481506 165.0589294   1.1972351
  61.8016014 165.4972687   1.2301273  63.5784912 163.7875061   1.9710286
  63.7053795 164.9545898   1.8125733  64.6351242 162.9753876   1.9559903
  64.4619675 161.9812927   1.9124484  66.0464783 163.3092499   1.7251570
  66.2930298 164.2369080   2.2416525  66.9140167 162.1570587   2.2486625
  66.6372299 161.2349243   1.7376214  67.9654312 162.4012451   2.0969958
  66.7306442 162.0668182   3.3193343  66.2951508 163.5198975   0.2186633
  66.2464828 162.6110535  -0.5638202  66.6737518 164.7178955  -0.1008878
  66.6705704 165.4510651   0.5937840  67.2602921 164.9379120  -1.4476017
  66.9058838 164.2124023  -2.1798022  66.9146652 166.3179169  -2.0176969
  65.8470154 166.2865295  -2.2350574  67.0795670 167.0786743  -1.2546939
  67.5577698 166.6303406  -3.4068756  68.6441727 166.5428925  -3.3931134
  67.2308121 165.9477081  -4.1912255  67.2374344 168.0355072  -3.8727267
  66.1910553 168.5873413  -3.5021131  68.0276718 168.5148010  -4.6862493
  68.7570953 164.5556335  -1.4447221  69.5339890 165.0552979  -0.6581492
  69.2234192 163.6951141  -2.3193245  68.5644684 163.2436218  -2.9374125
  70.6546478 163.5550842  -2.6337283  71.2576828 163.5678253  -1.7258224
  70.9852448 162.2706909  -3.4950283  70.4721909 162.3084106  -4.4559946
  72.5371552 162.1880646  -3.6620035  72.9843979 162.2420044  -2.6694496
  72.8442459 161.3089142  -4.2284875  72.8491745 163.0729065  -4.2167859
  70.5419083 161.0387878  -2.7474174  71.0920944 161.0042419  -1.8070952
  69.4656372 161.1186676  -2.5945837  70.8505020 159.6254883  -3.4440374
  71.9317551 159.4925842  -3.4806271  70.3808899 158.8629913  -2.8226128
  70.3857498 159.6611786  -4.4293437  71.0919952 164.8099060  -3.4047952
  70.6843033 165.0399780  -4.5442777  72.0546570 165.5462036  -2.8346725
  72.4270020 165.2032776  -1.9606793  72.6260147 166.7613220  -3.3979411
  72.0847626 166.9409332  -4.3268642  72.4123611 167.9894714  -2.4936893
  72.4812012 168.8591614  -3.1471462  71.3652725 168.0544891  -2.1979215
  73.3030777 168.0901642  -1.2702909  74.4690857 168.8742523  -1.2566835
  74.7589417 169.5069580  -2.0825603  75.2796631 168.9391174  -0.1259805
  76.1425476 169.5860138  -0.0681252  74.8822021 168.2395325   1.1109681
  75.6824722 168.3313599   2.2677693  76.2781982 169.0822754   2.2145159
  73.7105103 167.4812469   1.0777057  73.3936844 166.8963776   1.9285526
  72.9080811 167.4031677  -0.0661515  72.0384445 166.7678833   0.0146419
  74.1042938 166.6438599  -3.8266451  74.5425110 167.3856049  -4.6736970
  74.8721313 165.6824036  -3.3034015  74.4825287 165.2182007  -2.4954276
  76.1360855 165.2538452  -3.7766891  76.1838684 165.7102356  -4.7653871
  77.2561493 165.9439392  -2.9745967  77.3925323 165.3704681  -2.0577471
  78.2320480 165.9393005  -3.4600775  77.0283279 166.9840546  -2.7413695
  76.4034348 163.7376556  -3.8366146  75.9342041 162.9812317  -2.9763813
  77.1417160 163.3347168  -4.8940716  77.4908295 164.0753632  -5.4853911
  77.1792221 161.9283752  -5.3988590  76.9519501 161.2668152  -4.5629330
  76.0062027 161.7328644  -6.4066963  75.0549698 161.9642639  -5.9274163
  76.1249161 162.3748322  -7.2795515  75.9289322 160.3220978  -6.9865127
  74.9146500 159.4411774  -6.5148826  74.3592377 159.6932220  -5.6235924
  74.7490387 158.1989899  -7.1815157  73.9555511 157.5230103  -6.8989739
  75.4777985 157.8980713  -8.3416882  75.3143616 156.7081909  -9.0144758
  74.6019058 156.2026062  -8.6164913  76.5009537 158.8037109  -8.7696323
  76.9891510 158.6475830  -9.7202616  76.7026062 160.0392456  -8.1269588
  77.3141708 160.7928162  -8.6007738  78.5063934 161.4594574  -5.9721971
  79.1266479 162.2144470  -6.6702609  78.9989395 160.2165985  -5.7120891
  78.4839935 159.6806183  -5.0282412  80.2447433 159.6464386  -6.2166719
  80.4101715 160.0573883  -7.2125878  81.4440536 160.0883789  -5.3423347
  81.3058319 161.1346436  -5.0697050  81.4756699 159.6110382  -4.3629260
  82.8204575 159.9089203  -5.9567771  82.9214783 158.8499298  -6.1943383
  82.9234009 160.5620117  -6.8233628  83.9340744 160.2294617  -4.9428501
  83.4659119 160.7930450  -4.1358185  84.3133926 159.3429718  -4.4345608
  84.9866180 160.9226837  -5.6571651  84.8243103 161.8152771  -6.1010332
  86.0516739 160.2716827  -6.1153870  86.4957275 159.1195831  -5.7478967
  85.9292831 158.4730072  -5.2176290  87.3380203 158.7674561  -6.1799297
  86.8504410 160.8636627  -6.9142613  86.5802383 161.7614746  -7.2898030
  87.6255875 160.3300781  -7.2810297  80.2568893 158.1022797  -6.3213367
  79.8036652 157.5012360  -5.3916969  80.5548248 157.4700165  -7.5027146
  80.7459030 158.0635223  -8.2972794  80.6756592 156.0416412  -7.6379614
  80.0982208 155.5496063  -6.8552980  80.0325089 155.5881348  -8.9473581
  80.3701782 156.1788940  -9.7988777  80.3154297 154.5429535  -9.0724535
  78.5100098 155.6610107  -8.8703251  78.1638641 155.3693542  -7.8787465
  78.3207245 156.7266541  -8.9994373  77.8177719 154.8087616 -10.0050306
  77.1467667 153.8817444  -9.5025816  78.0223083 154.9567871 -11.2761183
  82.1352615 155.5594025  -7.6678672  82.9354095 156.1313477  -8.3469667
  82.3611221 154.4998474  -6.9628439  81.6088562 154.1574707  -6.3823462
  83.6500626 153.8451233  -6.9265423  84.2139664 154.1892548  -7.7935429
  84.4479370 154.2300873  -5.7227168  83.7145462 154.4857635  -4.9579525
  84.9747162 153.3890228  -5.2719116  85.3454971 155.4602356  -5.9300375
  86.2290802 155.1479492  -6.4867020  84.8447266 156.3040924  -6.4046102
  85.8106461 155.9928436  -4.5179625  86.6176834 155.3261261  -3.8489082
  85.4724731 157.1245270  -4.0496840  83.5902023 152.2723083  -7.1476717
  82.5898972 151.6578217  -6.9734130  84.7447891 151.6744385  -7.3869720
  85.6482773 152.1011658  -7.5343504  84.8413696 150.2229156  -7.5544338
  84.0906372 149.6901398  -6.9707804  84.5705338 149.8680725  -9.0901022
  83.5972900 150.1488037  -9.4926901  85.2857208 150.5007782  -9.6157579
  84.8473969 148.3569641  -9.3502865  85.7673569 148.0169830  -8.8747005
  84.0224075 147.8805695  -8.8206120  84.9212494 147.9829254 -10.8558903
  85.8742218 147.3856506 -11.3596821  83.9277954 148.2606812 -11.7051773
  84.0817261 148.0624237 -12.6834927  83.1780472 148.8900909 -11.4565487
  86.2805557 149.7700958  -7.0549002  87.3425751 150.0269318  -7.6810274
  86.3068466 149.0272369  -5.9217792  85.4358902 148.6427765  -5.5845470
  87.5230713 148.4958649  -5.2111382  88.3074265 148.2633514  -5.9314265
  88.1627579 149.5446472  -4.2251430  87.2830582 150.0354919  -3.8088384
  88.6605148 149.0727234  -3.3780160  89.0977020 150.5314331  -4.7897892
  89.9710464 150.0277405  -5.2041068  88.6165237 150.9598846  -5.6689939
  89.6089706 151.6490936  -3.8819430  88.8688278 152.2728729  -3.0690815
  90.8458252 151.9426422  -3.9084148  87.2446213 147.2181702  -4.3798761
  86.0928879 147.0839081  -3.9919877  88.2182770 146.3170319  -4.2403936
  89.1200256 146.5723419  -4.6169076  88.0269775 144.9091797  -3.6366606
  89.0452423 144.5229187  -3.6818349  87.6150818 144.9369049  -2.1207273
  86.6330643 145.4084473  -2.0836072  87.4541473 143.9562531  -1.6729450
  88.3834000 145.8189240  -1.1754192  89.3888168 145.2025299  -0.4256234
  89.5465393 144.1501465  -0.6100074  90.1712418 145.8496552   0.5217192
  90.9355545 145.3285675   1.0791193  89.9895782 147.2294617   0.7669339
  90.6997681 147.8479309   1.7511728  91.3926926 147.3227081   2.1581085
  88.9943237 147.9194336  -0.0143524  88.7922134 148.9610748   0.1870575
  88.2211075 147.2009277  -0.9507073  87.4844818 147.7689514  -1.4994584
  87.2734528 143.9310455  -4.4898434  86.9094162 142.8567047  -4.1133628
  86.9086685 144.3687439  -5.7143207  87.1779938 145.3253937  -5.8942647
  85.9802246 143.6401520  -6.6064000  86.1296616 143.9222260  -7.6486106
  86.0769958 142.5799255  -6.3725762  84.4782791 144.0262299  -6.2590194
  83.6424942 143.2468109  -6.6966467  84.2323074 145.0658569  -5.4366970
  85.0000839 145.6242828  -5.0920568  82.8659592 145.5690002  -5.1446052
  82.1725464 144.8471680  -5.5761738  82.4450455 145.5086670  -3.6358476
  81.3984756 145.8092651  -3.5865550  82.6250381 144.0323792  -3.1611578
  83.6410370 143.6379242  -3.1769478  82.3106079 143.9347076  -2.1220739
  81.9459152 143.4137115  -3.7477946  83.2882233 146.4309235  -2.7511551
  84.2002640 145.9509125  -2.3963623  83.5337524 147.3498077  -3.2835844
  82.4569092 146.9307098  -1.6203684  82.3187637 146.0990906  -0.9294153
  83.0632477 147.6128235  -1.0243855  81.4994354 147.3252106  -1.9605404
  82.6061020 146.9742889  -5.7661972  83.4956741 147.7825623  -5.9842010
  81.3278809 147.1813660  -6.1958342  80.6111450 146.4917297  -6.0203710
  80.8074341 148.5720215  -6.4222484  81.6025848 149.0826721  -6.9654393
  79.6479797 148.5665588  -7.3997016  78.7669830 148.1336823  -6.9258351
  79.4117661 149.6183472  -7.5610414  80.0517883 147.9516296  -8.7578068
  81.0918121 148.2161255  -8.9488525  79.9697113 146.8677521  -8.6767874
  79.2531509 148.5085144  -9.9661551  78.0649567 148.7132568  -9.9237366
  79.8350601 148.9370728 -10.9553270  80.4106750 149.2588654  -5.1189175
  80.0076065 148.6192627  -4.1280866  80.6083984 150.5687103  -5.0831099
  81.0221100 151.0332489  -5.8788180  80.2607040 151.3776245  -3.8673382
  79.4070969 150.8901062  -3.3963964  81.4418106 151.4357758  -2.8325248
  81.7930069 150.4290009  -2.6062939  82.5562668 152.3347931  -3.3273890
  82.2271500 153.3739014  -3.3201249  83.4171753 152.2885742  -2.6604536
  82.8282700 152.0843201  -4.3527565  80.9181747 152.0346832  -1.6978089
  81.5857620 152.0399933  -1.0079553  79.8851929 152.7732697  -4.3817620
  80.2275391 153.2416687  -5.4537549  79.2796173 153.5069427  -3.5117044
  78.8950272 153.0776215  -2.6823232  78.7537079 154.8577271  -3.7501678
  79.5407639 155.3590546  -4.3134861  77.4175415 154.7718964  -4.5761337
  77.5815201 154.2041016  -5.4920096  76.2156754 154.1436310  -3.8412113
  75.8691864 154.7777100  -3.0251324  75.4305344 154.1826477  -4.5962834
  76.4583054 153.1202393  -3.5550318  76.9960556 156.1702728  -4.9011469
  77.7592621 156.7498474  -5.4204769  76.2199478 156.0688019  -5.6597404
  76.6066971 156.8009796  -4.1019506  78.6341324 155.6483917  -2.4724593
  78.2362595 155.1391144  -1.4316592  79.0649261 156.9101257  -2.5646842
  79.3725357 157.2407379  -3.4681032  79.1523285 157.8884277  -1.3993331
  78.8377228 157.4037781  -0.4750775  80.6234512 158.3717346  -1.3553919
  80.9272385 158.8592682  -2.2817411  80.6644440 159.1516266  -0.5950078
  81.5543594 157.2293701  -0.9877839  81.4837799 157.0832825   0.0900743
  81.2025223 156.3106689  -1.4571620  83.0726318 157.5128479  -1.3241414
  83.1793900 157.8660889  -2.3497736  83.4164047 158.3729401  -0.7495365
  84.0770569 156.3620148  -0.9767812  84.0051575 156.0770874   0.0728642
  83.9630280 155.4240570  -1.5202166  85.4866791 156.7135620  -1.2298491
  85.9172134 157.4741974  -0.7237368  85.9803467 155.8389587  -1.1227574
  85.6307373 156.9215088  -2.2076526  78.1136627 158.9746246  -1.7051353
  78.2057037 159.5570221  -2.8265316  77.1755371 159.2849274  -0.8355012
  77.2850113 159.0122070   0.1308013  76.0732880 160.2487488  -1.1342551
  76.3802185 160.8230743  -2.0083487  74.7569199 159.5593567  -1.5438432
  74.1069946 160.3394775  -1.9402008  75.0186539 158.4996338  -2.6345925
  75.6272964 157.6972046  -2.2177248  74.0508728 158.0685730  -2.8908763
  75.5154648 158.9168091  -3.5105202  73.9223785 158.8211517  -0.4743285
  73.9236603 159.4485168   0.4170255  72.9226990 158.6495514  -0.8734455
  74.3838272 157.8671417  -0.2193685  75.8827515 161.1609039   0.0489840
  75.7940445 160.7398071   1.1956284  75.6470413 162.4314117  -0.2278550
  75.6007538 162.7469482  -1.1861840  75.3180008 163.4568481   0.7452692
  75.3323517 163.0771027   1.7668813  76.3818283 164.5615387   0.7251890
  76.5315857 164.8387909  -0.3182695  75.9770050 165.4125977   1.2728335
  77.7102280 164.2019653   1.4355656  77.4753952 164.3266144   2.4926465
  77.9423676 163.1598511   1.2159824  78.8389130 165.1251221   1.1292351
  79.6222687 164.9271545   1.8608565  79.2021713 164.9270782   0.1208069
  78.7525711 166.6593628   1.1824864  78.1145935 166.9131775   0.3359286
  78.2146454 166.8892517   2.1022062  80.0921021 167.2923737   0.9680504
  80.5445023 166.8444061   0.1839879  80.0155106 168.2944489   0.8675900
  80.7684937 167.0666504   1.6833450  73.9969940 164.0297699   0.4513736
  73.7947922 164.5218506  -0.6748887  73.0857162 164.0206757   1.4471530
  73.4302063 163.6990356   2.3404458  71.6361237 164.1600037   1.2993894
  71.4383240 164.5574799   0.3039086  71.0396881 162.7016296   1.4066375
  71.0539780 162.2988892   2.4194026  70.0111465 162.6187134   1.0554717
  71.7265625 162.0424652   0.8757861  71.0840149 165.0780029   2.3066113
  71.6499252 165.2823486   3.3619015  69.9508133 165.7234344   2.0907071
  69.5201111 165.7527924   1.1776155  69.4701233 166.7628479   3.0298705
  69.8273315 166.5683136   4.0411363  70.1903534 168.0417175   2.7135544
  71.2451172 167.8073883   2.5697935  69.7940750 168.5441895   1.3377609
  68.7300034 168.7723846   1.3993134  70.2293777 169.4860992   1.0039532
  69.9584961 167.7785034   0.5796052  70.0934601 169.1997375   3.7459266
  69.1252594 169.5962067   3.4401531  69.9650192 168.7859497   4.7461247
  71.2078705 170.2782593   3.8325405  71.1639404 170.9409637   2.9682579
  70.9598389 170.8749237   4.7103586  72.2021484 169.8361053   3.8959460
  67.9444504 166.8019409   3.0468230  67.3771286 166.6324310   1.9669818
  67.3158798 167.0318756   4.2094817  67.9058456 167.1038513   5.0260987
  65.8472977 166.7920685   4.3017464  65.6362839 165.8861084   3.7335856
  65.5962982 166.5795593   5.3409472  64.9481354 167.9787140   3.8149564
  64.9550323 169.1001434   4.3893280  64.0937271 167.7818604   2.7733881
  64.0264969 166.8568115   2.3735404  63.2671623 168.8095245   2.0657511
  63.7858200 169.7478333   2.2623444  63.2593575 168.5401001   0.5911479
  62.7803993 167.5621185   0.5437357  62.5795975 169.2012634   0.0536552
  64.6005249 168.4714508  -0.2137389  65.3258896 167.9425354   0.4044945
  64.4443970 167.8683929  -1.1082031  65.1726074 169.8237305  -0.6415614
  66.0167313 169.6857300  -1.3172175  64.4997559 170.3601379  -1.3106234
  65.5312119 170.6952209   0.4830468  64.7656555 171.0910797   1.0096635
  66.7720795 171.2439270   0.7851767  67.8851471 170.9656830   0.1054344
  67.8753967 170.2098999  -0.5644882  68.7673569 171.4408264   0.2321588
  66.9258652 172.1177368   1.7192271  66.1692200 172.2234344   2.3798513
  67.7485733 172.6858521   1.8623905  61.9001274 169.0793610   2.6659098
  61.4061699 170.1754456   2.5569391  61.2718849 168.0122223   3.0965495
  61.7879829 167.1466980   3.1645501  59.7636070 167.7968140   3.3388510
  59.3097916 168.6940460   3.7597096  58.9396095 167.3686218   2.1259961
  59.1155396 166.3125153   1.9215661  57.8895607 167.5077515   2.3831670
  59.3338089 168.1333771   0.8305475  59.0726547 169.1808624   0.9810877
  60.4001122 168.0814362   0.6105320  58.7041054 167.5962830  -0.4353120
  58.0324821 168.3259583  -1.1566466  58.8481445 166.2956543  -0.7562290
  58.5822983 166.0594330  -1.7015487  59.5898933 165.8472748  -0.2377161
  59.5218773 166.7012939   4.3866844  60.2447090 165.6728516   4.4744906
  58.5244675 166.8809052   5.3415751  58.0033607 167.7456360   5.3132167
  58.0183372 165.8260040   6.2136703  58.8685951 165.2090607   6.5044265
  57.4703674 166.4835205   7.4785795  56.6520615 167.1647186   7.2452292
  57.0731659 165.6871948   8.1080322  58.5603065 167.1475983   8.3057613
  59.2767715 166.3603210   8.5402060  58.9151039 168.0012054   7.7281938
  57.8677292 167.4530487   9.6480579  57.2815933 166.6002655   9.9905462
  58.6901016 167.6339417  10.3402195  57.0269814 168.7031250   9.6074562
  57.4122505 169.5177307   9.1513023  55.7969475 168.9247131  10.1255598
  55.1439629 168.0090485  10.8036280  55.6276855 167.1759644  11.1070957
  54.1689377 168.1358948  11.0345888  55.1770630 170.0510559   9.9374771
  55.5763397 170.7377014   9.3136139  54.2813454 170.2344818  10.3665981
  56.8439026 164.9897156   5.5004721  56.2323761 165.5210724   4.5586605
  56.5256500 163.7965240   5.9699030  57.1341896 163.3527069   6.6428118
  55.3539429 163.0286255   5.4980745  54.6698685 163.7806702   5.1049089
  55.6875458 162.1763000   4.2457204  54.7400894 161.7030182   3.9879868
  55.8802719 162.8390656   3.4020960  56.8081665 161.1535187   4.4038525
  56.5211143 159.9043274   5.0549998  55.5610924 159.7622375   5.5288939
  57.5070953 158.9318542   5.2270432  57.2487259 158.0255432   5.7545180
  58.7516174 159.1852875   4.6927762  59.4514465 158.3710327   4.8095965
  59.0452118 160.3858948   4.0472479  60.0392609 160.5347290   3.6521256
  58.0893402 161.3410034   3.8645654  58.3516350 162.2089539   3.2778120
  54.7155685 162.1356049   6.5545802  55.3770638 161.6287231   7.4697690
  53.4183807 161.7994843   6.2565398  53.0100746 162.3235474   5.4957843
  52.6538467 160.6104279   6.7158136  53.0099449 160.2209930   7.6695619
  51.2206612 161.1123810   6.8912354  51.1394272 162.0166931   7.4943118
  50.7081718 161.3607941   5.9618568  50.4264641 159.9945984   7.6249790
  50.6978836 159.0280151   7.2005234  50.7200089 160.0294189   8.6741333
  48.8928413 160.1352386   7.7220683  48.4802856 160.2360687   6.7182121
  48.5041733 159.2061157   8.1389208  48.3781281 161.2479248   8.7245550
  48.7941666 161.1179504   9.7236137  48.6624985 162.2407990   8.3760500
  46.8811111 161.3018188   8.7014227  46.4294281 160.5786743   9.2428646
  46.6306229 162.1734619   9.1459293  46.5155792 161.3431854   7.7607975
  52.7520218 159.4056091   5.7481785  52.6829185 159.6224060   4.5391326
  52.8665237 158.1986084   6.3619971  52.7961884 158.2431335   7.3685613
  52.6252251 156.8732910   5.7555637  53.1233139 156.9225769   4.7872767
  53.4438667 155.7375641   6.4657459  53.2189941 155.6327209   7.5271311
  53.2132874 154.2981873   5.8953052  53.3336029 154.2590332   4.8126726
  53.8859177 153.6622620   6.4708543  52.1863632 154.0348358   6.1486335
  54.9772720 156.0131226   6.2945461  55.1327057 157.0117493   6.7028294
  55.5347214 155.2846527   6.8833346  55.2049141 155.9899139   5.2288346
  51.2199707 156.4830475   5.5005822  50.4103241 156.3912354   6.4379601
  50.8907738 156.0334930   4.2619042  51.5686684 156.1314850   3.5196402
  49.6623268 155.3402710   3.9065359  48.9429359 155.5220032   4.7050047
  49.1057739 155.9564056   2.6117821  49.7661667 155.6772766   1.7907611
  48.1385460 155.4683685   2.4917905  48.8064537 157.4294434   2.6610355
  49.5211411 157.9474792   3.3005335  48.7289467 158.2096558   1.3635715
  47.8789711 157.8383484   0.7910619  48.6553078 159.2944183   1.4407607
  49.6123962 158.0594635   0.7430350  47.4837608 157.6074829   3.4147081
  47.5636063 157.1318970   4.3922286  47.1761017 158.6498108   3.4984515
  46.7873764 157.0133972   2.8229311  49.8554535 153.7846069   3.8528039
  49.0567932 153.0538788   4.4025025  50.9229279 153.3895264   3.1919155
  51.4962807 154.0657043   2.7080154  51.2790337 151.9937439   2.8802083
  50.9719315 151.3399658   3.6965220  50.5052757 151.5838013   1.5746331
  49.4265480 151.4901123   1.6998124  50.5903130 152.4029999   0.8606409
  50.9557304 150.2095947   0.9109232  52.0434761 150.1396637   0.9155063
  50.4978676 149.4286041   1.5179684  50.3959846 150.0259552  -0.4914719
  49.1635170 150.1178131  -0.7122629  51.2146339 149.6921692  -1.3824130
  52.7624512 151.8939667   2.6944563  53.2689667 152.6943359   1.9474609
  53.3646698 150.7985840   3.2758455  52.8763962 150.0901794   3.8048539
  54.7608871 150.4700317   2.9559767  55.1458092 151.2580109   2.3086603
  55.6766167 150.4583588   4.2673221  55.4502563 149.6019592   4.9024954
  57.1218758 150.3156281   3.8624213  57.4027061 151.0966492   3.1558628
  57.7616615 150.1262817   4.7243495  57.0348930 149.3657379   3.3349261
  55.5872688 151.7341614   5.0880661  56.0852623 152.5761414   4.6072507
  54.5244446 151.9425201   5.2109461  56.1640167 151.6249542   6.5293951
  57.2523651 151.5652771   6.5238495  55.9087257 152.4951935   7.1340404
  55.7010536 150.7437286   6.9734735  54.7343330 149.1195068   2.2302151
  54.1097565 148.1695251   2.7773852  55.4157944 149.0035248   1.0618671
  55.7632904 149.8387604   0.6127259  55.5584030 147.7863312   0.2210084
  55.0910339 146.9009857   0.6520751  54.8510475 148.0585480  -1.1546141
  53.8992424 148.5627136  -0.9873138  55.4956512 148.7075500  -1.7473792
  54.6145782 146.7363281  -2.0658178  54.5164909 145.9233246  -1.3464338
  53.6281242 146.7782593  -2.5276108  55.6711769 146.5335693  -3.1677384
  55.7475052 147.4293671  -3.7840350  56.6453323 146.3480682  -2.7152929
  55.1164474 145.4639435  -4.0751114  54.9551315 144.5669556  -3.6398144
  54.9168854 145.4939575  -5.3831911  55.2538414 146.5255737  -6.1338611
  55.6819534 147.3267822  -5.6924014  54.9193573 146.7483521  -7.0604677
  54.4570122 144.4546051  -6.0438519  54.2795181 143.5942535  -5.5454617
  54.4502182 144.4564362  -7.0538273  57.0574608 147.3895111   0.0301919
  57.9160805 148.2632141   0.1950618  57.3554344 146.1259766  -0.2312524
  56.6353264 145.4825592  -0.5271315  58.7707253 145.6889801  -0.4253758
  59.4515228 146.5226593  -0.2533629  59.1313782 144.6060638   0.6080661
  58.5056190 143.7201080   0.5003092  60.6413078 144.2562866   0.7167720
  61.1515884 145.1976013   0.9208291  60.8008461 143.6235046   1.5898327
  60.9723511 143.7395172  -0.1840404  58.9475288 145.1683655   1.9129839
  58.0363426 145.0692749   2.1985009  58.9458275 145.1706390  -1.8231876
  58.0621796 144.4701691  -2.3336260  60.0336914 145.4577637  -2.5397825
  60.7313576 146.0734711  -2.1470108  60.3511314 144.8604126  -3.8263605
  59.4621849 144.4488983  -4.3044071  60.9767494 145.8836365  -4.7897501
  61.8746834 146.3410034  -4.3742657  61.2800522 145.4120789  -5.7244892
  59.9800491 146.8806763  -5.3423858  59.0808716 146.3693848  -5.6861076
  59.7394295 147.5027161  -4.4802451  60.4923744 147.7816620  -6.4505239
  60.3643799 148.9837494  -6.4127359  60.9930611 147.1992493  -7.4995861
  61.3702011 147.8239136  -8.1979046  61.2078247 146.2180786  -7.6058331
  61.2988625 143.6707306  -3.6938818  62.1487236 143.7353821  -2.7845645
  61.1960182 142.7353973  -4.6064305  60.7236252 142.9807434  -5.4647722
  61.9299049 141.4611511  -4.5486460  61.6093788 140.9451599  -3.6435997
  61.5003281 140.5278473  -5.6422329  61.7920380 140.9141083  -6.6188645
  62.0355873 139.5877380  -5.5088387  60.1208611 140.2026672  -5.5802813
  60.0008011 139.5290375  -4.9069161  63.4725456 141.6086273  -4.5688481
  64.1831589 140.7489471  -4.0616527  64.0581055 142.7125549  -5.0233841
  63.4940681 143.3803406  -5.5293732  65.5284271 142.9460754  -4.9045696
  66.1242828 142.0575714  -5.1134167  65.8259659 144.0878448  -5.8799310
  66.9089355 144.1920929  -5.9464588  65.5279617 143.8172760  -6.8928924
  65.0822067 145.2946625  -5.4004602  63.9709511 145.4660645  -5.9355097
  65.4686966 145.9196472  -4.4032464  65.9662323 143.2303162  -3.4525993
  67.1069870 142.9825287  -3.0691626  65.0367279 143.6759796  -2.5899065
  64.0998993 143.7353516  -2.9626200  65.1666489 143.9617004  -1.1947248
  64.4563370 143.2342834  -0.8017449  66.1914062 143.8134918  -0.8541241
  64.7118759 145.3675537  -0.7750672  64.4539719 145.5252075   0.4003468
  64.6812210 146.4086456  -1.6177266  64.8244629 146.2855530  -2.6099110
  64.4231110 147.8114929  -1.1285582  64.8363953 147.9916534  -0.1361675
  65.0546188 148.9802551  -2.0089941  64.9457703 149.8802643  -1.4038115
  66.5749817 148.7654419  -2.2180133  66.6783524 147.9945068  -2.9816103
  67.0783539 149.6782227  -2.5366895  67.1114731 148.3804474  -1.3507960
  64.3423920 149.2420044  -3.3989661  65.0852203 149.3830872  -4.1840787
  63.8827934 148.2953186  -3.6829407  63.3267479 150.3433990  -3.5635653
  63.5025406 151.1851654  -2.8937726  63.3602104 150.7464905  -4.5757408
  62.3870964 149.8021545  -3.4530721  62.9019814 148.0943604  -0.9008638
  62.0473557 147.4691925  -1.5459638  62.4975319 148.9580994   0.0439670
  63.2022133 149.5827179   0.4091632  61.1347237 149.2954865   0.3193913
  60.5162888 148.4910126  -0.0786584  60.8382759 149.4751740   1.8155550
  61.3792877 150.3047180   2.2707975  59.7627335 149.5581665   1.9718188
  61.2745056 148.2208405   2.6425805  61.0329819 147.2983093   2.1146619
  62.3503113 148.2587280   2.8137975  60.5118523 148.0650024   4.0076213
  60.8132477 148.7676697   4.9778872  59.6742134 147.0312500   4.1452198
  59.3534660 146.8012238   5.0749049  59.4819908 146.4879456   3.3157740
  60.6909981 150.5104675  -0.4925778  61.5600243 151.3385620  -0.9348852
  59.3945580 150.5639038  -0.7557573  58.8192406 149.7523346  -0.5811588
  58.7341003 151.7834473  -1.2381210  59.3221550 152.7012177  -1.2375293
  58.1713905 151.5005798  -2.6406581  57.5124702 150.6322937  -2.6412523
  57.5928535 152.3758392  -2.9361432  59.2865486 151.2062378  -3.6812313
  60.2582092 150.9243774  -3.2755990  58.9752808 150.3247223  -4.2417293
  59.5123787 152.2890472  -4.7164292  59.3942528 153.4883575  -4.4667101
  59.9107056 151.9077301  -5.9023514  60.1920662 152.6168060  -6.5642915
  59.9090424 150.9164886  -6.0960922  57.4989471 152.1439667  -0.4015229
  56.6797028 151.2776031  -0.0532487  57.2575912 153.4419556  -0.1191849
  58.0134468 154.0617371  -0.3734733  56.1434364 153.8427429   0.8037918
  55.5138130 152.9849854   1.0402507  56.7537689 154.4217377   2.1262281
  57.2843628 155.3541718   1.9335619  55.9262466 154.5566711   2.8227167
  57.3826447 153.6675110   2.5992675  55.2221451 154.8302460   0.0564850
  55.7020111 155.8750305  -0.3244398  53.9649315 154.5196228  -0.0509683
  53.6659813 153.6103058   0.2713351  53.0120125 155.5499878  -0.4218436
  53.3698082 156.1193390  -1.2796998  51.6679153 154.9706726  -0.8349719
  51.3352280 154.3783112   0.0173976  50.9633865 155.7902832  -0.9762912
  51.7756767 154.1986084  -2.1454520  52.1781502 154.8447418  -2.9255936
  52.4691734 153.3585510  -2.1070001  50.4332008 153.7027130  -2.6731601
  50.0586662 152.9897919  -1.9386069  49.6980057 154.5073547  -2.6617143
  50.4647293 153.1129761  -4.0904632  49.6415100 153.5254059  -4.6738157
  51.3698425 153.5220337  -4.5393987  50.5971260 151.6113586  -4.1507454
  49.7146835 151.1685028  -3.9379656  50.8540649 151.3100891  -5.0798922
  51.2777939 151.3088531  -3.4686301  52.8335114 156.5425262   0.7883984
  52.4841156 156.0712891   1.9043128  53.1388359 157.8280792   0.5685257
  53.2245598 158.1590576  -0.3818417  53.1701012 158.8417053   1.6149189
  52.8182297 158.3603210   2.5273700  54.6447639 159.2901154   1.8413754
  54.5006866 160.0810394   2.5774276  55.4168282 158.1182861   2.5383375
  55.3620949 157.1909485   1.9681114  56.4917946 158.2317963   2.6785538
  54.9999123 158.0377808   3.5422299  55.3964348 159.8725891   0.6482248
  54.8905334 160.7892914   0.3451893  56.4451561 160.0822754   0.8587376
  55.4541397 159.0951385  -0.1135810  52.2776108 160.0058289   1.2790636
  51.9484863 160.1749725   0.0987521  51.9631729 160.8657684   2.2454829
  52.1464272 160.6763000   3.2204795  51.3957520 162.2116394   1.9617099
  51.3383789 162.4186249   0.8930792  49.8962708 162.2672119   2.4425068
  49.2450905 161.6823273   1.7929139  49.9681625 162.0174713   3.5010719
  49.3326912 163.6889343   2.5171261  49.9452362 164.3498383   3.1303937
  49.4093437 164.1485596   1.5317384  47.9174881 163.8372955   3.0702484
  47.1590309 162.8982544   3.1556649  47.4105988 164.9811249   3.4506397
  46.5267487 164.9373779   3.9374716  48.0344200 165.7651520   3.5780818
  52.3418388 163.2580414   2.6279566  52.6569748 163.1780548   3.8138316
  52.8970909 164.0646362   1.7564024  52.5002785 164.0403290   0.8279350
  53.7449684 165.2144318   2.1734598  54.6195335 164.7452850   2.6241791
  54.4067497 165.9181824   0.9376007  53.6750565 166.0427094   0.1393389
  54.8060150 167.3532104   1.3393565  55.4664726 167.2476196   2.2000220
  55.3461266 167.8790283   0.5520111  53.9573212 168.0273285   1.4550678
  55.6406898 165.1658630   0.3447126  55.9826965 165.7173615  -0.5310671
  56.4436264 165.3356934   1.0620342  55.5569038 163.6988983   0.0128732
  54.7156219 163.4736176  -0.6425668  56.4751740 163.3632660  -0.4690353
  55.4420433 163.1371307   0.9398696  52.9952240 166.1258545   3.1968248
  51.8434944 166.6048889   2.9213476  53.6526794 166.4912415   4.3433032
  54.5642242 166.1127472   4.5576115  53.0849228 167.4780426   5.2711334
  51.9958534 167.4927521   5.2285519  53.3049011 166.9904022   6.7122073
  54.3805923 166.8338165   6.7926202  53.0983925 167.7294159   7.4863644
  52.7980576 165.5954895   7.0737882  53.1294861 164.8515167   6.3493876
  53.4134026 165.1745453   8.4750843  53.1147804 165.8809052   9.2496624
  52.9306068 164.2285919   8.7204046  54.4915619 165.0148163   8.4878197
  51.2677383 165.4900208   7.0671086  50.8282890 165.5690155   6.0727530
  50.8824234 164.5568542   7.4779844  50.7712898 166.2321320   7.6923485
  53.5413361 168.9595032   5.1634350  54.7485619 169.1689606   4.8937321
  52.5945091 169.9483643   5.2097716  51.2269478 169.8009491   4.8825159
  50.7446136 169.6465607   5.8477211  51.0357857 168.9431458   4.2377477
  50.7877731 171.1877289   4.2813764  49.7395210 171.3234100   4.5475707
  50.9204750 171.1516571   3.2000861  51.7301903 172.2018127   4.9868255
  51.2701607 172.4711304   5.9375887  51.9023819 173.1333923   4.4477253
  53.0121346 171.3657227   5.2382102  53.6179962 171.6106567   4.3658309
  53.6353073 171.8711700   6.5367994  53.4098015 171.3283539   7.6014700
  54.2442818 173.0589600   6.4992814  54.4982796 173.4198761   5.5908089
  54.1336861 173.9862976   7.6218162  54.2725563 173.4271545   8.5471172
  55.2102089 175.1286926   7.4162073  54.9938354 175.7380829   6.5387559
  55.2263336 175.7728729   8.2953386  56.6363678 174.6355743   7.3364143
  56.7223015 173.9155121   6.5226345  57.3151588 175.4730682   7.1753230
  56.9076195 173.9984589   8.7061729  57.2533989 174.8276215   9.5843153
  56.8359375 172.7366180   8.9076099  52.7452164 174.7424774   7.6402917
  52.1956635 175.1764069   6.6154542  52.1755371 174.8826294   8.8293180
  52.5444221 174.5740967   9.7174797  50.9857330 175.7523193   9.0227423
  50.5032921 175.8118134   8.0471344  49.9920235 175.0873108   9.9507332
  50.5227623 174.9958954  10.8983936  49.0974274 175.6965179  10.0797691
  49.6716843 173.6259460   9.5950050  49.3899384 173.5614166   8.5440273
  50.5016518 172.9752655   9.8704567  48.4874153 173.1894226  10.5095015
  48.3332481 172.1233215  10.3429079  48.6997452 173.3757477  11.5622606
  47.1951103 173.8325958  10.0990524  47.1570625 174.2054596   9.1611719
  46.1481133 173.9437256  10.9179201  46.0011826 173.2214813  11.9820127
  46.5790253 172.4208069  12.1944313  45.2692490 173.4625702  12.6348934
  45.2712708 174.8753967  10.6827612  45.5177574 175.5093384   9.9361238
  44.3818054 174.9265442  11.1585102  51.4164925 177.1459503   9.5562820
  51.2980499 177.5079041  10.7290430  51.9550972 177.9597931   8.7012606
  52.1268921 177.5337067   7.8018007  52.6106834 179.2474060   9.0231342
  53.1449928 179.0672760   9.9559631  53.6202278 179.7091217   7.9845610
  53.1537933 179.8517761   7.0097847  54.1828651 181.0946503   8.2780600
  54.7188835 181.1346588   9.2263174  54.8556061 181.4703674   7.5071144
  53.4268990 181.8597412   8.4548798  54.7774696 178.7103882   7.7769456
  54.2647095 177.8017273   7.4615159  55.4149818 179.0890198   6.9779963
  55.3753624 178.6140900   8.6832285  51.5055428 180.3200989   9.3123779
  50.9301262 180.9103088   8.4416618  51.2957306 180.5812531  10.5659876
  51.8689117 180.0946350  11.2403631  50.2743111 181.5428619  11.0163755
  49.3716011 181.4326019  10.4154997  49.8723946 181.2608490  12.4483862
  50.7014427 181.3562775  13.1495790  49.0436172 181.9042358  12.7438488
  49.3707657 179.8224182  12.6691790  50.1343651 179.0636597  12.4980574
  48.7793694 179.7618256  14.1485281  47.8611984 180.3480835  14.1856804
  48.6134682 178.7279510  14.4513073  49.4543686 180.3093719  14.8063002
  48.1223183 179.5492554  11.8671026  48.3492699 179.3184814  10.8262691
  47.7686539 178.6039886  12.2787857  47.5506821 180.4649048  12.0185232
  50.7969437 182.9767609  10.8133860  51.9226570 183.2116089  11.1701241
  49.9642944 183.9567261  10.3060465  48.6226387 183.7891388   9.7422953
  47.9940414 183.0947113  10.2997389  48.8021278 183.4851227   8.7110529
  47.9275169 185.1671448   9.8083334  47.5157394 185.3879852  10.7931013
  47.1979904 185.2385406   9.0016108  49.1405029 185.9980164   9.6109400
  49.0104561 187.0348206   9.9211187  49.5000992 185.9630890   8.5825567
  50.2863274 185.3286896  10.4984293  51.2564812 185.5702515  10.0642138
  50.3434906 185.7236633  11.9779043  49.9608879 184.9434357  12.8348770
  50.6060371 187.0172577  12.2610674  50.7692032 187.6367645  11.4802399
  50.6322250 187.5154572  13.5991411  51.4717560 187.0759125  14.1377544
  50.9137726 189.0597534  13.5208845  51.8222542 189.3048859  12.9707241
  50.0478058 189.5330353  13.0580502  51.0373573 189.4845886  14.8402662
  51.4443932 190.3501587  14.9222355  49.3397293 187.2672729  14.4242592
  48.2244568 187.2648926  13.8902197  49.4729271 187.0435028  15.7314405
  50.3587608 187.1132050  16.2115936  48.2884789 186.9199982  16.5929794
  47.7051582 186.0687866  16.2418938  48.7452545 186.8077850  18.0803070
  47.9295998 186.6782990  18.7916737  49.6399384 185.5581665  18.1301918
  50.4520760 185.6357269  17.4073391  50.1048393 185.5460815  19.1160030
  49.0224342 184.6929474  17.8890133  49.4744225 188.0269318  18.4274521
  49.4895859 188.2382965  19.3637733  47.3034248 188.1014709  16.5625229
  46.1477623 187.9454041  16.9647160  47.8698196 189.2622375  16.3091125
  48.8722763 189.1760864  16.2209835  47.2055359 190.5882111  16.3317318
  46.2932358 190.4944153  16.9208088  48.1052589 191.6642914  16.8785686
  48.9801750 191.8457642  16.2543182  47.6153526 192.6376495  16.9044628
  48.7275734 191.3508759  18.2753410  48.8586655 190.2699127  18.3244419
  49.6666451 191.8999786  18.3442516  47.7407188 191.8369904  19.7163658
  46.8099136 190.2497101  20.0657444  47.4434776 189.3630829  20.0895500
  46.2093544 190.3824158  20.9656448  46.0507240 190.1489716  19.2901230
  46.7313652 190.9296417  14.9398899  45.8788834 191.7323456  14.7420979
  47.2368393 190.3183441  13.8064213  47.9747810 189.6511078  13.9805803
  46.8106499 190.6957855  12.3860064  47.1200294 191.7390900  12.3236103
  47.6099701 189.9763947  11.2710142  47.6479340 190.6054840  10.3816833
  48.6574287 189.8985443  11.5623398  47.0584030 188.6958466  10.9181614
  46.5675354 188.8587341  10.1093874  45.3416252 190.6827393  12.0612974
  44.8704300 191.4170380  11.1518688  44.5144806 189.9815979  12.8328838
  44.9456406 189.3105316  13.4524422  43.0822868 189.7235565  12.6942644
  42.7985344 190.1480255  11.7312374  42.9361267 188.2567139  12.8542337
  43.2515259 188.0404358  13.8749475  41.8986092 187.9920959  12.6501856
  43.5861931 187.7229919  12.1609402  42.2702484 190.6447144  13.6642628
  41.0358963 190.5220642  13.6797428  42.9608192 191.6068726  14.3771334
  43.9361038 191.7080383  14.1348906  42.3813858 192.5038605  15.3753977
  41.3339615 192.5566101  15.0783634  42.4786797 191.9716492  16.8357391
  42.5910034 190.8877106  16.8125973  43.6866379 192.4770813  17.5922775
  43.6560211 193.5610809  17.7023563  43.7296906 191.9723816  18.5574284
  44.5635872 192.1752930  17.0195713  41.1834297 192.2224731  17.6694374
  40.3880463 191.6114044  17.2427616  41.4491196 191.9600983  18.6934814
  40.9412422 193.2849426  17.6447372  42.8226547 193.9780579  15.2340155
  42.0355682 194.9285126  15.3444872  44.1053238 194.1617279  14.9464579
  44.6627083 193.3211823  15.0003395  44.7317429 195.4910736  14.8237772
  44.2817192 196.0034637  15.6740923  46.2492485 195.5429382  15.1576090
  46.4917755 196.5654755  15.4469633  46.4466972 194.9211578  16.0308170
  47.2048492 195.0467987  14.0438032  46.8177719 194.0672760  13.7630701
  47.0772057 195.6653137  13.1554089  48.6966171 195.0563507  14.3838921
  49.0875244 195.4695740  15.4484453  49.5112534 194.4270325  13.5309401
  50.4992218 194.2643280  13.6634197  49.1175613 194.0380249  12.6860838
  44.2764091 196.4389954  13.7021751  45.0906258 197.3540802  13.3424339
  43.0915909 196.2709351  13.1291323  42.5147209 195.5546875  13.5466461
  42.5774918 196.9394684  11.9421196  43.3954544 196.9561615  11.2218695
  41.3777657 196.0724335  11.4445887  40.7173424 195.8092499  12.2708340
  40.9329491 196.6665192  10.6462784  41.9259300 194.7934113  10.7276955
  42.8125267 195.1511383  10.2041759  42.2308807 193.6874542  11.6972971
  41.4520645 193.5742493  12.4514341  42.3874321 192.7130127  11.2346458
  43.1714554 193.8486023  12.2240381  40.8991013 194.2402039   9.7155104
  40.3671036 194.9819183   9.1197472  41.4116058 193.6936493   8.9238482
  40.1573524 193.6327972  10.2341404  42.1450958 198.3889923  12.2060728
  40.9915657 198.7861786  12.1698217  43.1106606 199.2175598  12.6011553
  44.0405922 198.8263397  12.6488085  42.9765549 200.6109009  13.0396509
  42.1469574 201.0483704  12.4842424  42.6341896 200.6595154  14.5354881
  42.3557281 201.6589813  14.8695879  41.6885109 200.1285095  14.6442566
  43.6600800 199.9816589  15.4476242  43.6608543 198.9068146  15.2665167
  44.6774254 200.3272705  15.2641296  43.3737450 200.0298767  16.9439354
  43.9671211 199.4365692  17.7896729  42.5224991 200.9277802  17.4213905
  42.0493698 200.7044678  18.2853241  42.2989540 201.7178192  16.8331985
  44.2876511 201.3612061  12.6864758  45.2400360 200.7649078  12.1851053
  44.3734589 202.6451874  12.9691019  43.6305428 203.0832520  13.4947271
  45.4930191 203.5266266  12.4482384  45.6297493 203.3603668  11.3797064
  45.1527481 204.9959564  12.6774406  46.0750732 205.4798431  12.3560743
  44.3302155 205.3424683  12.0517588  44.8523216 205.2279510  14.0561876
  44.4430008 206.0936890  14.1234932  46.8105621 203.1646576  13.2073936
  47.8872871 203.4178009  12.6137323  46.7668877 202.5627136  14.3963318
  45.8882408 202.5142059  14.8920450  47.9944267 202.0685730  15.0895758
  48.7320709 202.8540497  15.2539110  47.5071754 201.6700287  16.4676514
  46.6016731 201.0656586  16.4136200  48.2272110 201.0140381  16.9568768
  47.2133255 202.8709717  17.3979454  48.0343781 203.5878754  17.3932991
  45.8495102 203.5755768  17.1656990  45.0046082 202.9284668  16.9301434
  45.5873222 204.3169403  17.9205017  46.0211563 204.2151642  16.2999325
  47.1823769 202.3292694  18.8588142  48.1791267 201.9520569  19.0875130
  46.9800072 203.0837555  19.6190109  46.3690643 201.6114044  18.9650955
  48.7949257 200.9453888  14.4047251  49.9018097 200.6539307  14.7910843
  48.3582039 200.4112854  13.2403755  47.4488258 200.6707306  12.8856649
  49.0798721 199.2669373  12.6831551  49.2930450 198.5327301  13.4600697
  48.1536865 198.5667419  11.7595196  48.6257439 197.6293488  11.4652987
  47.3108368 198.3512421  12.4162273  47.8653717 199.3886719  10.5846281
  47.0406380 199.8389435  10.7812510  50.4994469 199.5997009  12.0665073
  51.3845863 198.8135223  11.9798603  50.7079124 200.8940735  11.7592077
  49.9145851 201.4761353  11.9871044  51.9795418 201.5253143  11.1961241
  52.4194260 200.8023529  10.5091457  51.7496147 202.7878571  10.2788038
  52.5523224 202.9160919   9.5526409  50.9285202 202.5372467   9.6071644
  51.4237289 204.0792542  11.0313168  50.7381248 203.8861694  11.8564024
  52.3700180 204.3903656  11.4738646  50.9067993 205.2556305  10.1884937
  51.6909714 205.6383972   9.5353050  50.1580238 204.8082123   9.5348473
  50.2041359 206.2118835  11.0199671  49.5057640 205.8733368  11.6663170
  50.3334389 207.4669647  10.9720373  51.2582130 208.1141815  10.3526764
  51.7856064 207.6882324   9.6040010  51.2359886 209.1238098  10.3685646
  49.5314522 208.1838531  11.6268368  48.8159523 207.7116394  12.1608524
  49.7446327 209.1632843  11.7508984  53.1348648 201.7590485  12.2389555
  54.1520195 202.3931580  11.9251709  52.9442673 201.3548431  13.5056696
  52.0363770 200.9512634  13.6872301  53.9323425 201.4438019  14.5821762
  54.3773003 202.4357605  14.5039349  53.2387924 201.4435883  15.9626522
  52.7953453 200.4520416  16.0537205  54.0057182 201.4952240  16.7354794
  52.2715721 202.6594696  16.0957298  52.7839012 203.5861664  15.8371506
  51.4595222 202.6565552  15.3686314  51.7917824 202.8598633  17.5549774
  50.8960190 203.4768524  17.4840546  51.5940132 201.8733673  17.9742737
  52.7516594 203.5259094  18.5095940  53.4889793 203.9683075  17.9797382
  52.7257195 203.6483765  19.8148785  51.6193390 203.3161774  20.5146637
  50.8209381 203.0046234  19.9802513  51.6304512 203.2084045  21.5188370
  53.7136841 204.2126312  20.4436970  54.5488091 204.5518951  19.9881001
  53.5553818 204.4169159  21.4200687  55.1123047 200.4252319  14.4348717
  55.3193665 199.4857788  15.2203026  55.6619415 200.3633728  13.2043352
  55.5593452 201.1998444  12.6476612  56.5093803 199.3016205  12.5273829
  56.0014648 198.3468475  12.6634550  56.3897285 199.5978546  11.0716105
  55.4156761 199.9090729  10.6941576  57.1389961 200.3454742  10.8113127
  56.7041779 198.3930359  10.2214670  57.7894974 198.3041840   9.3524122
  57.6924400 197.1556091   8.7180901  58.3746147 196.7568970   7.9818368
  56.6048508 196.4886932   9.1071653  56.3551025 195.5940094   8.7105761
  55.9401245 197.2607574  10.0620289  55.0257874 196.9969482  10.5727158
  57.9457703 199.1533356  13.0041132  58.5557213 200.0786285  13.6319113
  58.4758034 197.9623260  12.7461119  58.0196762 197.3575287  12.0780821
  59.7208405 197.4039001  13.3294563  59.6694565 197.4709778  14.4161777
  59.8078957 195.8840942  12.9941311  60.7562599 195.4790802  13.3472185
  58.7245636 195.0466003  13.6457605  57.7793922 195.1945496  13.1233988
  58.9915161 193.9901733  13.6171503  58.6106186 195.4130249  14.6659822
  59.9540672 195.6558838  11.4451284  58.9548111 195.5998840  11.0133266
  60.4152489 196.4773102  10.8967848  60.7156944 194.4010925  11.0319271
  60.3658524 193.5253143  11.5784721  60.4790306 194.3396149   9.9697075
  61.7887650 194.5611877  11.1367712  61.0542679 198.1870422  13.0173225
  61.0330925 198.9709015  12.0637302  62.2106400 198.1259460  13.7063818
  62.8888283 198.7696686  13.3245516  62.8721962 197.0663910  14.5521441
  63.7817574 197.5402679  14.9212484  62.1497421 196.7347412  15.8143454
  61.3214569 196.0478668  15.6404495  62.8060951 196.0814819  16.3892803
  61.6471748 197.8738861  16.7268581  62.6015167 198.8384399  17.1852455
  63.6480789 198.7913513  16.9227734  62.1831017 199.8849335  18.0265121
  62.9203949 200.6107025  18.3364315  60.8227997 199.8942413  18.4992943
  60.5369148 200.5452423  19.3122234  59.9317932 198.9181519  18.0297337
  58.9654083 198.7846680  18.4930820  60.3110123 197.8795013  17.1073742
  59.5665703 197.1401062  16.8514385  63.4362526 195.8577576  13.7809868
  63.5237732 195.9384613  12.5505085  63.6935043 194.6889954  14.4220629
  62.5830040 193.8821564  14.9997311  61.6580658 194.0588989  14.4507675
  62.4683418 193.9630127  16.0806637  63.0113068 192.3881989  14.7605267
  62.8335876 192.0854645  13.7286015  62.5973740 191.6605072  15.4585438
  64.5135422 192.5030060  14.9020300  65.0072479 191.6649170  14.4101305
  64.7543869 192.6439362  15.9557047  64.8608093 193.8320923  14.2394114
  65.6544647 194.3266754  14.7994146  65.4592514 193.7104492  12.8175812
  64.7709274 193.4350128  11.7941027  66.7873840 193.5815887  12.6538162
  67.0453720 193.3437958  11.7067175  67.8867722 193.9488983  13.6321735
  68.8601151 194.0017395  13.1444025  68.0213623 192.7767029  14.6435566
  68.8728485 193.0310822  15.2747126  67.1008835 192.7830048  15.2273283
  68.2100754 191.5427246  13.9748049  67.3724289 191.0912628  14.1017523
  67.7111511 195.3299255  14.3484812  66.8482056 196.1325531  13.8833838
  68.4416428 195.6849060  15.4324093  69.1778946 195.0809631  15.7689743
  68.0341721 196.7377472  16.3303432  67.2175446 197.1978455  15.7739868
  67.3416138 196.0325623  17.5538578  66.7425919 195.2029724  17.1782990
  68.1219788 195.6668701  18.2212410  66.4318695 196.8246002  18.2875671
  65.6428833 196.3082428  18.4677830  68.9628983 197.8972778  16.7045364
  68.7247925 198.6049652  17.6527653  70.0801620 198.2765350  16.0468445
  70.4292755 199.1251678  16.4688053  70.9026184 197.7462311  14.9640064
  71.7283478 198.4564209  14.9202557  70.0468597 198.0241089  13.6818647
  69.3257599 197.2108459  13.5999060  69.3510361 198.8570251  13.7827034
  70.7150497 198.1168365  12.2519741  71.0307236 197.1205902  11.9422016
  69.8614655 198.4791565  11.6790676  71.9400864 199.1202545  12.2272730
  71.7660141 200.0310822  12.8001375  72.7871780 198.6078949  12.6833925
  72.5130768 199.4102173  10.7815361  71.7655411 199.9901123  10.2402172
  73.4027557 200.0398560  10.7926760  72.8800735 198.1573486  10.0833797
  72.0847473 197.5546112   9.9275856  73.3496704 198.3292389   9.2058620
  73.5772476 197.5908508  10.5450525  71.6790009 196.3731232  15.1373672
  71.8997574 195.7211456  14.0985069  72.1105957 195.9572296  16.3812637
  71.6922989 196.4490814  17.7095757  70.6186142 196.3053589  17.8305931
  72.0197449 197.4872894  17.7644253  72.2491684 195.5251770  18.8094959
  71.5233078 195.0459137  19.4664154  72.9778366 196.1178131  19.3625813
  72.9544144 194.4179535  18.0015640  73.8689117 194.0764160  18.4864693
  72.2136154 193.6191254  17.9668293  73.1617050 194.9776917  16.5743504
  73.2080307 194.1197052  15.9036627  74.5480957 195.6885223  16.5180626
  75.5796890 195.0267334  16.5704327  74.5765915 197.0290222  16.4436531
  73.6734848 197.4762878  16.3768883  75.7457275 197.9202881  16.2910252
  76.3675919 197.5700836  15.4671621  75.2326736 199.4102325  16.0644913
  74.2342987 199.4267273  15.6273775  75.2748413 199.9944611  16.9837284
  76.0923920 200.0619812  15.0172739  77.1109772 199.6868286  15.1164751
  75.7036209 199.8316803  14.0253448  76.3003922 201.5837708  15.1548996
  76.8846893 201.8230896  16.0433903  76.9878235 201.9066467  14.3730536
  74.9687958 202.3439331  15.0825214  74.1534576 201.7210236  14.7146835
  74.6455460 202.4766083  16.1149960  75.1355591 203.6663513  14.3761129
  75.4600067 203.5460052  13.4272442  74.2568054 204.1360626  14.2110138
  75.6769485 204.2780151  14.9701376  76.7352753 197.7233124  17.4577312
  77.9392471 197.6670532  17.2575302  76.1773682 197.5989227  18.7038803
  75.1752014 197.7229309  18.6843586  76.9852829 197.4610138  20.0016785
  77.9709167 197.9043427  19.8599377  76.3360596 198.2306213  21.1476059
  77.0679703 198.1912689  21.9543648  76.0233688 199.6629181  20.6751289
  75.2037659 199.7307281  19.9597569  75.7507629 200.1716309  21.5997868
  76.9384460 200.1199188  20.2984447  75.0781174 197.4970245  21.7222862
  75.4376450 196.5307159  22.0759716  74.5984879 198.0597839  22.5231361
  74.3047104 197.3215332  20.9745293  77.3526611 196.0127563  20.3431835
  77.9494629 195.8048096  21.4122810  77.0691605 195.0176392  19.4962215
  76.5671387 195.2941437  18.6645832  77.2992935 193.6006165  19.7697716
  77.1501541 193.0881500  18.8193798  78.8631668 193.3586426  19.9942608
  79.1667709 193.4889984  21.0329762  79.1194382 192.3195190  19.7876892
  79.8843307 194.1756592  19.1933575  80.9124985 194.8732910  19.7142582
  81.0653687 194.9880066  20.7772121  81.7125778 195.3070679  18.6303844
  82.5054932 195.9303741  18.6839504  81.3179855 194.7335205  17.4495392
  81.7625580 194.9546356  16.1441536  82.6783447 195.4894104  15.9398165
  81.0564957 194.4521942  15.0666475  81.5117798 194.5333405  14.0906706
  79.7780991 193.8756104  15.3447466  79.2373428 193.4301147  14.5228434
  79.3167725 193.6876221  16.6520081  78.3462906 193.2550049  16.8454590
  80.0692596 194.1574707  17.7596645  76.3999100 192.8402100  20.7746220
  75.1866608 193.0559540  20.7223873  76.9627151 191.8831635  21.5582638
  77.9510117 191.9069824  21.3513718  76.4708023 191.2153320  22.8154354
  77.4084320 190.8451996  23.2301121  75.6707153 189.9094086  22.5164928
  75.3952560 189.4888916  23.4836559  74.8373184 190.2828522  21.9214363
  76.4651871 188.8065643  21.7998161  75.7537689 188.0586548  21.4496460
  76.8659821 189.1607971  20.8500881  77.4804230 187.9479980  22.5228615
  78.0174484 188.2806854  23.5660973  78.0310974 186.8595123  21.9441948
  78.7414017 186.3400421  22.4398975  77.6554031 186.4750214  21.0891399
  75.9610825 192.1537628  23.9191380  75.5415878 193.2861176  23.7009106
  76.1421127 191.6638489  25.1062679  76.5155411 190.7254333  25.1014290
  76.2919464 192.3291931  26.4169865  76.0459976 191.5977173  27.1867561
  77.7587891 192.7309265  26.6692791  77.8811111 193.2695618  27.6089668
  78.2650757 191.7860260  26.8666477  78.5077438 193.4576721  25.4924603
  78.8162460 194.6871033  25.6229191  78.9191971 192.8313751  24.4529343
  75.4223175 193.5248718  26.5872498  75.7477341 194.5773926  26.0195789
  74.4145432 193.4329376  27.4098186  74.1885147 192.5009308  27.7266521
  73.5595932 194.5285797  27.9449997  72.6865997 194.0773010  28.4165173
  74.2480774 195.2847443  29.1313801  73.5255203 195.9563904  29.5949516
  74.4528351 194.5825653  29.9395370  75.5954971 196.0470886  28.9537468
  75.9440155 196.2772522  29.9605560  76.3162918 195.3996429  28.4543800
  75.4335022 197.5140076  28.3325729  74.4758911 197.9796600  28.5654850
  76.1810989 198.1319580  28.8299103  75.7437210 197.6216431  26.8759689
  74.9856033 197.9948578  26.3227291  76.8063202 197.1744385  26.2099419
  77.8554382 196.8550568  26.9177589  77.9335709 197.1906586  27.8671608
  78.5951157 196.3308411  26.4725857  76.8593445 197.3049622  24.9206524
  77.5495758 196.7329407  24.4553909  76.1956024 197.7952118  24.3382473
  72.8501663 195.4691620  26.9303341  72.5148468 195.0518646  25.8422813
  72.4709625 196.6558380  27.3675327  72.6720886 196.8039856  28.3461552
  71.5921936 197.6775208  26.7762547  71.5990753 198.4870605  27.5061150
  72.2869720 198.2529449  25.5663891  72.5372696 197.5530243  24.7691689
  71.6882172 199.0649567  25.1537933  73.2238312 198.7138214  25.8794117
  70.1307449 197.2599792  26.5735054  69.2156525 197.7175751  27.2906857
  69.8196487 196.5071411  25.5374718  70.5493393 196.1557617  24.9340019
  68.4943314 196.0572052  25.0884876  67.9849014 197.0177765  25.0118046
  68.5658035 195.5454254  23.6443024  67.6203537 195.0813904  23.3634434
  68.7015839 196.4049072  22.9878292  69.6084290 194.4998932  23.3189621
  69.2691269 193.1243896  23.3373165  68.2689514 192.7807922  23.5564003
  70.2660904 192.1727600  23.0034256  69.9720230 191.1359100  23.0731049
  71.5705338 192.5253601  22.6425457  72.3573227 191.8309021  22.3873730
  71.8724976 193.9208832  22.5323505  72.8670731 194.2659760  22.2912388
  70.8477631 194.9129486  22.8718891  71.0549850 195.9724884  22.8431835
  67.7660370 195.1111145  26.0205116  67.1905136 194.0879822  25.6317291
  67.6660767 195.4988251  27.3240871  68.2076569 196.2756500  27.6752777
  66.8550262 194.8371429  28.3529072  66.7112961 193.7754822  28.1521130
  67.4970093 194.9588928  29.7360630  67.4812775 196.0130768  30.0127850
  66.8185120 194.3486481  30.3321743  68.9489670 194.4684296  29.9164219
  69.0571518 193.6493683  30.6274261  69.3063049 194.1102905  28.9509468
  69.9097290 195.5740509  30.4648685  70.8699112 195.0644226  30.5450001
  69.9149933 196.3398590  29.6892319  69.5079956 196.1357117  31.7682114
  69.2986755 195.4126129  32.4415703  69.3720474 197.3972168  32.1615982
  69.6007690 198.3845978  31.4067287  69.8881760 198.3418121  30.4394264
  69.4308701 199.3047028  31.7870579  68.9768295 197.5899353  33.3741570
  68.6488876 196.8321838  33.9558563  68.8926773 198.4685822  33.8650856
  65.4054260 195.4752350  28.2466698  64.4279861 194.7687225  27.9118595
  65.3789368 196.7942352  28.4203720  66.2935410 197.2124481  28.5136299
  64.2308121 197.6981354  28.2511616  63.4976006 197.3598785  28.9833393
  64.5929718 199.0991058  28.7845936  65.3335953 199.5732727  28.1405792
  63.6757698 199.6875153  28.8095818  65.1072388 199.1293488  30.2377949
  64.5383072 198.4058838  30.8217602  66.1118240 198.7091064  30.2858925
  65.2143936 200.4904175  30.9423561  65.1089172 201.5596466  30.3511314
  65.6058350 200.4498138  32.2033615  65.8412857 201.2895660  32.7127609
  65.7934799 199.5590820  32.6409454  63.6158066 197.6542511  26.8498516
  62.4097710 197.6875916  26.7282524  64.3873062 197.5067749  25.7642574
  65.3522186 197.7844543  25.8735409  63.8867340 197.1864166  24.4267139
  63.1299171 197.9058228  24.1140175  64.9231796 197.1450348  23.3405571
  65.5116730 198.0600433  23.4080238  65.6939011 196.3915405  23.5027714
  64.3260574 196.9657745  21.9551640  63.7204361 197.9364319  21.2481937
  63.7540512 198.9551239  21.6053028  62.9407425 197.3575134  20.2182503
  62.3058510 197.9295807  19.6799469  63.2344208 196.0245972  20.1444340
  62.7224464 195.0471497  19.2779121  62.0481224 195.3067780  18.4752369
  63.0284271 193.7072754  19.4325352  62.6007156 192.9404144  18.8037338
  63.8495750 193.3804626  20.5365009  64.0643311 192.3281860  20.6505547
  64.3751526 194.3429260  21.4660149  65.0727234 194.0889435  22.2504215
  64.0154953 195.7050323  21.3134499  62.9358940 195.9325714  24.3781605
  61.7788658 196.1224060  24.0015736  63.3052711 194.7398224  24.8975754
  64.2248764 194.5973663  25.2901726  62.3531113 193.5799255  24.7822685
  62.0311699 193.5267487  23.7422543  63.0871506 192.2673340  25.2073803
  63.9518356 192.5198059  25.8211250  62.4278488 191.6161346  25.7812824
  63.5564117 191.5100098  24.0203075  64.8892517 191.4160614  23.7132835
  65.7372131 191.8837433  24.1914349  65.0424118 190.6211395  22.5795040
  65.9197159 190.2816467  22.2118416  63.8446655 190.2599487  22.0248356
  63.4929810 189.5686035  20.8357449  64.2087479 189.2257385  20.1032658
  62.1192741 189.4654083  20.5158195  61.7839661 188.8967285  19.6610909
  61.2005692 190.0570526  21.3168316  60.1811600 189.9980316  20.9650898
  61.4676628 190.8030853  22.4808025  60.6940231 191.1581879  23.1454659
  62.8619728 190.8575439  22.8884125  61.0524445 193.8014679  25.5942020
  60.0526657 193.2590942  25.1963577  60.9637299 194.7426453  26.5517826
  61.8466721 195.2070465  26.7094135  59.7655602 195.2452087  27.2384415
  59.0686417 194.4170532  27.3671627  60.0769043 195.7360535  28.6513042
  60.8445320 196.5083466  28.6020985  59.1888809 196.0870819  29.1769390
  60.6519127 194.5159454  29.4314899  59.9476166 193.6860504  29.3735313
  61.6015015 194.2299042  28.9791985  60.8273315 194.9536438  30.8685608
  61.6092415 195.8450012  31.2061234  60.1176949 194.3207703  31.8014374
  60.4917679 194.5338898  32.7150841  59.4797516 193.5687714  31.5831852
  59.0166435 196.2179871  26.3639870  57.7953339 196.1741028  26.3479805
  59.6945915 197.1375580  25.7055855  60.6896591 196.9651794  25.7205086
  59.2065086 198.1992950  24.8475723  58.4264259 198.7145844  25.4079666
  60.3637619 199.1125336  24.6509380  60.9090919 199.2958832  25.5767326
  61.0980797 198.6875610  23.9666328  59.8773651 200.4586182  24.0832405
  59.3935394 200.2700195  23.1248856  59.1597290 200.9608765  24.7319641
  61.1096230 201.4000702  23.7949696  61.8032532 201.5204773  24.6271267
  61.6960068 200.8162842  23.0854359  60.7002296 202.8181763  23.2388630
  61.6249619 203.2386322  22.8436508  59.9757652 202.6432037  22.4434814
  60.0646210 203.6821289  24.2493362  60.6906395 203.8772888  25.0175343
  59.9350662 204.5929108  23.8324318  59.1655312 203.4136200  24.6230125
  58.6729202 197.6015778  23.5675220  57.5028419 197.8949432  23.3007030
  59.3499870 196.7562714  22.7928009  60.2887611 196.5296478  23.0885029
  58.8061600 196.0750122  21.6079865  58.5991516 196.7707520  20.7948513
  59.9523354 195.2254944  21.0586472  60.6667290 195.8391876  20.5098991
  60.5027847 194.6791382  21.8245544  59.5338135 194.1706696  20.0280704
  59.4812431 194.5645905  18.6909046  59.7270432 195.5659943  18.3697166
  59.0867386 193.6114349  17.6920433  59.1250229 193.8678741  16.6436253
  58.8143578 192.2776947  18.0380974  58.4504433 191.3164673  17.1156864
  58.7602196 191.5533905  16.2384739  58.7512856 191.8897705  19.4146900
  58.3726196 190.9430847  19.7707748  59.0966377 192.8403473  20.3835411
  59.1887054 192.5123291  21.4083958  57.5327911 195.2459869  22.0074444
  56.5734940 195.4685364  21.2879601  57.5366096 194.4631042  23.1263523
  58.4053764 194.3479767  23.6284428  56.3062744 193.7997894  23.5529900
  56.0792542 193.0952148  22.7529030  56.6541519 192.9787598  24.7939987
  57.4430962 192.3064728  24.4568119  57.2154465 193.5932465  25.4978886
  55.5437584 192.2701416  25.5714455  54.6874466 192.9221649  25.7437878
  55.1132278 191.5154266  24.9133091  56.0785637 191.6970825  26.8907108
  56.6579208 190.6157684  27.0177460  55.6283684 192.2972870  27.9255180
  55.9845695 191.9003448  28.7832241  54.9448318 193.0339661  27.8246193
  55.1103973 194.7720032  23.7751350  54.0571785 194.6396484  23.1321373
  55.2876778 195.7478790  24.7115860  56.0692406 195.7597656  25.3512077
  54.2974396 196.8743744  24.9425335  53.4535255 196.4274292  25.4680347
  54.9101372 197.8773804  25.9425106  55.2985039 197.2924347  26.7762470
  55.6916351 198.4153290  25.4058857  53.8505936 198.8403931  26.6196251
  53.2523613 199.3232880  25.8469467  53.1408615 198.2406006  27.1893883
  54.5015793 199.7208099  27.6718826  54.9775696 199.1399994  28.4619370
  55.2909203 200.3443298  27.2520294  53.3645172 200.6376495  28.0820961
  53.0201759 201.1060486  27.1600723  52.4646454 200.1606293  28.4704094
  53.7494240 201.6686096  29.1174641  54.5886002 202.1658783  28.8555126
  53.0058784 202.3436432  29.2250729  53.9467201 201.2443390  30.0125427
  53.8915634 197.5858612  23.6275845  52.7050514 197.8930969  23.4543762
  54.7538147 197.7899170  22.6209965  55.7320862 197.6381531  22.8211498
  54.3697052 198.4239349  21.3031063  53.7194824 199.2655487  21.5418739
  55.6513710 199.0077515  20.7037582  56.1255188 199.5737152  21.5056038
  56.3317947 198.2003326  20.4331722  55.3393898 199.8876038  19.4708443
  54.8586159 199.3168640  18.6763458  54.5927124 200.6436768  19.7135601
  56.4703484 200.6811981  18.9693298  57.3065300 200.0158691  18.7542801
  56.2134514 201.0750275  17.9859695  56.8603363 201.7570648  19.8680229
  56.2319717 201.7961578  20.6577892  57.6375771 202.8128967  19.6757278
  58.3197746 202.8973694  18.5807247  58.1238823 202.2180328  17.8594627
  58.7604370 203.7221222  18.1989956  57.7298851 203.8226013  20.5390892
  57.1782913 203.8593903  21.3843651  58.2967072 204.6352997  20.3433132
  53.6779442 197.5569763  20.2599792  52.6470184 197.9821930  19.6258602
  54.1067238 196.2958832  20.1260262  55.0189514 196.0993805  20.5124474
  53.5775490 195.3761902  19.1441593  53.3461189 195.8910675  18.2117176
  54.6708603 194.3970947  18.7336483  55.5771790 194.9669647  18.5288353
  54.9459496 193.7961578  19.6004238  54.3028374 193.5854034  17.4862976
  53.4462357 192.9927826  17.8074398  53.9666672 194.2429352  16.6845856
  55.4393578 192.6532288  17.0578938  56.2793236 193.2437439  16.6920376
  55.8278313 192.0877533  17.9049091  55.0807877 191.6818695  15.9008141
  55.9232216 191.0187073  15.7043037  54.3212585 190.9816284  16.2484951
  54.6265717 192.3547363  14.5931349  55.3149834 193.0246735  14.2811031
  54.5146141 191.6215363  13.9075670  53.7680550 192.8553314  14.7732725
  52.2727966 194.7373810  19.5710564  51.2767754 194.6971436  18.8133240
  52.2693634 194.2984772  20.8232346  53.0794563 194.4923553  21.3944283
  50.9714165 193.7646637  21.4783115  50.2817688 193.4536438  20.6936054
  51.2377167 192.4581757  22.2627811  51.6793213 192.7719574  23.2086258
  50.2764015 191.9762573  22.4409218  52.2102547 191.5093536  21.5858021
  51.8832436 190.9496765  20.3336811  50.9362411 191.0443268  19.8231697
  52.8099518 190.0439148  19.7346554  52.5535393 189.5574493  18.8051376
  54.0169563 189.7175293  20.3485870  54.6835327 189.0280914  19.8518314
  54.3413696 190.3356018  21.5811176  55.2279549 190.0610046  22.1333656
  53.4782944 191.2803345  22.1744061  53.7176666 191.6566315  23.1580181
  50.1601601 194.8101807  22.2434673  49.2858963 194.5097198  23.0602207
  50.3574028 196.0824127  22.0054970  51.1338387 196.3782196  21.4312611
  49.4929276 197.1701965  22.5124321  49.7166138 197.3472443  23.5644398
  49.8192215 198.3667297  21.5921173  50.8914566 198.5563507  21.6416836
  49.6152191 198.0206909  20.5788383  49.0874977 199.6007080  21.8997021
  49.3696098 200.3178101  23.0454960  48.2989578 201.1154480  23.1294632
  48.2212486 201.9263306  23.8385582  47.4719391 200.9496765  22.0266914
  46.6306229 201.5053253  21.9672089  47.9439354 199.9813385  21.2544365
  47.4084549 199.5204468  20.4375858  47.9998703 196.8545532  22.3077106
  47.2523537 197.1437988  23.2264423  47.5636940 196.1676331  21.2487888
  48.2989082 195.9799042  20.5822182  46.2074890 195.8931122  20.9224243
  45.6241531 196.7027130  21.3610268  45.9210892 195.8913269  19.4187450
  46.4861946 195.0783234  18.9629230  44.8649635 195.7198181  19.2107029
  46.4662819 197.4091492  18.5509434  45.4588776 198.2791748  18.6652985
  45.7417564 194.5318451  21.5293808  44.6010895 194.1560059  21.3793316
  46.4655724 193.9221344  22.4575291  47.4149399 194.2298584  22.6127892
  46.0446320 192.7953949  23.2209454  45.8196526 191.9817200  22.5314312
  47.3104782 192.3098145  23.9488392  47.5508385 193.0249176  24.7355728
  47.2166786 191.3869781  24.5212650  48.0783424 192.0586243  23.2171268
  44.8522301 193.0929260  24.1420422  44.0849686 192.1509094  24.4483528
  44.6334229 194.3551788  24.5331745  45.2385063 195.1596222  24.4504700
  43.3774376 194.8402710  25.2350750  43.3134651 194.3092499  26.1848278
  43.5733566 196.3938599  25.4293137  42.7105217 196.7953339  25.9607697
  44.4632950 196.5548096  26.0377541  43.8435249 197.0178680  24.1998215
  43.2382202 197.7506256  24.0646839  42.1388168 194.6450195  24.4195557
  41.0342140 194.7468414  25.0312138  42.0998611 194.3129578  23.1354561
  43.0005684 194.0975189  22.7324486  40.8954620 194.2127533  22.3567677
  40.0844574 194.7666931  22.8295364  41.1438408 194.8347473  20.9716167
  41.9385452 194.2239685  20.5432358  40.2151413 194.9237976  20.4079781
  41.7190094 196.2575226  20.9982491  42.6371231 196.1951904  21.5824432
  41.9797173 196.8335724  19.5780754  41.0197639 197.0813293  19.1250744
  42.6391029 197.7014160  19.5905418  42.3592949 195.9916229  18.9991570
  40.8078423 197.2020416  21.6912785  40.6247978 196.8615417  22.7104244
  41.3274040 198.1600189  21.6702385  39.8631058 197.2783661  21.1529903
  40.3799858 192.7648468  22.3780479  39.1751518 192.5257263  22.3186607
  41.3012962 191.8027344  22.4845390  42.2349854 192.1202850  22.7024765
  41.0958138 190.4061890  22.8887005  40.1538162 189.9313812  22.6142788
  42.1760368 189.4657745  22.2793713  41.9916420 188.4680328  22.6776257
  42.1627235 189.4314117  20.8157673  42.3828163 190.3741608  20.3148994
  42.8658600 188.6707611  20.4764786  41.2244377 189.0462341  20.4165630
  43.3885765 189.8846893  22.7601490  43.9820900 189.1372375  22.8633690
  41.1088066 190.3505249  24.4198761  41.0240784 191.3052063  25.1642303
  41.0614777 189.1194000  24.9649715  41.0496597 188.2910309  24.3872471
  40.7250214 188.8344269  26.4045696  40.2875137 189.7218018  26.8620243
  39.5951576 187.8776855  26.5155296  39.5345268 187.4912567  27.5329285
  38.6578178 188.3689728  26.2545471  39.8261719 186.6804199  25.6734352
  39.6312675 185.8388672  26.0922432  41.9284782 188.5358124  27.3746719
  41.7463493 188.4274139  28.6057262  43.0964241 188.5034485  26.7980404
  43.2178192 188.8312225  25.8504486  44.3917999 188.1797180  27.4853649
  44.1966553 187.8394470  28.5023384  45.1054840 187.1178284  26.6256790
  45.3499756 187.5024567  25.6355362  46.0595512 186.8832245  27.0977230
  44.2253876 185.8677979  26.4452457  43.7912064 185.3288879  25.2825394
  43.8662186 185.7869415  24.3073692  43.2211266 184.1043091  25.5340462
  42.8485069 183.4693146  24.8426476  43.1296043 183.8048706  26.8690052
  42.6814232 182.6604919  27.5230618  42.0962601 181.8914185  27.0408859
  43.0697784 182.5174713  28.8487530  42.8068504 181.5658875  29.2866287
  43.5499153 183.6386108  29.5561790  43.6820335 183.5896759  30.6269493
  43.9505119 184.8383942  28.9030228  44.3668938 185.6133423  29.5295105
  43.8137436 184.9461823  27.5033932  45.3672562 189.3618774  27.6448326
  45.3492699 190.3005981  26.8586712  46.2373581 189.3775635  28.6654243
  46.3046417 188.3493500  29.7007046  46.6250572 187.4090118  29.2521496
  45.3729668 188.2464752  30.2570305  47.4210358 188.8445892  30.6639862
  48.3764458 188.3895111  30.4028492  47.1923332 188.6282806  31.7075424
  47.6088600 190.3284302  30.3271465  48.6572533 190.6133881  30.4152546
  46.9878769 190.8898315  31.0252209  47.1977959 190.4293976  28.8364487
  46.7397079 191.4062653  28.6815968  48.4223442 190.2754211  27.8697033
  48.6109772 189.1915131  27.3299847  49.2743683 191.3382568  27.6133766
  49.0532570 192.6883087  28.0829411  49.4182281 192.7578278  29.1076679
  48.0145226 193.0130310  28.0222683  49.7712708 193.6294098  27.1593552
  50.1600571 194.4950867  27.6955833  49.2779427 194.0889893  26.3028908
  50.8350754 192.7422028  26.5865250  51.6587524 192.6947784  27.2988491
  51.1944733 193.0853729  25.6163883  50.2369843 191.3311005  26.5510178
  49.7459450 191.1284485  25.5992222  51.3144684 190.2415771  26.6421623
  51.6537018 189.7887421  25.5919018  51.7317085 189.7761993  27.8105297
  51.3643570 190.0437469  28.7125130  52.8423996 188.8387909  27.9695244
  53.6892548 189.2540588  27.4231892  53.2903442 188.7314758  29.4108334
  54.0333595 187.9349060  29.4495239  53.9595261 189.5730438  29.5898800
  52.2450905 188.5435486  30.4816856  51.7412605 189.5950165  31.2144642
  52.0481377 190.6257935  31.1159267  51.0029449 189.0905914  32.2289352
  50.5834541 189.6926880  32.9229202  50.9006042 187.7153168  32.2075386
  50.3093643 186.8031006  33.0397034  49.6569176 187.1015320  33.8469467
  50.3543205 185.4131317  32.7847176  49.7982178 184.6840820  33.3553658
  51.0797501 184.9635620  31.6554642  51.0392265 183.9244843  31.3638134
  51.7270050 185.8892670  30.7977371  52.1826744 185.5062256  29.8966045
  51.6297646 187.3143158  31.0784969  52.4542618 187.5128937  27.3229561
  53.3452225 186.8765259  26.8385258  51.2037506 187.0992737  27.2375355
  50.4175568 187.6079102  27.6160698  50.9033203 185.7693329  26.7105217
  51.5783119 185.1688385  27.3203468  49.4252357 185.3518219  26.9688129
  49.1936684 185.4451447  28.0298367  48.8488235 186.0428314  26.3536987
  48.9837227 183.8956757  26.5774822  49.3231888 183.7630920  25.5502110
  49.4487572 182.7051849  27.4349117  48.9409332 182.5842438  28.3917770
  49.3242264 181.7471008  26.9302502  50.4910965 182.7346344  27.7523346
  47.4802818 183.7708282  26.3210812  47.3201981 184.2550507  25.3577518
  47.1059036 182.7507782  26.2349052  46.9718819 184.2707367  27.1455345
  51.4158936 185.5641785  25.2791042  51.7841911 184.5003967  24.8765049
  51.2356300 186.6139832  24.4692268  51.0150986 187.4860535  24.9285316
  51.5812035 186.5991211  23.0368938  51.1459808 185.6742096  22.6584435
  50.9622459 187.7803802  22.3066425  51.3559608 188.7640076  22.5627346
  51.3149605 187.7842255  21.2752895  49.4573326 187.7925720  22.3708210
  48.7557869 186.7423248  21.7275524  49.3429947 185.9870453  21.2264061
  47.3513412 186.5756683  21.8222027  46.7829323 185.8281250  21.2888107
  46.6614342 187.5051270  22.5222454  45.2994003 187.5544434  22.4129200
  44.9113007 186.7190857  22.1424637  47.3181229 188.6254578  23.1451645
  46.7455406 189.4254608  23.5907497  48.7267570 188.7564240  23.0248623
  49.1526604 189.6636047  23.4273796  53.0681381 186.4696655  22.7967434
  53.4101295 185.7102814  21.9182072  53.9193878 186.8816528  23.7480717
  53.5831718 187.5812073  24.3943462  55.3400993 186.6196594  23.6785355
  55.7105446 186.9026642  22.6932545  56.0163803 187.4044189  24.7432079
  55.7376671 187.1072693  25.7542076  57.0884552 187.2795258  24.5910168
  55.6498032 188.7746735  24.6848049  56.1417465 189.3173065  25.3053970
  55.6986618 185.1094360  23.8443279  56.7651482 184.7207489  23.4755211
  54.7507896 184.3179779  24.3479328  53.8797646 184.7785187  24.5699863
  54.8438911 182.8267670  24.4579868  55.9033623 182.5774994  24.3988457
  54.1641655 182.3287811  25.7305012  53.0993233 182.4635468  25.5406075
  54.2519798 181.2488861  25.8498116  54.4727440 183.0363159  27.1158562
  53.9766693 184.0057220  27.1632767  53.8443298 182.2851562  28.3386898
  54.3467216 181.3289185  28.4846249  54.0772133 182.9119415  29.1995087
  52.7773285 182.1808167  28.1419010  55.9701881 183.2281494  27.3988018
  56.4123459 183.8857727  26.6503792  56.2317276 183.6894379  28.3511257
  56.4211617 182.2380676  27.3320198  54.2590866 182.1149292  23.2676640
  54.1901360 180.8775177  23.3329067  53.9178276 182.8723297  22.2033291
  54.0384026 183.8744965  22.2381592  53.3181114 182.3107605  20.9737682
  53.6074219 181.2620544  20.9058208  51.7558899 182.4041901  20.9913998
  51.4234695 183.4111938  21.2434597  51.4070206 182.2951202  19.9645138
  50.9975967 181.3723297  21.8285503  50.6439171 181.6105042  23.1683083
  50.9209404 182.5532990  23.6164150  50.0240746 180.6260376  23.8985615
  49.8213081 180.7906799  24.9465046  49.7505836 179.3813171  23.3486824
  49.4306946 178.3229065  24.2047081  49.6655731 178.4005280  25.1322899
  50.0087547 179.1057434  22.0042400  49.7204475 178.1680603  21.5525570
  50.6461105 180.1225586  21.2742119  50.7733459 179.9161072  20.2217903
  53.8627472 183.0149231  19.7184086  53.8139801 182.4884186  18.5711918
  54.4850922 184.1286011  19.8281898  54.4312210 184.6035767  20.7179050
  55.2270889 184.8600464  18.7884598  54.5330734 185.0323639  17.9658051
  55.4685745 186.2556000  19.3424854  54.5283432 186.7710114  19.1465034
  55.6400528 186.2628174  20.4188881  56.5937653 186.9765015  18.5977211
  56.6160393 186.9481201  17.3563061  57.5769424 187.4352722  19.2520161
  56.5120430 184.1687775  18.2891045  57.4286194 183.9046173  19.0604725
  56.5856705 183.8865662  16.9621582  55.7795258 184.1042633  16.3939762
  57.7954254 183.2862854  16.4152946  57.9830360 182.3030243  16.8466892
  57.6367035 183.1760406  14.8769341  57.5312500 184.1875305  14.4846945
  58.4085808 182.5326080  14.4546623  56.7350235 182.5702820  14.7867155
  59.0842514 184.0518494  16.6631546  60.1085358 183.3959808  16.8163662
  59.1145592 185.3672180  16.8309593  58.2136574 185.8213959  16.8778152
  60.3641205 186.1130524  16.9645538  61.1691093 185.7099609  16.3500614
  60.1189690 187.5858002  16.5029564  59.4230347 188.0750122  17.1844521
  61.0559883 188.1423492  16.5219193  59.5135193 187.6833954  15.0976181
  58.5424919 187.1882172  15.0938797  59.2242393 188.7107239  14.8762712
  60.4481392 186.9597321  14.0784216  61.6988258 187.1050568  14.0345821
  59.9212837 186.2957153  13.1867323  60.8794556 186.0665741  18.4146767
  62.0888786 185.8925934  18.6991005  59.9713593 186.0438690  19.4463387
  58.9901848 186.1866608  19.2539558  60.4072800 186.0656738  20.8022308
  61.2340660 186.7573242  20.9639263  59.2809448 186.4915161  21.7670536
  58.4377480 185.8091125  21.8740406  59.8007889 186.5664520  23.2459507
  60.7381134 187.1206665  23.2944851  59.1973648 187.0443878  24.0176697
  59.9901123 185.5818481  23.6735497  58.7135925 187.7608490  21.5585518
  58.1540146 187.6552429  20.7856865  60.8043823 184.6803894  21.2050495
  61.8154335 184.4575195  21.8249950  60.0817642 183.6579742  20.6621666
  59.3478699 183.8901062  20.0082493  60.5225677 182.2449646  20.6526604
  60.4947929 181.8964233  21.6850586  59.3841362 181.4664001  19.8472481
  59.2008591 181.8913422  18.8603706  59.8451347 180.5093536  19.6030216
  58.0465965 181.2490845  20.4838314  57.7293053 182.2537689  20.7631836
  57.0385780 180.6219788  19.5106716  57.4681244 179.7730713  18.9787426
  56.1711197 180.2816925  20.0762005  56.6386681 181.2935333  18.7509422
  58.2120476 180.3473816  21.7157688  58.7636795 180.8134918  22.5321922
  57.2836647 180.1672516  22.2577686  58.5767632 179.3446503  21.4930305
  61.8404846 181.9922638  19.9980793  62.5605469 181.2335815  20.6349888
  62.2289963 182.5794525  18.8511009  61.6530876 183.1925507  18.2920570
  63.5688095 182.3530121  18.3046684  63.7012062 181.2737122  18.2291546
  63.8105965 183.0184937  16.9473953  63.4711456 184.0535278  16.9869347
  64.8785629 183.0271606  16.7294846  63.1143036 182.3743286  15.7851553
  63.4938889 181.3606110  15.6571245  62.0968628 182.2610016  16.1594276
  63.2629089 183.1001892  14.1035872  65.0356827 182.8094940  13.9138546
  65.2314682 181.7833252  14.2248802  65.3251038 182.9562073  12.8732719
  65.5487213 183.5091705  14.5736561  64.5718307 182.9160919  19.3007050
  65.5618057 182.2821198  19.6431503  64.3529663 184.1392059  19.7563648
  63.4841499 184.6121979  19.5525398  65.4031067 184.8403778  20.5118408
  66.3601685 184.8368530  19.9901772  65.0677261 186.4113922  20.6864414
  64.9036942 186.9082336  19.7302227  64.1350937 186.4764709  21.2468491
  66.1401138 187.2276764  21.4234982  65.8523941 188.2773438  21.4827156
  66.2369156 186.8228149  22.4308796  67.4998322 187.0907898  20.7396870
  67.5206757 187.2156067  19.4902706  68.5573730 186.8003540  21.4086018
  65.6295547 184.2772980  21.9001179  66.7809296 184.1887207  22.3431683
  64.6096268 183.7995300  22.6190319  63.6838570 183.8028259  22.2152557
  64.8424530 182.8867340  23.7652893  65.3360062 183.3943939  24.5940132
  63.4810829 182.4384003  24.3527870  62.8669014 181.9686890  23.5845051
  63.5869446 181.7300568  25.1744633  62.6312408 183.5859222  24.9165478
  63.1526031 184.1059113  25.7202206  62.5059090 184.3448639  24.1442795
  61.2867584 183.0163574  25.4288750  60.5485840 183.7758026  25.6866322
  60.9359932 182.4417114  24.5716400  61.5018616 182.2582550  26.6588078
  62.2330627 182.5565491  27.2884769  60.7418327 181.3137512  27.1528549
  59.6374969 180.7644196  26.6128769  59.1609612 181.3402405  25.9335785
  59.1965408 179.9806824  27.0726795  61.1246796 180.6752777  28.1919479
  61.8268433 181.0935669  28.7853355  60.5888100 179.8610992  28.4566231
  65.6990891 181.6559601  23.4592209  66.4757767 181.2386475  24.2893066
  65.5773392 181.0487061  22.2434254  64.8532104 181.3001404  21.5857639
  66.3684921 179.8707275  21.8656120  66.4799652 179.1673431  22.6907883
  65.7918243 179.1432037  20.7055721  65.5771408 179.8815765  19.9330444
  66.6538925 178.0763855  20.1042633  67.0062790 177.4768066  20.9435596
  66.0939713 177.5429535  19.3361320  67.5463791 178.4876709  19.6326427
  64.4368515 178.4635468  21.0945053  63.7293434 179.2617035  21.3191948
  64.1183319 177.9038696  20.2150745  64.5987091 177.7870026  21.9336662
  67.8870926 180.2899323  21.6385250  68.7868347 179.7643280  22.2785797
  68.0641785 181.3576660  20.7978439  67.2888794 181.6498718  20.2202492
  69.3738556 182.0772400  20.5741730  70.0670853 181.4633179  19.9991417
  69.1538620 183.3773346  19.7967606  68.2923050 183.9268341  20.1760559
  69.9936676 184.0433807  19.9947834  69.0891876 183.1905823  18.2686596
  70.0252304 182.7751007  17.8954315  68.3160934 182.4517670  18.0575562
  68.6447678 184.5063934  17.6317863  67.6038284 184.6793365  17.9049950
  69.2796097 185.3103638  18.0042210  68.8377151 184.3894653  16.1211147
  69.7350845 183.8394623  15.8376951  68.0174332 183.8377228  15.6619635
  68.9439163 185.7382812  15.4787302  69.8248062 186.2037506  15.6444941
  68.8177643 185.6083069  14.4851007  68.2460403 186.4094696  15.7660961
  70.0394592 182.3155212  21.9534950  71.1718826 181.9614868  22.2486610
  69.3308334 182.8313751  22.9403286  68.4738312 183.3320160  22.7532635
  69.8958588 183.0254059  24.3291187  70.7242355 183.7048187  24.1284351
  68.8193970 183.8001251  25.1439610  68.3426895 184.5625458  24.5278778
  68.0710526 183.0882874  25.4923344  69.3963318 184.5619812  26.3602657
  69.7832565 183.7950745  27.0312691  70.2112885 185.1708221  25.9687710
  68.3274155 185.4764099  27.0773678  68.7913895 185.8667145  27.9831753
  68.0426102 186.3739777  26.5284119  67.1168671 184.6553345  27.4563465
  67.2490997 183.7267761  27.8310127  65.9566803 185.1366425  27.7553616
  65.5475082 186.3540497  27.4803829  66.1704559 186.9566345  26.9617920
  64.6093445 186.6946106  27.6351814  65.0000458 184.3578949  28.2419453
  65.2698975 183.4769897  28.6558113  64.0763474 184.7201843  28.4306927
  70.4746246 181.7799225  24.9930229  71.4474487 181.8895264  25.7058239
  69.9067154 180.5944824  24.7054615  69.0280914 180.5567932  24.2087708
  70.5287399 179.3095093  25.0015335  70.9632492 179.3879242  25.9981022
  69.4241638 178.2188416  25.0483150  68.5552750 178.5436096  25.6207275
  69.1056976 178.0563965  24.0186119  69.8969650 176.8529053  25.5326786
  69.1683273 176.0849915  25.2728996  70.7281647 176.5373077  24.9021187
  70.2785950 176.8271484  26.9749279  69.4845810 176.5891113  27.8218899
  71.5460815 177.0785370  27.2621822  71.7927322 177.1829834  28.2360191
  72.1821136 177.1303101  26.4793167  71.7004166 178.9385223  23.9765034
  72.7083359 178.3165741  24.3677311  71.5303192 179.1948242  22.6343288
  70.7371368 179.7546387  22.3558331  72.5228348 178.7630310  21.6149864
  72.6898117 177.6952820  21.7568493  72.0290604 178.8985138  20.1475010
  72.0062103 179.9757385  19.9826660  72.7626190 178.3727417  19.5363083
  70.6611633 178.3481293  19.7547112  69.8852158 178.8519440  20.3310642
  70.3175964 178.7222900  18.3250828  71.1245575 178.3487701  17.6946945
  69.3675003 178.3661194  17.9268990  70.2953796 179.8032837  18.1869545
  70.6396408 176.7895966  20.0109501  70.7638702 176.4654388  21.0441971
  69.6986923 176.4563904  19.5731182  71.4337082 176.3351593  19.4184647
  73.9085007 179.5290527  21.6864185  75.0120316 178.9842529  21.4521389
  73.8720627 180.7823181  22.1553402  72.9851151 181.2132568  22.3737850
  75.0978012 181.5945587  22.4246445  75.7455063 181.4110413  21.5673847
  74.8374252 183.1024170  22.5429440  74.0035172 183.1909485  23.2392616
  75.6986847 183.5122070  23.0705929  74.6063843 183.8687592  21.3063297
  75.5702744 184.6159973  20.5666904  74.9038925 185.1362915  19.4827461
  75.2927933 185.8214264  18.7439976  73.5631104 184.9108429  19.6037064
  72.9296188 185.1472015  18.8534336  73.3856277 183.9900665  20.6792545
  72.4931946 183.4476776  20.9545326  76.0384140 181.0198822  23.5128136
  77.2778473 181.1496124  23.3470860  75.4832230 180.4126892  24.5383778
  74.4816666 180.4313507  24.6673527  76.2433243 179.7666321  25.5541229
  77.0456696 180.3836975  25.9585476  75.3789062 179.3261871  26.7348595
  74.5057144 178.8069000  26.3399124  75.9443970 178.6261139  27.3498554
  74.7938995 180.4012146  27.7014790  74.4642258 181.2309113  27.0761719
  73.8836517 180.0345001  28.1758900  75.6964493 180.7808533  28.8855648
  76.4175873 181.8079529  28.6900787  75.6620483 180.1227875  29.9627724
  76.9441452 178.4838867  24.9879017  78.0846405 178.1781464  25.3874474
  76.3428116 177.7144470  24.0795403  75.4036331 177.9222412  23.7715378
  76.9837494 176.4988098  23.5182934  77.5377808 175.9803619  24.3008270
  75.9510498 175.5902405  22.8228340  75.4235229 176.3144379  22.2020702
  76.5030594 174.8718414  22.2168007  74.8894424 174.9228668  23.6822853
  75.0803375 174.5616150  24.9394531  75.9654312 174.7867126  25.5159435
  73.9412460 173.9194641  25.4504929  73.9062881 173.5224609  26.3785362
  73.0039139 173.8334503  24.4376888  71.6996613 173.3492584  24.4159794
  71.2754440 172.9567413  25.3283195  70.9274216 173.2968903  23.2151279
  69.8961182 172.9792175  23.2586384  71.4935532 173.7956238  22.0128040
  70.9615021 173.7445068  21.0743408  72.7799988 174.3685608  22.0966263
  73.2012177 174.7475128  21.1771832  73.5673447 174.4205475  23.3214970
  78.0204544 176.9637451  22.5528183  78.8790054 176.1749268  22.1536121
  77.9546280 178.2083435  22.0250778  77.2139587 178.8053589  22.3643303
  78.8109436 178.7619781  20.9387684  79.7497940 178.2155609  21.0286312
  78.1636887 178.5730133  19.5760078  77.7465134 177.5679932  19.6392841
  77.3261337 179.2565918  19.4369678  79.0992737 178.6062012  18.4028893
  80.2636108 179.0660095  18.5710506  78.7155609 178.2601776  17.2930336
  79.1586533 180.2361145  21.1830997  78.6020889 181.1674957  20.6943493
  80.1751633 180.4405060  22.0117779  80.6248856 179.6139832  22.3788033
  80.6370087 181.7738342  22.5400467  79.7987900 182.3443451  22.9400711
  81.6427231 181.4730530  23.6987267  82.5023422 180.9048920  23.3432560
  82.1372833 182.4149933  23.9359245  81.1156006 180.7542114  24.8972187
  81.5890808 181.1078186  25.8131199  80.0405350 180.9265289  24.9485703
  81.2893524 179.1984863  24.8168182  81.4531631 178.6354828  23.6960678
  81.4631500 178.6219635  25.9201374  81.3625107 182.6692963  21.4449959
  81.7608185 183.7413177  21.7935581  81.5265121 182.1558685  20.2369061
  81.1651535 181.2131653  20.2080345  82.0129852 182.8341980  19.0346718
  82.2760849 183.8229065  19.4106236  83.3352051 182.2399902  18.4724560
  83.2592926 181.1528015  18.4543819  83.4740448 182.4736176  17.4168777
  84.5232010 182.5671234  19.3719158  85.0622330 181.6367188  19.9644451
  84.9239426 183.8393250  19.5493870  85.5389328 184.0377960  20.3255939
  84.4426651 184.5987091  19.0891476  80.9248734 183.1091003  17.9015942
  81.2810364 183.4857330  16.8029041  79.6344528 182.7602386  18.1481419
  79.3802185 182.4965363  19.0893784  78.5979462 182.7661743  17.1264057
  79.0280991 182.3351898  16.2223473  77.5258026 181.8473969  17.5102882
  78.0339966 180.8831787  17.5215836  77.1522827 182.0655060  18.5107937
  76.3695374 181.7575684  16.5171318  76.6904449 181.9922638  15.5022221
  75.7946243 180.3395996  16.4082088  75.1633606 180.1257629  17.2706871
  75.1773148 180.2318878  15.5163431  76.5920334 179.5967102  16.4268436
  75.2102509 182.6173706  16.9443188  75.5318146 183.6481628  17.0932503
  74.3801956 182.5513153  16.2409382  74.7981033 182.3435974  17.9155445
  78.2151184 184.1588287  16.7511120  77.6798782 184.9442749  17.5743961
  78.3383408 184.4833527  15.4543495  78.9587708 183.9276733  14.8830423
  77.4980545 185.4918976  14.7558336  77.1903763 186.2405701  15.4858522
  78.4313583 186.0423126  13.5781670  78.8361588 185.2045135  13.0104198
  77.9183655 186.6870422  12.8645477  79.5795288 186.7778778  14.2803898
  79.1639481 187.6870117  14.7149773  79.9988785 186.1678162  15.0804300
  80.7597351 187.1678314  13.3224592  81.5854950 187.5340271  13.9324770
  81.0374298 186.2674561  12.7744446  80.3901367 188.2036591  12.2158813
  81.1636047 188.3570404  11.4633398  79.6123734 187.8570862  11.5353842
  79.9959564 189.5513458  12.8220577  80.7391510 190.0083160  13.3309221
  79.6057816 190.2062531  12.1595039  79.3108978 189.2944794  13.5183430
  76.2759552 184.9164429  14.1282215  76.3433838 183.8053741  13.6319771
  75.1648026 185.6252136  14.2862206  75.1416245 186.5203247  14.7534990
  73.8804550 185.1522369  13.7556782  73.6632233 184.2106171  14.2599239
  72.7642975 186.0871582  14.3028154  72.9036713 187.0839081  13.8842926
  71.8417358 185.6589813  13.9108591  72.5710144 186.2671509  15.8167019
  73.5696182 185.9889832  16.5440750  71.4442673 186.6407013  16.2207470
  73.7909164 184.8998260  12.1752434  72.8562317 184.2207642  11.8065691
  74.7541885 185.2855377  11.3294506  75.6456528 185.4909058  11.7574883
  74.6621628 185.0648956   9.8675671  73.7766190 185.5801697   9.4955168
  75.7169113 185.8390503   9.0648146  76.6013260 185.2088470   9.1584234
  75.4503632 185.8773193   8.0086021  75.9915009 187.2831726   9.6237640
  76.5280380 187.2475586  10.5718975  76.5959473 187.7089996   8.8228760
  74.7005997 188.0928040   9.7724848  73.9111252 188.0998077   8.7695990
  74.5797424 188.8074799  10.8257122  74.6014481 183.5974426   9.3717947
  74.0288849 183.1869659   8.3855095  75.1464157 182.6736603  10.1938581
  75.5179749 182.9188538  11.1004601  75.1492691 181.1852570   9.9095335
  75.2649994 180.9559326   8.8502331  76.3306808 180.6165924  10.6928253
  76.5581436 179.5784149  10.4508095  77.1997604 181.1871338  10.3652887
  76.0800552 180.8320312  12.0451670  76.9009933 180.6308441  12.5003338
  73.7502213 180.4694519  10.2935171  73.6076279 179.3066101   9.9769316
  72.8878098 181.1384888  11.0564976  73.1501999 182.1027222  11.2031317
  71.5439758 180.7170410  11.4957285  71.4225159 179.6379547  11.4011927
  71.3561096 181.0635071  12.9658098  71.5002060 182.1439056  12.9735765
  70.4131088 180.7616272  13.4215708  72.4695511 180.6099091  13.9313450
  73.3377609 181.2584686  13.8143263  72.1141129 180.7460175  15.4109659
  71.2915726 180.0742493  15.6564684  72.8628311 180.3899384  16.1185894
  71.6714859 181.7128906  15.6503992  72.8474808 179.0993500  13.7141075
  73.2808151 178.9614105  12.7235041  73.6097870 178.8292847  14.4448929
  71.9738312 178.4618835  13.8500566  70.3902359 181.2929230  10.6932602
  70.4081268 182.4738617  10.5362577  69.3828049 180.5260925  10.2361593
  69.3636398 179.0689240  10.1877499  69.1829224 178.6678772  11.1850481
  70.3128204 178.6961365   9.8028049  68.2200089 178.7475433   9.2238398
  67.7019196 177.8324890   9.5108528  68.6527328 178.7182770   8.2238436
  67.2763290 179.9368744   9.3254051  66.5819473 179.7568359  10.1460886
  66.7302322 180.1470490   8.4057865  68.2444000 181.0946503   9.5450125
  68.7195969 181.4541321   8.6322861  67.5333328 182.2540588  10.3328238
  67.1000748 182.0981140  11.4921103  67.3234329 183.3990936   9.6903896
  67.7025070 183.4077148   8.7542648  66.4045486 184.4496155  10.0982304
  66.6412506 184.6047668  11.1508474  66.6158905 185.7175140   9.2739134
  65.7998962 186.3677979   9.5891628  67.9114532 186.4335175   9.6538219
  68.8054962 185.8281860   9.5043573  68.0835724 187.2771912   8.9854603
  67.7691650 186.8282623  10.6598186  66.5648193 185.6300201   7.8157620
  66.1296768 186.4114990   7.4671373  64.9307632 184.1138611   9.9683723
  64.0059280 184.7725677  10.4985666  64.6192169 182.9690094   9.3435545
  65.3253098 182.4750519   8.8167276  63.2323837 182.5757751   9.1485949
  62.6038399 183.4641876   9.2098398  63.2055397 182.0287933   7.6867671
  63.6822853 182.6337433   6.9155049  63.7269669 181.0718842   7.7096119
  61.8050232 181.8595581   7.2543950  61.0283546 182.8380127   7.2535625
  61.3732834 180.7688599   6.6576433  60.5004082 180.8530426   6.1565409
  62.0536537 180.0728149   6.3879991  62.8540230 181.5137482  10.1904430
  63.6850281 180.6237335  10.3613701  61.6830025 181.5109100  10.8985319
  60.5911598 182.4974060  10.8325214  60.2070198 182.7395782   9.8416204
  60.9627838 183.4505005  11.2087984  59.5351295 181.9445953  11.7952824
  58.8483086 181.2004242  11.3920603  58.8999710 182.7395630  12.1860485
  60.4079132 181.2508240  12.8522644  59.7761040 180.5864716  13.4418030
  60.8464775 181.9981384  13.5135450  61.5587921 180.6581726  12.0864706
  62.3667755 180.7959900  12.8049955  61.3909874 179.2108917  11.7840614
  61.8452072 178.3206024  12.5090942  60.8626099 178.8797760  10.5441008
  60.6268997 179.6426849   9.9256229  60.6267052 177.5340729  10.0214291
  59.9752808 176.9126129  10.6358643  59.9515533 177.7325439   8.6756172
  60.4987106 178.5098267   8.1421690  59.9524689 176.5517426   7.7686734
  59.4996948 175.7514191   8.3539772  59.3501740 176.6493988   6.8654528
  60.9921455 176.3166809   7.5408154  58.4191551 178.1370392   8.7771845
  57.7829399 177.6437683   8.0423355  57.9822502 177.7893829   9.7133217
  58.2475014 179.6698456   8.4987164  58.3387108 179.8369446   7.4254723
  57.2512665 179.9653473   8.8277922  59.0676842 180.2147675   8.9661093
  61.9241142 176.7967987   9.8968544  62.1408730 175.7198486  10.4790497
  62.8671150 177.3015900   9.0808859  62.6326065 178.0713043   8.4704370
  64.1980362 176.7437286   8.9295034  64.1336136 175.7334290   8.5254831
  64.9728622 177.5477905   7.8042092  65.1299973 178.5211639   8.2689323
  65.9422607 177.0972595   7.5911942  64.1807861 177.8269501   6.5352883
  63.2197113 178.5735168   6.5779700  64.7087784 177.4386902   5.4140387
  65.0643692 176.7248840  10.1710110  65.8295746 175.7454834  10.3684196
  64.9341660 177.6763000  11.1056566  64.2602615 178.4097137  10.9381628
  65.6156998 177.7501068  12.3605900  66.6939163 177.6075897  12.2881718
  65.4070435 179.1471252  12.9296932  65.7335587 179.9415436  12.2585802
  64.3465652 179.3948669  12.9756813  65.9666443 179.3714752  14.2834911
  65.2151489 179.1078339  15.4059267  64.2450943 178.6394043  15.3286219
  65.6889572 179.4326324  16.7061176  65.0833206 179.2362366  17.5784931
  67.0412598 179.9112091  16.8260880  67.4098053 180.0082855  17.8366089
  67.8307190 180.1053925  15.6674957  68.8684998 180.3886871  15.7631311
  67.2962723 179.8293152  14.4295778  67.9508667 179.9830017  13.5844231
  65.1403198 176.7294617  13.4059010  65.8854446 176.1213226  14.1429176
  63.7978630 176.5637360  13.4775915  63.1278267 177.0259705  12.8796949
  63.2789001 175.5544434  14.3286543  63.7136765 175.6159058  15.3262978
  61.7662125 175.7645874  14.5061464  61.3458633 175.2431335  15.3660908
  61.5682869 176.8138733  14.7250080  61.1224632 175.4630127  13.2851343
  61.0489883 176.2914124  12.8055830  63.6576500 174.1591492  13.7640333
  64.0156937 173.2888336  14.5454874  63.6427994 173.9114838  12.4257298
  63.3522491 174.6489105  11.7997332  64.1424637 172.6245728  11.8329935
  63.5256424 171.8736572  12.3267107  63.8048859 172.6038513  10.3809748
  64.1082001 173.5173492   9.8694792  64.3782730 171.7330475  10.0631104
  62.3837509 172.2397003   9.9356260  61.8346252 171.0164642  10.4065819
  62.3728218 170.4294281  11.1360550  60.5831070 170.5669250  10.0407143
  60.0291977 169.7679443  10.5110531  59.8840637 171.3685455   9.1681871
  58.6245308 171.0067902   8.7833433  58.0625992 171.7360535   8.5112896
  60.3518562 172.5450592   8.5626860  59.7588806 173.0465240   7.8121486
  61.6413994 172.9799805   8.9967585  62.0293007 173.9359589   8.6773157
  65.5988159 172.4262390  12.1994953  65.9363937 171.3958588  12.7720003
  66.5549164 173.3882294  11.9776087  66.2561264 174.1707916  11.4133215
  68.0079727 173.4026489  12.3740788  68.5654449 172.6588745  11.8047562
  68.6370621 174.8499603  12.1802778  68.5540237 175.0782166  11.1176853
  68.1386490 175.6852417  12.6722031  70.0819778 174.8996429  12.7027121
  70.3801804 175.9423981  12.5939436  70.1927032 174.6716614  13.7628374
  71.0974350 174.0430145  11.9331741  72.1063995 174.1659393  12.3268490
  70.8242645 172.9948273  12.0547400  71.0612030 174.3495178  10.5265074
  70.3210373 173.9313660   9.9811611  71.8936996 175.1588135   9.8332815
  72.9068680 175.8414001  10.3644409  73.1219406 175.8679504  11.3509188
  73.4754105 176.4027100   9.7465420  71.7397308 175.3680267   8.5707321
  70.9736099 174.9411316   8.0698137  72.4612122 175.8254547   8.0319118
  68.2208633 172.9932098  13.9263182  69.0681000 172.1484680  14.1893749
  67.3170395 173.3979645  14.8166571  66.7976913 174.1966858  14.4813433
  67.3509827 173.0381927  16.2962303  68.3522949 173.0009003  16.7252941
  66.5207062 174.1255646  17.0403252  65.6309586 174.4171753  16.4822884
  66.2459641 173.7814636  18.5236397  67.0603409 173.2433472  19.0087166
  65.9379654 174.7170563  18.9904556  65.4440689 173.0448608  18.5734386
  67.4872894 175.3790436  17.0951195  67.4601135 175.8270874  16.1018333
  67.1194687 176.0970917  17.8280640  68.5453186 175.1606445  17.2399502
  66.7317810 171.6612091  16.5520439  67.1927948 170.9392242  17.4185753
  65.6017914 171.3132782  15.8605700  65.2029572 171.9325562  15.1695337
  64.9298935 170.0111389  15.9951353  64.8426132 169.8370667  17.0676003
  63.5140648 170.1164856  15.4149141  63.5764084 170.5066833  14.3990517
  63.0179634 169.1459961  15.4253922  62.9573860 170.8775330  15.9617500
  65.8230820 168.9111786  15.4028196  65.6479416 167.7456818  15.8162918
  66.7872772 169.2261047  14.5179920  66.7980042 170.1369781  14.0817766
  67.7636261 168.2939758  14.0201492  67.3100891 167.3561707  13.6993237
  68.3976288 168.9922638  12.7858524  68.6631393 170.0145721  13.0550699
  69.2934875 168.4340210  12.5140171  67.7217407 168.9059448  11.9350719
  68.8005981 167.9680481  15.0591764  68.9662552 166.8184052  15.4441986
  69.4435577 168.9706879  15.6669636  69.0955658 169.9137421  15.5686569
  70.6255722 168.9225311  16.5683403  71.3157120 168.1015167  16.3740463
  71.4345245 170.2097931  16.2816849  72.3246155 170.2437744  16.9099274
  71.7149734 170.2709503  15.2301569  70.5939941 171.7000732  16.7301922
  71.3379898 172.6862793  16.2214966  70.2959747 168.7372437  18.0765076
  71.1444168 168.6025391  18.9747295  69.0268860 168.7406616  18.4834766
  68.2664490 168.9077606  17.8401108  68.5944595 168.5348358  19.8663979
  69.1004105 169.2403870  20.5254211  67.0892105 168.9086304  20.0868492
  66.5139771 168.7782440  19.1702194  66.6712799 168.1882019  20.7899895
  66.7832489 170.3633270  20.5384140  67.3419113 171.1125641  19.9774780
  65.3063660 170.6627197  20.4208107  64.7085419 169.8858032  20.8973579
  65.2282486 171.6517792  20.8722153  65.0621185 170.7240143  19.3602982
  67.1228333 170.5961304  22.0423889  68.2016830 170.5749969  22.1964798
  66.7965240 171.5948486  22.3325348  66.7190857 169.8139038  22.6852074
  68.9389801 167.1463165  20.4427128  68.5200882 166.1062164  19.8649139
  69.5750046 166.9923096  21.5973511  70.4477005 168.0309296  22.1293964
  69.9644699 168.9599457  22.4319210  71.1368256 168.3502045  21.3475513
  71.1632690 167.3739319  23.2601109  70.5306396 167.4633636  24.1432209
  72.1130371 167.8960419  23.3760967  71.2378006 165.9508057  22.9300213
  71.2985687 165.4188385  23.8794575  72.1683426 165.6911469  22.4252815
  69.9533615 165.7058258  22.1876621  70.2886963 165.0323181  21.3989544
  68.8482590 165.0662537  23.0664711  68.7913208 165.2119751  24.3097439
  68.0069962 164.3399353  22.3914089  68.0778275 164.2952881  21.3848858
  66.7772217 163.6678772  22.9594975  66.8644714 163.5435486  24.0388641
  65.5404205 164.4927826  22.6133461  64.6422958 163.8778229  22.6707420
  65.4731216 165.7196808  23.5514126  66.1290207 166.5617981  23.3306217
  64.4673004 166.1397095  23.5481071  65.7475815 165.4022827  24.5574055
  65.6213760 165.1726837  21.2096653  66.3727570 165.9596405  21.1446590
  65.8604050 164.3890991  20.4906540  64.2413788 165.7255096  20.8475399
  64.0203781 166.6519165  21.3776627  64.2003479 166.0005035  19.7935925
  63.5444794 164.8911133  20.9262676  66.6871414 162.2095490  22.4416904
  67.4089508 161.8403015  21.5080166  65.7776337 161.4641418  23.0601292
  65.1648254 161.8241577  23.7777367  65.3670731 160.1594086  22.5005856
  66.2960358 159.6208649  22.3132229  64.6858444 159.3303070  23.6279831
  64.4836197 158.3107758  23.2997017  65.4368591 159.1855164  24.4045868
  63.4466171 159.9975128  24.1281090  63.3827896 160.4485931  25.3126831
  62.4661484 160.0437012  23.3206196  64.5199814 160.2076263  21.2334747
  64.1002426 161.2584839  20.8121281  64.3969879 159.0607605  20.6325474
  64.7801056 158.2227478  21.0461311  63.6215019 158.9350281  19.3619022
  63.8659134 159.7910309  18.7329254  63.8878517 157.6018829  18.5961800
  63.6622009 156.7907257  19.2884235  63.2939072 157.4716797  17.6915359
  65.3260269 157.4895477  18.0996227  65.9003525 158.5382843  17.7451954
  65.8538361 156.3859100  17.9381428  62.0940628 159.1576080  19.5414410
  61.4264565 159.7316589  18.6754131  61.5000305 158.7735138  20.6743126
  62.0274582 158.3850098  21.4430676  60.0081253 158.8216400  20.8323383
  59.5998917 158.4878235  19.8783951  59.5567093 157.7735748  21.8553200
  59.9464264 158.0604553  22.8320065  58.4687424 157.8296356  21.8911858
  59.8641663 156.7549438  21.6187325  59.5382309 160.3305817  21.0710335
  58.5271988 160.7246704  20.4640179  60.3966103 161.1963196  21.6659355
  61.1738625 160.7916870  22.1681767  60.3885727 162.6296997  21.6605759
  59.3878708 163.0068207  21.8714657  61.3692398 163.1093292  22.7347412
  61.1567268 162.5026398  23.6150074  62.3899117 162.9664917  22.3798847
  61.1181107 164.5408020  23.2561398  61.4129601 165.2988434  22.5305099
  59.6868668 164.8265839  23.7112770  59.4391098 164.0444031  24.4288349
  59.6342659 165.8244629  24.1466694  58.9618149 164.7148132  22.9051094
  62.0388298 164.6680298  24.4915791  63.0762520 164.4523468  24.2359562
  61.8790016 165.6833344  24.8545189  61.6252403 164.0455475  25.2850323
  60.7045555 163.1477356  20.2880211  60.0053253 164.1265564  19.9883614
  61.6700821 162.6555634  19.5213604  62.2134056 161.8551483  19.8115902
  61.9825592 163.2167969  18.1708527  61.9703636 164.3030090  18.2607784
  63.3223305 162.7801514  17.5945854  63.3391571 161.6904602  17.5753860
  63.4062119 163.0992279  16.5557137  64.4936218 163.3983459  18.3806248
  64.5787659 164.4694519  18.1973934  64.3188171 163.3242950  19.4539661
  65.8300629 162.8274994  18.0593719  66.6089096 163.1671753  18.7421017
  65.7272491 161.7468109  18.1575260  66.2803574 163.0430298  16.6185322
  66.0365982 162.2634277  16.0244732  67.1686935 163.8166199  16.1819172
  67.7745361 164.7258759  16.8760052  67.3656158 165.1077881  17.7168579
  68.3332901 165.3722839  16.3374348  67.4761581 163.7334290  14.9044342
  67.0901566 163.0397034  14.2800570  68.3356705 164.1856537  14.6272535
  60.8234558 162.8640900  17.1570320  60.6231117 163.6760254  16.2235699
  59.9577217 161.8288879  17.3533154  60.1583214 161.0710907  17.9901943
  58.7097778 161.6055450  16.6994991  58.9364586 161.6013794  15.6333370
  58.1152573 160.1979675  17.0122051  58.0352402 160.1715240  18.0989456
  56.6665268 160.0669098  16.4792385  56.5961418 160.0631714  15.3915224
  56.2057381 159.1535034  16.8553543  56.0271339 160.8936462  16.7887650
  58.9554863 159.0247650  16.3849850  59.0113602 159.0510101  15.2967319
  59.9879532 159.1435394  16.7136269  58.4952278 157.6492615  16.8508854
  57.6046181 157.3686066  16.2886143  59.2128181 156.8592224  16.6295376
  58.2484322 157.6809845  17.9121037  57.7008858 162.7144165  17.0717392
  57.0751152 163.2249146  16.1788769  57.5364647 163.0126495  18.3852806
  58.0498810 162.5285187  19.1078587  56.6795921 164.1517181  18.7892532
  55.7145042 163.8529968  18.3800163  56.5934334 164.4139252  20.3285122
  57.4861374 164.7896729  20.8284988  55.8564911 165.1722565  20.5930386
  56.2764778 163.2558594  21.1840401  57.2002411 162.6889038  21.2995071
  55.8887863 163.5598145  22.1563606  55.3409576 162.2391663  20.5156612
  54.2662430 162.6030426  20.0641575  55.7004852 160.9656219  20.3591061
  54.9480782 160.4033813  19.9878044  56.5484581 160.6064606  20.7738857
  57.1861763 165.4350739  18.0786648  56.4943275 166.0164795  17.3294773
  58.4256592 165.9498596  18.3815899  58.8874512 165.5206451  19.1706543
  59.0069008 167.1260834  17.7398758  58.4388504 167.9987183  18.0622368
  60.3961334 167.2524872  18.2626839  60.3587914 166.9839630  19.3184280
  60.9135284 166.4809570  17.6924744  61.0879402 168.6402435  18.1551609
  61.1393013 168.9347839  17.1069717  60.3110580 169.7473755  18.8449612
  60.1991920 169.5155029  19.9041195  60.8198814 170.7110748  18.8229465
  59.3690529 169.9313965  18.3283787  62.4533577 168.6124420  18.7110233
  63.1269112 167.8943329  18.2433014  62.9582825 169.5726624  18.6056519
  62.5208244 168.2975922  19.7523785  58.9874382 167.0757751  16.1909122
  58.6568108 168.0249176  15.5101147  59.2617950 165.9482574  15.4900665
  59.5378036 165.1666718  16.0671444  59.0165138 165.7881927  14.0424795
  59.5032883 166.5869598  13.4828978  59.4394073 164.3769684  13.5739546
  60.5022202 164.2189484  13.7571583  58.8995667 163.6593170  14.1917458
  59.1128693 163.8629150  12.1574802  58.0357399 163.7883301  12.0080509
  59.6821098 164.8146057  11.1515207  60.7488632 164.7015076  10.9582968
  59.1389465 164.5959778  10.2321301  59.5530853 165.8687134  11.3970547
  59.7623215 162.5043945  12.0366907  59.3465538 161.8126526  12.7693214
  59.5139923 162.1006775  11.0551376  60.8362274 162.5919495  12.2014809
  57.5326805 165.9449463  13.6223288  57.2160225 166.4050446  12.5181751
  56.5644798 165.5613556  14.4944963  56.7288513 165.1942902  15.4209623
  55.0812378 165.6795044  14.1275158  54.9381294 165.2647247  13.1297283
  54.2335358 164.8966675  15.0820112  54.6533585 164.9854431  16.0839939
  53.2271576 165.3147430  15.0591993  54.0785713 163.4026489  14.7306175
  53.3575706 163.3432465  13.9153080  55.0198402 162.9744720  14.3859692
  53.4338036 162.7350922  16.0044613  54.2813644 162.3180542  16.5483665
  52.9792786 163.4489899  16.6913681  52.4073067 161.6331482  15.5959196
  51.5095596 162.1447754  15.2489300  52.8094292 161.0505219  14.7671061
  51.9779243 160.8095856  16.7483807  51.3550262 161.2093964  17.4355850
  51.5416718 159.9849701  16.3613319  52.7859077 160.4960175  17.2669773
  54.5624619 167.0642395  13.9799747  53.4995995 167.1671143  13.3405676
  55.2104683 168.0796051  14.5787725  56.1206818 167.8532867  14.9534702
  54.5022049 169.2594757  15.0406914  53.5799637 168.9089355  15.5040426
  55.3072891 169.9733734  16.1561832  56.2418785 170.3033600  15.7025824
  54.5654793 171.2311249  16.5579891  53.5547905 170.9269257  16.8301640
  54.9922295 171.6380615  17.4747200  54.5127640 172.0016785  15.7888460
  55.6947594 169.1008759  17.3577099  56.1927490 168.2462769  16.8997173
  56.4830132 169.6128693  17.9096489  54.5619965 168.6220551  18.2944489
  53.6883965 168.2684021  17.7468548  55.0180206 167.8244781  18.8809795
  54.2350655 169.4349518  18.9428520  54.2378044 170.2069855  13.8193407
  55.0909653 170.4906769  12.9630833  53.0073853 170.7175903  13.7978535
  52.4270210 170.4999390  14.5952921  52.3809547 171.4262238  12.6923876
  52.2325516 170.8172302  11.8006525  51.3635559 171.5456696  13.0648518
  52.9946823 172.7729645  12.2877369  53.4076691 172.8592072  11.1100969
  53.0241051 173.7249298  13.2048292  52.6281013 173.5247803  14.1121454
  53.7294693 174.9725952  12.9237757  53.9996605 175.0183716  11.8687868
  52.7993584 176.1355896  13.4276857  51.8302536 176.0556488  12.9351921
  52.4921989 176.0141296  14.4664354  53.2757568 177.3812714  12.9738522
  53.0520287 177.4623718  12.0438147  55.0936623 175.1539459  13.7038355
  55.2202911 174.8076782  14.8927345  55.9808922 175.9701996  13.1184654
  55.8204002 176.1083221  12.1309118  57.2440567 176.3347321  13.8152304
  57.8059540 175.4258423  14.0304317  58.0923080 177.1389008  12.8358755
  57.5964737 178.0837250  12.6132650  59.0274887 177.4220581  13.3189497
  58.2946777 176.6966858  11.8603811  56.9473381 177.0536957  15.1696262
  57.7496796 176.9501343  16.0437851  55.8324318 177.7726898  15.3035746
  55.1680336 177.8673248  14.5487757  55.4726219 178.4125671  16.5591202
  56.3198090 179.0238800  16.8700256  54.2363968 179.3753510  16.2707691
  53.6280479 179.0019684  15.4469995  53.3917885 179.4932098  17.5712337
  53.9743423 179.8040161  18.4384880  52.5404968 180.1728516  17.5326290
  52.9382553 178.5291138  17.8013248  54.8011665 180.7238770  15.8091507
  55.4321556 181.2056274  16.5560627  55.4340744 180.5029602  14.9496613
  53.7731667 181.6727753  15.2643480  52.9614334 181.8138885  15.9779825
  54.1999893 182.6643219  15.1134701  53.4592934 181.3823853  14.2617207
  55.2587967 177.3358917  17.6787777  55.8547859 177.3644104  18.7031765
  54.5202446 176.2693024  17.4029942  54.0249710 176.2765350  16.5227928
  54.3617706 175.0632172  18.2767887  54.0457611 175.3894501  19.2676506
  53.3468666 174.1696625  17.6357021  53.7715302 173.8425903  16.6866035
  53.2922325 173.3050079  18.2971382  51.8906136 174.5382233  17.4275608
  51.4751892 174.6396790  18.4301720  51.8945045 175.5251007  16.9647617
  51.0272064 173.6172333  16.5231514  51.4691620 173.0761566  15.5796757
  49.7447433 173.5362244  16.8202000  49.1248779 173.0538635  16.1852169
  49.3071594 174.0058136  17.6000099  55.7027016 174.3123932  18.4904060
  56.1075020 173.9830627  19.5804443  56.4504623 174.0435486  17.3792210
  56.0943947 174.2733459  16.4624290  57.7591705 173.3880920  17.4596806
  57.5715637 172.3709869  17.8037891  58.2472649 173.2440033  15.9828625
  57.3166924 173.0384369  15.4538231  58.7851410 174.1354828  15.6602879
  59.2849350 172.0819855  15.7003012  60.2628365 172.3606567  16.0929241
  59.0048714 171.2080688  16.2884674  59.2484512 171.5586548  14.2822180
  59.9392166 170.7158813  14.2559652  58.3535385 170.9736176  14.0701733
  59.5400009 172.5445099  13.2792606  60.3189545 173.1497040  13.4962406
  58.8759804 172.7725067  12.1772394  57.7826576 172.1495361  11.7789402
  57.4054604 171.3497620  12.2669916  57.4147644 172.4532471  10.8887081
  59.2548561 173.7937469  11.4617195  60.1537971 174.1976776  11.6827259
  58.6727486 174.0882721  10.6906767  58.6749992 174.1736298  18.4280834
  59.1866608 173.5595703  19.3951550  58.8327484 175.4478607  18.1915588
  58.3432350 175.9233704  17.4470024  59.5598183 176.3592987  19.1094990
  60.5967979 176.0235901  19.1180344  59.5292473 177.7812958  18.5226383
  58.5017242 177.8673096  18.1692276  59.7322807 178.4902191  19.3253269
  60.4409103 177.9505005  17.2730179  60.2712326 177.0900879  16.6257114
  60.0184479 179.2852936  16.5997105  60.3553085 180.1337433  17.1953373
  60.5064507 179.2264862  15.6268282  58.9475517 179.4038239  16.4346905
  61.9146423 178.1665649  17.5767803  62.1303101 177.4125519  18.3337860
  62.5246964 178.0296936  16.6839199  62.0961494 179.1966553  17.8834934
  59.0317154 176.3879852  20.5861607  59.8041801 176.4430237  21.5670395
  57.7409515 176.1604004  20.8774700  57.1333389 175.9866028  20.0896225
  57.1769829 175.9896088  22.2564850  57.5167313 176.8327484  22.8579712
  55.6050415 175.9428711  22.2544689  55.1679535 175.2412262  21.5440102
  55.3539162 175.6465302  23.2729092  55.0919456 177.3368683  21.9382610
  55.3190765 178.0729218  22.7094460  55.5681076 177.7023926  21.0284500
  53.5547028 177.3334808  21.6332073  53.1573524 178.3139191  21.3706474
  53.3189316 176.7337952  20.7540607  52.7992249 176.8232727  22.8342152
  52.3860931 175.9129181  22.6904621  52.6549950 177.3063812  24.0234184
  53.0852356 178.4829559  24.4756012  53.4706383 179.0877991  23.7644501
  52.8100166 178.8186340  25.3875618  52.1659698 176.4901428  24.9303837
  51.9201698 175.5602570  24.6221809  52.2214470 176.6454468  25.9268303
  57.7501717 174.7113342  22.8536129  58.4344444 174.7357941  23.9366970
  57.6555595 173.6307526  22.1272316  57.1266098 173.7411804  21.2739315
  58.2171021 172.3196106  22.5789623  57.6712532 171.9654846  23.4534588
  57.8612137 171.3460999  21.4334621  56.9007683 171.5113831  20.9452763
  58.6346436 171.5926971  20.7060661  58.1168251 169.6139679  21.8798904
  57.0720787 169.4961548  22.7042179  59.7695389 172.2979431  22.8318844
  60.1870308 171.7368927  23.8537312  60.4996910 172.9454651  21.9238720
  60.0985680 173.1321259  21.0159283  61.9041862 173.2248993  22.1382809
  62.4289703 172.2695770  22.1293240  62.4734344 174.0574188  20.9775944
  61.8844414 174.9653778  20.8480473  63.4854965 174.3035583  21.2989140
  62.5333710 173.3183289  19.7285404  63.3968506 172.6551514  19.7805996
  61.7468529 172.5664062  19.6643543  62.6043701 174.1671295  18.4641418
  63.2510262 175.2376404  18.3966885  61.8442764 173.8027344  17.5102310
  62.1498489 173.8959961  23.4815674  62.8344917 173.2625275  24.3308945
  61.6319313 175.0719452  23.7852135  60.8855438 175.4104309  23.1949253
  61.7994194 175.7115173  25.0830708  62.8673439 175.8402557  25.2593021
  61.1359062 177.1445160  25.0596676  60.1127052 177.0425720  24.6980534
  61.0812759 177.5688324  26.0622025  61.9760132 178.0585632  24.1333256
  62.3185883 177.5183105  23.2507935  61.1807137 179.2358704  23.6299343
  60.7404976 179.8358307  24.4264030  61.7995148 179.8934174  23.0193386
  60.3766403 178.9993439  22.9330597  63.2448387 178.4902649  24.8132725
  63.7486687 177.6051178  25.2015495  63.8614235 178.9856262  24.0632420
  63.0000763 179.2410431  25.5646286  61.2953949 174.8509827  26.2404480
  61.8375664 174.9750214  27.3820286  60.3076134 173.9198761  25.9686775
  59.9208145 174.0194550  25.0410061  59.7646065 173.0139771  27.0323696
  59.6292229 173.5544891  27.9691792  58.3358040 172.5795288  26.5667629
  57.8441353 173.4051971  26.0523415  58.4297905 171.8236084  25.7871170
  57.3586617 172.0284576  27.6140480  57.6119385 172.0103302  28.8387661
  56.2509460 171.6548920  27.0964508  60.7449875 171.9247437  27.4249039
  61.0524063 171.6925964  28.5834160  61.4599457 171.3815613  26.4163914
  61.2279396 171.6606903  25.4738636  62.5846672 170.4496918  26.5037556
  62.3528442 169.6209717  27.1727791  62.8647537 169.8106842  25.0708485
  63.1012726 170.5755768  24.3311787  64.0843735 168.9183044  25.2744732
  64.0099792 168.2741089  26.1505909  64.2394714 168.2467651  24.4300289
  64.9686508 169.5431824  25.3996811  61.6344566 168.9628601  24.4718666
  61.5234299 168.0666809  25.0823059  60.7526817 169.5986938  24.5511990
  61.6438713 168.5438995  22.9462299  62.5703926 168.0474396  22.6578121
  60.7610664 167.9239197  22.7901154  61.6038132 169.4474945  22.3379383
  63.7833214 171.1459961  27.0853481  64.3645859 170.6229248  27.9980450
  64.2400513 172.2823029  26.6056786  63.6507912 172.6591797  25.8770943
  65.4809799 172.9991760  27.0205326  66.2721786 172.2618866  26.8845005
  65.6963654 174.2448883  26.0878277  64.7969742 174.8603363  26.1083870
  66.5289917 174.8461761  26.4529190  66.0378418 173.8538361  24.6486034
  66.8820419 173.1682739  24.5748177  65.2097092 173.2623138  24.2582092
  66.3549576 175.3517761  23.5563202  66.6060028 174.5172272  21.9845676
  65.7051392 174.0167999  21.6294518  66.9343796 175.2762909  21.2745686
  67.4022598 173.7778778  22.0707989  65.4737625 173.4951324  28.4795094
  66.5228119 173.6757812  29.0490742  64.2661819 173.6478271  29.0809612
  63.4172707 173.6075745  28.5352287  64.2554245 173.8217163  30.5502739
  65.1202087 174.3882446  30.8956795  62.9182129 174.4862061  30.9621735
  62.1836014 174.1237030  30.2431145  62.7686768 174.1674194  31.9937344
  62.9232788 175.9909973  31.0756702  63.7242355 176.7937775  30.5737610
  62.0701866 176.5399933  31.8792667  62.2054214 177.5309448  32.0200768
  61.4190865 175.9497223  32.3770027  64.3274002 172.4207916  31.2449856
  65.0430603 172.2389069  32.2369385  63.5345345 171.4499054  30.7881107
  62.8548737 171.6494751  30.0681553  63.4531898 170.1735687  31.5096226
  63.3714600 170.4185028  32.5685959  62.1713104 169.4382629  31.1272049
  62.0036964 169.5349731  30.0545197  62.2384834 168.3808441  31.3830605
  61.0240440 170.0674896  31.9174042  61.1391449 169.6085358  32.8993492
  61.1359253 171.1514740  31.9414330  59.6819077 169.8304138  31.2622395
  59.6188965 170.3660431  30.3150177  59.4322548 168.7926788  31.0411777
  58.5730896 170.4772644  32.1802406  58.6588631 169.9252472  33.1162033
  58.8725739 171.5132904  32.3385773  57.2391815 170.3164520  31.6165295
  56.8603210 169.3808441  31.5818386  56.5429688 170.9148712  32.0375824
  57.2524261 170.6207581  30.6535568  64.6786880 169.2302704  31.3243008
  64.9101562 168.3698578  32.1918983  65.4232788 169.3865204  30.2288418
  65.1237030 170.1167603  29.5986919  66.6179276 168.6247711  29.9610691
  66.4762802 167.5989380  30.3012085  66.9892349 168.7926636  28.4619598
  66.1250153 168.5022583  27.8645668  67.2648621 169.8142242  28.2001209
  68.3813629 167.6889648  28.1994705  67.8754654 166.7743073  27.3673801
  67.7638474 169.2514496  30.8898640  67.9297104 170.4503326  30.9738159
  68.4460602 168.3264618  31.5909595  68.2166977 167.3624268  31.3957329
  69.4396057 168.5885315  32.6400490  69.9313126 169.5065002  32.3180695
  68.8807220 168.8459930  34.0889091  69.7434616 168.8753357  34.7544289
  67.9994278 170.1350708  34.1505394  67.2074814 170.0621643  33.4051476
  67.4671097 170.1442108  35.1016731  68.6880646 170.9727783  34.0404625
  68.0348892 167.7478943  34.4457474  67.2251053 168.1766968  34.7320862
  70.4952850 167.4754486  32.6597710  71.4897003 167.6695862  31.9874878
  70.3462906 166.3852081  33.3842354  69.5274124 166.3654938  33.9751320
  71.2552643 165.2479553  33.3922844  72.2594223 165.6492462  33.5291786
  71.2326813 164.5020447  34.7224808  71.4462967 165.1274567  35.5892754
  70.2072220 164.1593323  34.8605881  72.0662689 163.3392944  34.5878830
  71.6362610 162.7034149  35.1643715  71.2728348 164.4145050  32.0150528
  70.1873093 164.2157745  31.3972206  72.3822098 163.7345734  31.7506580
  73.1910095 163.8518524  32.3441162  72.5480118 162.8189545  30.5828114
  71.5585480 162.5691071  30.1998844  73.3588486 163.6296692  29.4855156
  74.1366425 164.1538086  30.0408649  73.8927994 162.9338531  28.8383465
  72.5881958 164.6823578  28.7361240  72.0272598 165.3410187  29.3991585
  73.5117645 165.5980988  27.9518032  74.2339630 165.0055847  27.3901482
  72.7822495 166.0545044  27.2827702  74.0337906 166.2932434  28.6093426
  71.5831757 164.0253906  27.7135143  70.8318405 163.4029236  28.1994457
  71.1192245 164.7842712  27.0834789  72.1598740 163.4557495  26.9847984
  73.1972122 161.5251007  31.0078583  74.4098663 161.3958893  31.2562408
  72.3154831 160.5208588  31.1837158  71.3463898 160.6909332  30.9555893
  72.7342987 159.1968384  31.6634369  73.6493988 159.4193726  32.2122345
  71.6261749 158.7630157  32.6609001  70.6762085 158.7730103  32.1265182
  71.7566986 157.7045135  32.8859367  71.5582962 159.8834076  34.0800285
  70.6740189 159.2797852  34.8791542  72.9772644 158.2401581  30.4930286
  72.7170410 158.6007233  29.3073597  73.5147247 157.0348816  30.7813072
  73.6106567 156.7873230  31.7557888  73.4853516 155.9106598  29.8524666
  73.5473022 156.3595581  28.8611298  74.6283646 154.9184875  30.0786343
  75.5240173 155.4172058  29.7082367  74.7450562 154.6965637  31.1394043
  74.4596558 153.3943176  29.1174622  75.7636795 153.1320496  29.2424927
  72.0888290 155.2697449  29.8683395  71.4695282 155.1374969  30.9170418
  71.5492554 154.8015594  28.7330265  72.1501465 154.9546509  27.9357872
  70.1545334 154.3139801  28.6686096  69.5219727 154.9337616  29.3040867
  69.6941528 154.4294891  27.1855583  69.8587875 155.4335175  26.7945175
  70.2999344 153.7409668  26.5964470  68.2154388 154.1322632  26.8638649
  67.9428940 153.1480560  27.2448788  67.5550461 154.8967438  27.2731934
  67.9611359 153.8814240  25.3367405  68.7292938 153.1572418  25.0654564
  66.9708099 153.4341278  25.2513561  68.0799255 155.1797943  24.4862213
  67.4896469 155.9386749  24.9998093  69.1363754 155.4177094  24.3621006
  67.5349808 154.9309845  23.1265717  66.5972366 154.5563660  23.1468239
  67.4823456 155.7591858  22.5508976  67.9969788 154.1950226  22.6117630
  70.0376587 152.8785858  29.2297554  69.0720062 152.5460358  29.9223461
  71.0677338 152.0322266  28.9726048  71.7926636 152.4589539  28.4136124
  71.0131378 150.6365967  29.4819965  70.1941833 150.0610504  29.0505371
  72.2625656 149.9250793  28.9613876  72.2678375 150.0326843  27.8767242
  73.1980667 150.3312531  29.3460484  72.1767197 148.3862610  29.2163963
  72.1885071 148.1704407  30.2847519  71.2939301 147.9544983  28.7448349
  73.3371429 147.5173798  28.6583900  73.9873047 147.8645325  27.6609535
  73.5082932 146.3101196  29.1570854  74.1583557 145.6427307  28.7670689
  72.9114532 146.0251770  29.9204216  70.9142990 150.5536652  31.0077438
  70.2068710 149.7036896  31.6093674  71.6480865 151.4447479  31.7226963
  72.2772522 152.0118408  31.1725483  71.5522385 151.6938324  33.1871071
  71.5303726 150.7735901  33.7708626  72.7712250 152.5324860  33.5662727
  72.5868301 153.5668640  33.2761726  72.9115219 152.5464935  34.6471176
  74.2461624 151.8218384  32.7484779  75.2709427 152.3086243  33.4540062
  70.3104553 152.5239105  33.6273003  69.7666702 152.4153595  34.7636261
  69.8529434 153.4071960  32.7258530  70.4487305 153.4842529  31.9139481
  68.9516602 154.6113739  32.9227905  68.8930130 155.0728455  31.9370422
  67.5267563 154.1526794  33.3240738  67.5383835 153.7651672  34.3427925
  66.8694077 155.0217743  33.3502197  66.9665222 153.0718384  32.4467545
  66.8026581 153.5198059  31.4666672  67.6620483 152.2398376  32.3366928
  65.5663452 152.5581512  32.8200340  64.6389389 153.3102112  32.9576721
  65.3893585 151.2421417  32.7978859  64.4624786 150.8452606  32.8568230
  66.1595764 150.5992279  32.6816063  69.4941025 155.6220703  33.8903275
  69.2347641 156.7969666  33.5763130  70.1428680 155.1800079  34.9638100
  70.1820831 154.1888885  35.1542130  70.4713669 156.0572052  36.1153755
  69.8158417 156.9279175  36.0997543  70.2574234 155.3232422  37.4421577
  70.3434677 156.0542145  38.2461433  69.2051697 155.0395813  37.4622154
  71.0892639 154.1037903  37.7969360  71.7021408 153.6118164  36.8183060
  71.1182098 153.7859344  38.9703522  71.8722763 156.6761932  36.1354561
  72.1520081 157.6725769  36.8049088  72.8018341 156.0314484  35.5355453
  72.5042114 155.1602783  35.1200905  74.2012024 156.3194580  35.5850830
  74.4192963 156.5973969  36.6162491  75.0252304 155.0888367  35.2482986
  74.7598343 154.7737732  34.2391434  76.5739365 155.2068329  35.2662315
  76.9079437 155.2965088  36.2999153  76.9056549 154.3185883  34.7285728
  77.0524521 156.0659485  34.7960930  74.7061996 154.0183563  36.0695915
  73.8559723 154.1761932  36.4864845  74.5963745 157.5067596  34.6927071
  74.3484268 157.5399933  33.5011444  75.2431183 158.5003815  35.3036461
  75.3629456 158.3817749  36.2994728  75.5206146 159.8363800  34.7194519
  74.6675110 160.1250763  34.1054764  75.6811523 160.8596497  35.8994713
  74.7693481 160.8622589  36.4967194  76.5038071 160.4563599  36.4899750
  75.9594116 162.3284149  35.3944435  76.7413406 162.2661133  34.6375999
  75.0885620 162.6686859  34.8341484  76.3382874 163.3246460  36.4999886
  76.6292953 162.9066315  37.6325684  76.2379761 164.5828094  36.2357712
  76.7766037 159.8374786  33.8369255  77.8585510 159.4932709  34.3644753
  76.6918030 160.3466644  32.6097107  75.8529816 160.8681488  32.3986816
  77.8806915 160.4410400  31.7789154  78.7004776 159.8509979  32.1886749
  77.4958420 159.7407990  30.4557896  76.4382706 159.8346710  30.2091484
  78.2976608 160.2733612  29.2548351  79.3641434 160.0940399  29.3910923
  78.1257172 159.7701263  28.3033676  78.1705170 161.3559113  29.2502651
  77.8990784 158.2181854  30.5215626  77.6481323 157.6583099  29.6206360
  78.9856110 158.1726990  30.5956078  77.2871170 157.4037170  31.6681900
  76.1975479 157.4268951  31.6483536  77.7510910 156.4175415  31.6508484
  77.5718765 157.8941956  32.5990105  78.2955933 161.8670959  31.6599102
  79.4313736 162.1642456  31.9129887  77.3564606 162.7755890  31.3366852
  76.3683167 162.6011200  31.2216511  77.5333710 164.2481995  31.2277069
  78.2830887 164.5739899  31.9487419  77.9378128 164.5829010  29.7843342
  78.7681427 163.9394379  29.4934597  76.8698425 164.4284821  28.7232685
  76.1908340 165.2803192  28.7610512  77.3274307 164.5073395  27.7371140
  76.2838898 163.5176086  28.8460140  78.4306030 165.9022217  29.7392349
  79.3820953 165.8522797  29.6219139  76.2556152 165.0612640  31.7028675
  75.2728500 164.4194183  32.1432228  76.3978958 166.3797760  31.6993675
  77.2095108 166.7119293  31.1983109  75.3538971 167.3940582  32.0344124
  74.4115143 166.8477020  32.0733414  75.6231613 168.0432434  33.3830376
  75.5855637 167.3163757  34.1944237  76.8792496 168.8878326  33.5146713
  76.8691635 169.6359406  32.7220001  76.8892059 169.4497681  34.4486046
  77.7490387 168.2323761  33.4707298  74.5191879 168.8542175  33.6650429
  74.5337524 169.0605164  34.6025009  75.2279739 168.4606781  30.8956966
  76.1692200 168.6894684  30.1029663  74.1273956 169.1465454  30.8578587
  73.3916931 168.8302155  31.4733047  73.7214279 170.3072662  30.0214939
  73.5215378 169.9802246  29.0011082  72.4393158 170.9158173  30.6917992
  71.5590820 170.2743835  30.6488762  72.6273270 171.0322723  31.7591267
  72.0247345 172.2782288  30.0800877  72.6080933 173.0175323  30.6289291
  72.2685928 172.2427673  29.0183086  70.5507584 172.7229309  30.2466278
  69.9512253 171.9245758  29.8092823  70.4336777 172.7337494  31.3302670
  70.3702621 174.0987396  29.6007881  71.2013550 174.7481079  29.8759480
  70.3477631 173.9715729  28.5184650  69.1556396 174.7922058  30.0694256
  68.9546585 174.8797913  31.0553436  69.0590057 175.6902466  29.6174564
  68.3133621 174.3123322  29.7858810  74.9066544 171.3245392  29.9503994
  75.1809311 171.7825317  28.8117352  75.5849533 171.6064148  31.0184307
  75.3690033 171.1658936  31.9012699  76.5964508 172.7011719  30.9993229
  76.1393509 173.5431671  30.4795322  76.9213715 173.0655212  32.4775696
  77.1769562 172.1833496  33.0645561  77.7896194 173.7202301  32.5522804
  75.7704391 173.8804626  33.1062889  75.3121567 174.8428955  32.4722366
  75.2267532 173.4910278  34.2213707  74.4785156 174.0224152  34.6431160
  75.5880203 172.6488190  34.6459427  77.9032440 172.3174744  30.2682915
  78.6803207 173.2024994  29.8653736  78.1501923 171.0827026  29.9538479
  77.5517502 170.3550720  30.3178940  79.3058548 170.6138916  29.1517467
  80.1800690 171.2275696  29.3690815  79.7261963 169.1687927  29.5577393
  79.0151291 168.3887939  29.2855282  80.5849533 168.9845428  28.9122314
  80.0848846 168.9775848  31.0144081  79.1728668 168.7223816  31.5540352
  80.7339706 168.1179047  31.1809540  80.8415680 170.1638184  31.7121773
  81.7965851 170.7258606  31.0806274  80.6470871 170.4211273  32.9646645
  79.0771332 170.5552826  27.6097336  79.9561844 170.3818207  26.7925987
  77.8757401 170.7136230  27.1737423  77.1439590 170.7712402  27.8674850
  77.5000458 170.7996063  25.7152462  77.9545135 169.9153442  25.2684517
  75.9387436 170.8199615  25.5387840  75.4943161 171.6982117  26.0070515
  75.7102890 171.0376892  24.0226307  76.2318344 170.2709656  23.4497223
  74.6649170 171.0305939  23.7139950  76.0266724 172.0644531  23.8388691
  75.2349854 169.4995728  25.9990921  75.7747803 168.6799622  25.5247974
  75.5344696 169.3609619  27.0379391  73.7802429 169.4181671  25.6998081
  73.7273788 169.4388733  24.6112919  73.3067932 168.5060120  26.0630283
  73.3037262 170.3183441  26.0880241  78.1478043 172.0245514  25.0378265
  78.0833054 173.1724243  25.5256901  78.8103943 171.8171082  23.8736515
  78.8693314 170.8452911  23.6049366  79.3007736 172.8834991  23.0046768
  78.6437073 173.7500458  23.0784912  80.6960144 173.3243866  23.3585510
  80.8262405 174.3818207  23.1283512  80.7333145 173.2971191  24.4475727
  81.8536301 172.5162048  22.7593594  81.9102936 171.1624451  23.0719528
  81.1298141 170.6829681  23.6441021  82.8831635 170.3642273  22.4900436
  83.0255966 169.3193817  22.7233448  83.8209076 170.9452972  21.6516533
  84.6272964 170.3330383  21.2757607  83.8285828 172.2723236  21.2539310
  84.5998459 172.6581726  20.6037998  82.7452698 173.0188751  21.8274078
  82.6377029 174.0602264  21.5620441  79.1549377 172.5337372  21.5090370
  79.1073990 171.3810425  21.1305695  78.9031982 173.5356903  20.6948624
  78.7891769 174.4579163  21.0906105  78.7568359 173.4203033  19.2407284
  78.3701019 172.4740601  18.8623905  77.8743973 174.5783997  18.8833103
  78.2510986 175.5303497  19.2574825  77.7894592 174.6568756  17.7994614
  76.6342316 174.4550476  19.4660416  76.1613693 175.2561646  19.2289467
  80.0926132 173.4642792  18.5238094  80.5971756 174.5175323  18.1530571
  80.7483444 172.3354340  18.3820496  80.5207520 171.5234375  18.9379044
  81.9511719 172.1719971  17.5528355  82.6365891 172.9807739  17.8061543
  82.6561584 170.8447723  17.9475117  82.7331467 170.8287354  19.0346699
  81.8457336 170.1495972  17.7283382  84.0181274 170.4398804  17.3001022
  83.8721924 170.2505035  16.2366428  85.0921631 171.4615021  17.5562859
  85.3081970 171.7243500  18.5918236  86.0212860 171.0833435  17.1298656
  84.9011002 172.3992310  17.0344887  84.3858871 169.0425110  17.7977734
  83.5639191 168.3555756  17.5962906  85.2650452 168.6341553  17.2993507
  84.4709930 168.9589233  18.8812294  81.6586151 172.2488708  16.0000973
  82.6253204 172.3831787  15.2461739  80.3909225 172.3660583  15.5422649
  79.7385101 172.4448395  16.3092384  79.9608307 172.4417419  14.1616831
  80.7555084 172.5657349  13.4260149  79.2061462 171.0827789  13.9655228
  79.7491760 170.1400146  14.0319557  78.4189835 171.0303802  14.7176790
  78.6427155 171.1352997  12.7135906  78.1938553 170.3191223  12.4812870
  78.9701080 173.5487213  13.9838638  78.3365326 174.0166321  14.9618273
  78.8634415 174.0903778  12.7350225  79.5641937 173.7995148  12.0683565
  77.8434296 175.0110016  12.3610764  77.8271637 175.8456116  13.0619822
  78.1181488 175.6732941  10.9682360  77.9708633 174.9187469  10.1955261
  77.2494354 176.2905273  10.7392159  79.4019852 176.5081635  10.9153795
  80.1988449 175.8232422  11.2052126  79.6538010 176.7298126   9.4081593
  78.7724533 177.1340942   8.9102869  80.4822540 177.4369049   9.3658590
  79.9376450 175.8210449   8.8774309  79.2240601 177.8943176  11.6680317
  79.2250061 177.6618958  12.7329617  80.1974487 178.3504791  11.4876919
  78.3785706 178.4657440  11.2849751  76.4285049 174.4333801  12.3153782
  75.4437256 175.2252808  12.2391338  76.2713394 173.1105347  12.4688969
  77.1221237 172.5671539  12.5005827  74.9658203 172.4734344  12.7087536
  74.1758957 172.9821320  12.1561871  75.0026093 171.0150757  12.2148151
  75.8492050 170.5505066  12.7203236  74.1647949 170.4110107  12.5630503
  75.3015823 170.9467163  10.4310112  75.2356567 169.6172638  10.3164244
  74.4850922 172.5787354  14.1844616  73.2951431 172.3390198  14.4863901
  75.3929901 172.9069519  15.0762720  76.3453598 173.0162964  14.7582541
  75.1769485 173.0779114  16.4692402  75.6113434 174.0086517  16.8341389
  74.1046524 173.1788635  16.6368256  75.7818680 171.9743347  17.2358761
  76.8431625 171.4634705  16.8773956  75.2442551 171.6102295  18.4179878
  74.0383377 172.1398621  18.9830666  73.1842880 172.0888519  18.3077202
  74.2412033 173.1365662  19.3748932  73.6630478 171.2914886  20.2253380
  73.2137299 170.3745117  19.8440533  73.0323486 171.8387756  20.9259090
  75.0730057 170.9557495  20.7451019  75.0532684 170.0544891  21.3578167
  75.5550385 171.7720337  21.2830868  75.9055939 170.7312775  19.4412556
  76.9404907 170.9982452  19.6552925  75.9636154 169.2475586  19.0375767
  76.4039383 168.4502411  19.7756615  75.5757675 168.8683167  17.8440876
  75.3772583 169.6067200  17.1842022  75.3395996 167.5268860  17.2942066
  76.1887817 166.8782196  17.5092144  74.1234589 167.0347443  17.9868145
  74.0071030 167.2256622  19.0536404  73.2775650 167.6287384  17.6407719
  73.8084564 165.5268250  17.7613811  73.5685806 165.3140869  16.7196007
  74.7436142 165.0615540  18.0730057  72.5169373 164.8923035  18.7765007
  71.2269821 165.0807953  17.5225201  71.5478439 164.6007080  16.5980434
  70.3349533 164.6214447  17.9484138  70.8864288 166.0941315  17.3097572
  75.0402832 167.6082611  15.7611656  74.4701614 168.5665131  15.2302551
  75.4837418 166.6259918  15.0133877  76.0208664 165.9153442  15.4893780
  75.1332092 166.3889160  13.6085711  74.0938034 166.6670685  13.4343185
  76.1023483 167.2072754  12.7852898  77.1256485 166.8720703  12.9543877
  75.9174881 167.1429901  11.7130051  76.1139984 168.2365417  13.1438856
  75.2375107 164.8822479  13.4264441  75.3698349 164.1465607  14.3816824
  75.1645203 164.3435974  12.2280388  75.1953125 165.0375671  11.4948521
  75.1543274 162.9372864  11.8728323  75.2207031 162.3411255  12.7829285
  73.7924423 162.5899811  11.1511030  73.6738892 163.2678223  10.3057728
  73.6469498 161.5597382  10.8262596  72.9672928 162.8319244  11.8209496
  76.2651749 162.5136414  10.8712664  76.5145645 163.2408295   9.9312134
  76.7438812 161.2998352  10.9790869  76.3690338 160.7606964  11.7465010
  77.9572830 160.7376709  10.3992186  78.0627136 161.1085052   9.3796721
  79.1784821 161.2159271  11.2446117  79.1788864 160.5425262  12.1017189
  80.0749054 161.1443481  10.6286592  79.2446289 162.6157990  11.8247519
  79.9693680 163.6113129  11.1082964  80.3084335 163.3426514  10.1187277
  80.1055679 164.9242706  11.5669880  80.6427765 165.6670074  10.9958830
  79.5446243 165.2790680  12.7924137  79.7236557 166.5195465  13.2028074
  80.5979767 166.8664398  13.0109100  78.8074722 164.2873230  13.5284977
  78.2968521 164.5420990  14.4454269  78.6642609 162.9993744  13.0017357
  78.1571045 162.2511444  13.5927858  77.8792572 159.2080688  10.2939415
  76.9244385 158.5937958  10.6968460  78.9684448 158.5809784   9.7508383
  79.7816391 159.1684113   9.6336412  78.9870682 157.1592102   9.4297190
  78.4577484 156.5619049  10.1721201  78.3881760 156.8489075   8.0206709
  78.6582108 155.8482666   7.6831594  76.8768845 156.9476318   7.9703751
  76.4542007 157.9204102   8.2216368  76.5211945 156.4608917   7.0622659
  76.5876465 156.2573700   8.7628260  78.9672012 157.7157440   6.8452601
  80.0397415 157.5247955   6.8091235  78.4471054 157.3687134   5.9524150
  78.7826920 158.7611847   7.0924416  80.4002533 156.5464325   9.4008312
  81.3531494 157.1966553   8.9891901  80.4586487 155.2270508   9.7646360
  79.6570282 154.7761841  10.1820297  81.6113968 154.3336792   9.5238152
  82.4758224 154.9918976   9.6110983  81.7207260 153.3185272  10.6757040
  82.7506790 152.9842377  10.8003578  81.4025345 153.7884064  11.6063347
  80.8358459 152.0852203  10.4432268  79.8148651 152.1472015   9.7323322
  81.2678833 151.0221558  10.9275494  80.7880020 150.1564178  10.7267981
  82.1755066 151.0482025  11.3698626  81.7481537 153.7172852   8.1014061
  80.6788330 153.8236389   7.3880239  82.8978043 153.0352936   7.7511077
  84.2642975 153.1163025   8.4133530  84.3027878 152.4289093   9.2584057
  84.5547562 154.1291046   8.6925926  85.2402039 152.6397552   7.3311152
  86.1073914 152.1865997   7.8114595  85.5754089 153.4257507   6.6543865
  84.4482803 151.6828156   6.5259724  84.4241333 150.7081604   7.0133743
  84.8244705 151.5862274   5.5075178  83.0931396 152.3041840   6.4646816
  83.1097260 153.1135712   5.7347989  81.8903961 151.4160004   6.1025381
  81.3310318 151.4750519   5.0439572  81.4244690 150.6776581   7.0910344
  81.9659958 150.6498413   7.9431348  80.2525482 149.7767181   7.0214930
  80.3249359 149.2705688   6.0588603  80.3016739 148.6943359   8.1028156
  79.8740540 149.1779480   8.9810877  79.6575699 147.8498383   7.8577909
  81.7258911 148.1873779   8.4056463  82.6877060 148.8696289   9.1349697
  83.7441483 148.0117340   9.1771345  84.6457977 148.1910248   9.7439528
  83.4897842 146.8552704   8.5399284  84.1835327 146.1285248   8.4367180
  82.1994019 146.9324493   8.1041174  81.6432419 146.2289581   7.5023022
  78.8917770 150.4762421   7.0943604  77.8452530 149.8228302   7.3145552
  78.8560791 151.7552032   6.8834867  79.7552567 152.2150574   6.8933816
  77.7106781 152.5920410   6.6208715  78.0724716 153.6139526   6.5071902
  77.1954880 152.2973328   5.7066398  76.7295151 152.7055359   7.8066554
  75.6412277 153.1799469   7.5734282  77.0438309 152.3074951   9.0538664
  77.9615784 151.9017944   9.1690159  76.2193375 152.5087128  10.2237377
  75.2053833 152.1898041   9.9822836  76.7341461 151.6979980  11.4408150
  77.0364151 150.6996765  11.1244698  77.6531448 152.1827545  11.7703018
  75.8137131 151.7185669  12.6684694  74.8854828 150.7037354  12.7508545
  75.0102768 149.8176727  12.1461020  73.8790817 150.6696930  13.7733526
  73.1889954 149.8568573  13.9450645  73.8823395 151.7602844  14.6479769
  72.9178162 151.7247314  15.5522079  72.3141098 151.0677185  15.1979885
  74.7952957 152.8141022  14.4989872  74.6648483 153.6650085  15.1511583
  75.7601852 152.8586578  13.4907761  76.4192352 153.7103729  13.4092493
  76.1659470 153.9675598  10.5881071  77.2000961 154.7115479  10.5465956
  74.9562759 154.4526978  10.9311609  74.1246262 153.8797455  10.9444208
  74.6768341 155.8909454  10.9483185  75.4026337 156.3747559  10.2946863
  73.3056335 156.0695190  10.2707844  72.5226364 155.6965179  10.9310017
  73.1647568 157.6234131  10.1425962  74.0120621 157.9351501   9.5318718
  72.3058548 157.9635315   9.5640497  73.0930710 158.1013947  11.1195755
  73.2264252 155.4363251   8.8681278  74.0017624 155.7750397   8.1809406
  73.3174591 154.3554688   8.9756937  71.8409424 155.5567932   8.2155180
  71.6144638 156.5989990   7.9905605  71.8213806 155.0790405   7.2359958
  71.0365372 155.1407166   8.8220644  74.7692795 156.4134216  12.4143820
  74.0253830 156.0134125  13.2807369  75.7506485 157.3130035  12.7230234
  76.4191895 157.5391388  12.0005217  76.1088104 157.7921295  14.0210018
  75.5721512 157.1429138  14.7128220  77.5876541 157.5857086  14.2691669
  78.2460022 158.0224304  13.5182085  77.8818512 158.0478058  15.2115068
  77.8907852 156.1403351  14.5104780  77.6215897 155.4085236  15.7002954
  78.1010590 154.1963196  15.5199156  77.9896545 153.3263245  16.1500645
  78.7718048 154.1530609  14.2941303  79.1959000 153.3486023  13.8547058
  78.6183853 155.3702850  13.6640902  79.0201721 155.6725311  12.7082605
  75.8269653 159.2879944  14.2285824  76.4152069 160.1208801  13.5533094
  75.0068207 159.5870514  15.2710285  74.5535049 158.8575134  15.8024235
  74.6510925 160.9362030  15.7615309  75.1738968 161.6445160  15.1188240
  73.1681824 161.2904205  15.7845001  72.6168976 160.4334717  16.1715736
  73.0723572 162.1160736  16.4896469  72.4485550 161.6782227  14.4988155
  72.9995651 162.4976349  14.0372486  72.3951569 160.8238373  13.8240528
  70.9807129 162.0524597  14.8778982  70.2165909 161.1807709  15.3794718
  70.6490860 163.2451477  14.7689419  75.2623062 161.1605988  17.1561737
  74.9377441 160.4435730  18.0989208  76.0645447 162.2133026  17.2573509
  76.0132904 162.8756714  16.4966011  77.0965576 162.3967133  18.3508511
  76.8848953 161.6744080  19.1392536  78.5903091 162.1224060  17.8125954
  79.2613678 162.2488403  18.6621780  78.7356415 160.6840057  17.2898998
  78.0751724 160.5043182  16.4416065  79.6985931 160.4928741  16.8163128
  78.6297302 160.0306091  18.1559029  78.9274139 162.9666138  16.8154469
  78.7204590 163.8756409  17.0444279  76.9322586 163.7755127  18.9353848
  77.2606049 164.8020325  18.3369141  76.4386826 163.7357025  20.1899281
  76.2645874 162.8565674  20.6556587  76.4203873 164.9956665  20.9947262
  75.8877563 165.7624664  20.4322071  75.6390686 164.7688446  22.2683983
  74.6283340 164.6261597  21.8860893  76.0216370 163.8945312  22.7950096
  75.4570465 165.9720306  23.2325897  76.4447403 166.2379456  23.6092243
  74.9193726 167.2375183  22.5937996  73.9144211 167.0752411  22.2041245
  74.7800751 167.9994202  23.3607502  75.6236877 167.6214294  21.8557930
  74.6336975 165.5687408  24.4956741  75.3387680 165.1551208  25.2167110
  74.1454620 166.4718018  24.8620129  73.9649963 164.7162018  24.3768997
  77.8710709 165.3825226  21.3992138  78.6436081 164.5057983  21.8538666
  78.2198792 166.6147003  21.1015434  77.6534195 167.2106781  20.5149975
  79.5740585 167.0264282  21.4120674  80.1394577 166.0950470  21.4424801
  80.4478989 167.7457428  20.2798519  81.4838104 167.8282623  20.6087723
  80.4539795 166.8521729  19.0425434  79.4201736 166.6344757  18.7742977
  80.8773117 167.4531555  18.2377300  81.1094284 166.0001373  19.2228680
  79.9316788 169.0307922  19.8578892  79.0523300 169.0749512  20.2405090
  79.6032562 167.7909241  22.7579288  78.9290619 168.8143158  22.9782295
  80.4971695 167.3897858  23.6653461  81.1452789 166.6346588  23.4926186
  80.6459808 167.9894867  25.0006695  80.2697601 169.0115662  24.9568310
  79.8002777 167.1557770  26.0347176  79.8482819 167.6437225  27.0082188
  78.2762375 167.1333008  25.7069378  78.1725693 166.4953766  24.8292141
  77.6707458 166.8120575  26.5544472  77.9315414 168.0743256  25.2782803
  80.2368240 165.7132721  26.1849842  81.1038361 165.7010651  26.8454742
  79.4681091 165.2013397  26.7638683  80.3711624 165.2516785  25.2067280
  82.1418533 168.0643311  25.4507999  82.9598846 167.2439423  25.0154018
  82.5266113 169.1239166  26.1783180  81.8612213 169.8178253  26.4878807
  83.8931656 169.3209686  26.6389351  84.6143112 169.3699188  25.8230572
  84.0481644 170.5983276  27.4233208  83.3809891 170.6416321  28.2841892
  85.0131836 170.6293793  27.9291687  83.9280548 171.8527222  26.5040607
  84.9087143 172.0582886  25.5484123  85.6579056 171.2874451  25.4439983
  84.8648758 173.2675018  24.7920799  85.6134262 173.5193481  24.0554314
  83.9210968 174.2366486  25.0930805  83.8884430 175.4741669  24.4523430
  84.4610062 175.5904083  23.6905956  82.9158478 174.0194092  26.0937309
  82.2613602 174.8526459  26.3029118  82.9530106 172.8345947  26.7784557
  82.2903214 172.6040192  27.5994816  84.2732544 168.1527710  27.6078625
  85.3546524 167.6196899  27.3941002  83.3984833 167.8249664  28.5572414
  82.6028137 168.4377594  28.6644878  83.6411362 166.8405457  29.6039772
  84.5854568 166.3159790  29.4584198  83.8870544 167.5990753  30.9482441
  84.5520706 168.4329987  30.7236614  82.9298019 167.9724579  31.3120537
  84.5820312 166.7760925  32.0283852  84.2175217 165.7609711  32.1857910
  85.6106567 166.6847992  31.6795273  84.5579910 167.4896698  33.4001503
  85.1029358 168.4336243  33.3903580  83.5245438 167.7772217  33.5935631
  84.9467239 166.5584564  34.5738564  84.9411850 167.0982513  35.5207977
  84.1899948 165.7830353  34.6929703  86.3477707 166.0324707  34.5745735
  87.0524750 166.6854553  34.2629318  86.6388168 165.8070374  35.5150909
  86.3910675 165.2434082  33.9456062  82.6348801 165.6232452  29.7253513
  81.4024429 165.7921448  29.6751499  83.1299362 164.4326782  30.0350742
  84.1296234 164.3047943  29.9689922  82.3353119 163.4056244  30.7553062
  81.4092789 163.8921051  31.0617695  81.9431381 162.2795715  29.7220516
  82.8586044 162.0466614  29.1782093  81.4582291 161.4543152  30.2435131
  81.2467041 162.7598724  29.0347443  82.9700165 162.8019714  32.0547562
  84.1602402 162.9948578  32.3342285  82.1276245 162.1858673  32.9616280
  81.1847458 161.9708557  32.6703300  82.6504745 161.6845245  34.2399406
  83.6234665 162.1610870  34.3594437  81.6227722 162.1089783  35.3017273
  80.6497726 161.6781311  35.0656128  81.9818268 161.8045502  36.2848396
  81.4705200 163.9713745  35.3452721  80.4723129 164.0767365  34.4635887
  82.7747650 160.1762848  34.3172112  83.9282150 159.7165833  34.5080109
  81.6761398 159.3925323  34.2291336  80.7920914 159.8522644  34.0641861
  81.7035217 157.9503937  34.3216782  82.4628448 157.6992645  35.0622597
  80.4820862 157.4452972  35.1006165  79.5641479 157.7884674  34.6234055
  80.4897995 156.3594513  35.1952362  80.4673843 158.0251465  36.5049629
  81.2126007 157.5942993  37.3679848  79.6918716 159.0252075  36.6669197
  79.7266998 159.4108429  37.5997467  79.0540848 159.3548737  35.9565277
  81.8768692 157.1594086  32.9628944  81.1173401 156.1670074  32.6813812
  82.9227676 157.4484100  32.2089996  83.4895020 158.2578278  32.4181328
  83.2728195 156.6739502  31.0496807  82.5035019 155.9274902  30.8520298
  83.3638687 157.5244446  29.7775688  84.1605988 158.2674713  29.8127556
  83.7381439 156.8882904  28.9754925  82.0955124 158.1275635  29.2835026
  81.6548691 158.6987915  30.1005898  82.2768478 159.0419922  28.1181068
  82.5693512 158.5053711  27.2155609  81.3506317 159.5585938  27.8664265
  82.9821014 159.8407135  28.3477974  81.0825729 157.0753784  28.7443504
  80.6744843 156.4502258  29.5385513  80.2111511 157.6380005  28.4094105
  81.5230560 156.3565063  28.0534821  84.5878372 155.9203949  31.2047138
  85.4913559 156.4236450  31.8382263  84.7266159 154.7650452  30.5619793
  83.9289856 154.3992310  30.0619183  86.0325851 154.0850067  30.3893433
  86.7960205 154.5765533  30.9923763  86.0037766 152.5921783  30.8669243
  85.1232986 152.1234436  30.4274368  86.9026718 152.0519104  30.5699615
  85.8877792 152.3830872  32.3820915  85.9783401 153.2474823  33.2551804
  85.6184082 151.1220245  32.6898422  85.4677582 150.8071289  33.6376038
  85.4593964 150.5352936  31.8832626  86.5553513 154.2149200  28.9045486
  85.7606430 154.5258179  27.9906445  87.8849640 154.0728149  28.7106419
  88.4243851 153.7093048  29.4832897  88.5344772 154.1415405  27.4181137
  87.8545837 154.6246185  26.7163429  89.6724014 155.1421967  27.4607029
  90.4180908 154.6575928  28.0909309  90.2248077 155.2937775  26.5333538
  89.3569870 156.5646973  27.8936787  88.9678726 156.4768829  28.9080658
  90.5931702 157.4151459  27.9982128  91.1906204 157.4300385  27.0866585
  90.4708633 158.4424591  28.3413715  91.2150650 156.9817657  28.7814903
  88.3960800 157.2875061  26.9677277  87.4673767 156.7175446  26.9400005
  88.1976471 158.3113708  27.2846279  88.8082733 157.3558960  25.9609890
  89.0623627 152.8121643  26.8697968  89.7879181 152.0225525  27.5003223
  88.6402130 152.4614563  25.6078491  87.8199005 152.9611053  25.2955570
  89.0435410 151.1983948  24.9061604  89.7189026 150.6217041  25.5381546
  87.8057709 150.3338165  24.7711010  88.0685959 149.4311676  24.2195015
  87.4666214 149.9541779  25.7349262  86.7976532 151.0603180  24.1799965
  86.0364685 150.4756470  24.1611691  89.7952957 151.3489380  23.5508480
  89.4889908 152.2631989  22.7595406  90.7137756 150.4384613  23.1877193
  90.8771057 149.6365509  23.7796421  91.5904694 150.4900513  22.0374603
  92.0965881 149.5371552  21.8827591  91.0935593 150.6835938  21.0868187
  92.6354446 151.5320282  22.1652832  93.0812454 151.8488464  23.2514324
  93.2370987 151.8866425  21.0656242  92.8598862 151.4213104  20.2524357
  94.2374115 153.0093231  21.0168858  94.2863083 153.4440155  22.0152626
  95.6548538 152.4402008  20.7328014  95.6961746 151.9658661  19.7522907
  96.3867798 153.2464447  20.6843586  96.1083755 151.3280334  21.7710857
  95.3364029 150.5666809  21.8829613  96.9289627 150.8011627  21.2841072
  96.6432953 151.8115387  23.1085835  97.3276825 152.6501770  22.9804974
  95.8089981 152.1872864  23.7009239  97.2638855 150.6962128  23.8442192
  98.1958771 150.4054718  23.5854454  96.7741776 150.0667114  24.8898087
  95.6329346 150.3624573  25.4255772  95.0592728 151.0839233  25.0126591
  95.2948380 149.7467346  26.1513119  97.3416595 149.0241547  25.3922901
  98.1083374 148.5809784  24.9066010  97.0635300 148.5656891  26.2481823
  93.9354172 154.1259613  19.9534740  93.3930969 153.7324524  18.9138031
  94.1464615 155.4045410  20.2485809  94.9832840 156.0039215  21.3521061
  96.0422745 156.0052032  21.0939407  94.8822556 155.3695374  22.2327042
  94.4632263 157.4224548  21.5558376  95.2056427 158.0717163  22.0199108
  93.5608368 157.3824005  22.1659145  94.1462555 157.7636719  20.0680714
  95.0514450 158.0319977  19.5233440  93.4383163 158.5910339  20.0190544
  93.7139511 156.4536743  19.3771992  92.6254196 156.4892426  19.4213104
  94.0809402 156.3572998  17.8961296  95.1889725 155.9046326  17.4935017
  93.1412659 156.7595978  17.0076408  92.1828308 156.9529114  17.2608795
  93.3720016 156.8346252  15.4995565  94.4038086 157.1675873  15.3872299
  93.3563614 155.4268036  14.9479733  94.0662918 154.8401794  15.5310497
  92.3030396 155.1477814  14.9203024  93.7065735 155.3818970  13.5755453
  93.6689606 154.4674377  13.2857571  92.5443802 157.8640442  14.7968159
  91.5946655 158.4030304  15.3839750  93.0655899 158.2376556  13.6351166
  93.9780579 157.8584747  13.4260006  92.5124359 159.2864990  12.7882719
  91.7427063 159.7870178  13.3757181  93.6326752 160.2943878  12.3546371
  93.1633301 161.1788483  11.9238987  94.3341751 160.8005371  13.6589041
  95.0621796 160.0803070  14.0322266  94.8437119 161.7450867  13.4683437
  93.5757904 161.0861969  14.3878479  94.5874710 159.7257080  11.4988585
  94.2077332 159.5507050  10.6346970  91.8264694 158.6873016  11.5282574
  91.2576904 159.4588318  10.7604570  91.8541031 157.3412323  11.3364487
  92.1576767 156.7256165  12.0773697  91.1839523 156.7890320  10.1224146
  91.6878662 157.2855530   9.2931690  91.4398956 155.2775421   9.9844723
  90.9691391 154.7526398  10.8157177  90.9574203 154.8377228   9.1116180
  92.9175034 154.8618011  10.0542336  93.4674301 155.1237946  10.9581356
  92.9113541 153.7718201  10.0557604  93.6424255 155.2303467   8.7573042
  94.0649490 156.4080200   8.6535578  93.8436890 154.3979797   7.8301845
  89.6556473 157.1177979  10.1241922  88.9859009 156.8970337  11.1440973
  89.2267914 157.6973572   8.9905691  89.8786392 157.7843781   8.2240057
  87.8125916 158.0958862   8.7255201  87.8137436 158.6779327   7.8039346
  86.9946976 156.8019409   8.3649416  87.7294083 156.0943909   7.9806519
  86.7297440 156.2469635   9.2648954  85.8235931 156.7702942   7.4203954
  84.4815521 156.7905273   7.9060378  83.7289276 156.6345062   6.7716608
  82.6493301 156.6055145   6.7661033  84.5647430 156.4201508   5.6908755
  84.2478485 156.1179657   4.7807364  85.8891907 156.5904541   6.0863657
  86.7935333 156.4779358   5.5067930  87.2222519 159.0068665   9.7735147
  85.9662094 159.1036224   9.8056965  88.0816116 159.7982788  10.4537249
  89.0537415 159.5758972  10.2936449  87.6235809 160.6280060  11.5634899
  87.0290756 160.0668182  12.2844238  88.8643036 161.2320404  12.3068657
  89.3734741 160.3591614  12.7154198  89.6340942 161.6992340  11.6926584
  88.3856125 162.0846405  13.3725882  89.1394577 162.4183655  13.8644695
  86.6954193 161.8225708  11.1151781  87.0970612 162.7203369  10.3891420
  85.4476700 161.8014221  11.6050739  85.2485886 161.1355591  12.3379393
  84.3418961 162.8114166  11.3581114  84.0690842 162.6882019  10.3100204
  83.1286926 162.4183502  12.2361193  83.4219131 162.4736328  13.2844820
  82.3088531 163.1066132  12.0306196  82.5666428 161.0454865  12.0250378
  82.5704651 160.3897400  10.8602018  82.8818283 160.8059082   9.9134912
  82.0863647 159.1042633  11.0127344  82.0250473 158.4725952  10.2270374
  81.8103561 158.7794342  12.2813683  81.4109955 157.6114044  12.9211264
  81.1994171 156.7176971  12.3528442  81.2357864 157.6350555  14.2815809
  81.0720520 156.7327576  14.8520584  81.4347916 158.8373718  15.0434790
  81.3472977 158.8662720  16.1195412  81.8410187 159.9962463  14.3572121
  82.0321350 160.8638916  14.9712887  82.0489502 160.0041046  12.9714527
  84.6864014 164.2947540  11.6258144  84.0429993 165.2063446  11.0478811
  85.7498932 164.5116119  12.4096193  86.2702484 163.6644592  12.5875549
  86.3967896 165.7737427  12.9955044  85.8685989 166.6116180  12.5404558
  86.0683670 165.9619751  14.5181322  86.4893188 165.1045074  15.0431442
  86.6367798 166.7386322  15.0298138  84.6472549 166.1679077  14.8456450
  84.0611725 167.5086823  14.7936316  84.6118622 168.3879852  14.4936819
  82.6782532 167.6071625  15.0414219  82.1926346 168.5702057  14.9854898
  81.9087448 166.5124054  15.3945093  80.8699341 166.7222290  15.6024656
  82.4543076 165.2337799  15.4760580  81.9483719 164.3208466  15.7535028
  83.8032684 165.0847778  15.2099009  84.1929703 164.0808411  15.2915354
  87.8868027 165.7907410  12.6809349  88.7130661 165.3819275  13.5486345
  88.3234940 166.3384094  11.5266733  87.4686737 166.6480408  10.4376802
  87.0390930 167.6485138  10.4888849  86.7131653 165.8995361  10.1988468
  88.3750305 166.7480164   9.1883383  87.9926071 167.5549774   8.5632973
  88.3316116 165.8058319   8.6419849  89.7903748 166.9753571   9.7849646
  90.0136337 168.0231018   9.9861593  90.5502625 166.5130768   9.1549158
  89.7211456 166.2662964  11.1278582  89.8373489 165.2174835  10.8547354
  90.7918167 166.7001495  12.0848112  90.7285004 167.7137146  12.7741861
  91.8731232 165.8857117  12.1458883  91.7338257 164.9801636  11.7208223
  93.1328964 166.1687927  12.8565235  93.8955231 165.4293823  12.6120443
  93.4093018 167.2129211  12.7099886  92.9560318 165.9919128  14.3394585
  93.9860458 165.9458771  15.0194378  91.7472076 165.8268127  14.8959026
  90.8784103 165.9521332  14.3963156  91.4603882 165.0824127  16.0723038
  92.0666885 165.3485870  16.9381275  90.0852661 165.5590668  16.6238747
  89.3636017 165.2423859  15.8708696  89.7968445 164.9186096  17.4573727
  89.9928284 167.0116425  17.0862083  90.2437515 167.2515564  18.4316883
  90.4086685 166.3586273  19.0163822  89.9979706 168.5295715  18.9819775
  90.0730743 168.7025604  20.0453873  89.5222778 169.6020660  18.2273655
  89.3833923 170.8560333  18.7132225  89.7880096 170.9226990  19.5812321
  89.2558594 169.3520966  16.8911915  88.7286911 170.0903015  16.3050575
  89.5138626 168.0554199  16.3108597  89.1441269 167.8997650  15.3081274
  91.4816589 163.5656891  15.8148623  91.0111008 163.1062927  14.7816391
  92.0076752 162.8110046  16.8047066  92.4070358 163.2094727  17.6424637
  91.9686813 161.3698425  16.8731823  91.8933411 160.9863892  15.8556414
  93.2439194 160.7809906  17.5082474  93.6916351 161.4418793  18.2504616
  92.9533844 159.8049927  17.8969650  94.0477295 160.6781158  16.7792759
  90.7995224 160.8980103  17.6915283  90.6593399 161.3829803  18.8447914
  89.9380722 159.9592133  17.2154732  90.0440445 159.6898346  16.2478466
  88.9648438 159.2607117  17.9967556  88.4968719 160.0026703  18.6437511
  87.8483429 158.6324158  17.0942059  87.1109772 158.1384888  17.7269955
  87.2879562 159.4472198  16.6357765  88.3180923 157.7785645  16.0104828
  88.4669800 158.2149963  14.7796507  88.1959686 159.1790619  14.3752584
  88.8698273 157.1721039  14.0421906  88.9482803 157.1622620  13.0352907
  89.2028961 156.1003418  14.7499514  89.7536392 154.8622437  14.4039812
  89.9513245 154.6509857  13.3634529  89.9225845 153.8561554  15.3779993
  90.3722153 152.9460602  15.0092802  89.4048538 154.0509644  16.6794853
  89.5451889 153.3175812  17.4597721  88.8055573 155.3274231  16.9730244
  88.4321671 155.5151367  17.9688873  88.7966232 156.3948212  16.0580406
  89.6126404 158.1778870  18.8516865  90.6717834 157.6710358  18.5788460
  88.8954239 157.7906189  19.9260578  88.1184464 158.3826141  20.1828461
  89.2846680 156.6035309  20.7538338  89.4215088 155.7882538  20.0434151
  90.5763931 156.7253113  21.6105919  91.3564835 157.2754517  21.0843830
  90.4219666 157.4901733  22.9365005  89.9584808 156.8966675  23.7245502
  91.4469376 157.6700287  23.2608318  89.8718491 158.4245148  22.8247643
  91.0013580 155.4656830  21.9562511  91.8267899 155.3875732  22.4401493
  88.0241013 156.2271881  21.5249691  87.2246780 157.1331482  21.9386711
  87.6878967 154.9207611  21.6514015  88.4250793 154.2356873  21.5657139
  86.4114990 154.3943176  21.8500500  85.7481918 154.9531555  21.1898823
  86.4089050 152.8962250  21.4740067  87.0604935 152.2751617  22.0886745
  84.8983765 152.4219055  21.5885468  84.3227386 152.9888306  20.8568764
  84.8255844 151.3676910  21.3212547  84.4862366 152.5458374  22.5899887
  86.8769836 152.6516724  19.9707508  85.9619141 152.6169434  19.3795242
  87.4731293 153.4732056  19.5735245  87.6607971 151.3667450  19.6474476
  87.0747833 150.4799957  19.8890495  87.8121033 151.2766113  18.5717697
  88.5992661 151.3775635  20.2017460  86.0266571 154.6110077  23.3185692
  86.7885895 154.3493042  24.2991104  84.7771912 155.0571747  23.5547886
  84.1825714 155.1349030  22.7420826  84.0905533 155.3623047  24.8276882
  84.8367081 155.3506470  25.6221809  83.3970108 156.6732483  24.7426720
  82.7910080 156.6077271  23.8390331  82.8125534 156.9270020  25.6270466
  84.0915222 157.4720306  24.4824600  83.1251526 154.2218018  25.1636333
  82.2228851 153.8630981  24.3770046  83.1692734 153.7223511  26.3982258
  83.8372040 154.1566162  27.0190182  82.1587677 152.8568573  27.0718689
  81.2851868 152.9006195  26.4214535  82.8005676 151.3701630  27.0491524
  83.8467941 151.4706879  27.3379726  82.3647385 150.7106628  27.7996292
  82.7301788 150.7761230  25.6314754  81.6683350 150.5523834  25.5288792
  83.0739212 151.5111847  24.9037209  83.5709534 149.5247498  25.5569153
  84.5988235 149.4297791  24.9842625  83.1321106 148.5207977  26.2648067
  83.7378540 147.7130890  26.2364464  82.2057495 148.4630127  26.6630821
  81.7281265 153.3895416  28.4016037  82.4649887 154.0892944  29.0858765
  80.4895401 152.9898987  28.7968254  79.9586792 152.4330902  28.1424217
  79.8695679 153.4037628  30.0780544  80.0065918 154.4169617  30.4558926
  78.3041000 153.2655640  29.8875809  77.9862289 153.9981842  29.1457386
  78.1440277 152.2503204  29.5245781  77.5201111 153.5239410  31.5177994
  76.2560349 153.2229156  31.2073212  80.3957520 152.4722900  31.1476154
  80.4930649 151.2621155  30.9471607  80.7078781 152.9993286  32.3412704
  80.5718842 153.9998169  32.3159943  81.5761948 152.4477844  33.4466133
  82.3612747 151.8202209  33.0248260  82.2389145 153.5958710  34.1513405
  82.8707199 154.1269531  33.4393883  81.3751144 154.2126007  34.3995171
  83.0083084 153.2583313  35.4326744  82.3527527 152.7745972  36.1567879
  83.7598419 152.4735413  35.3466377  83.6490860 154.5234985  35.9791756
  82.8679733 155.2600861  36.1673241  84.0629730 154.3348236  36.9697304
  84.6705246 155.0926056  35.1423798  84.7207489 154.7644806  34.1884842
  85.6487503 156.0380554  35.3960152  86.0209579 156.4122925  36.5945396
  85.5169296 156.0689850  37.3996506  86.8257675 157.0085449  36.7243805
  86.3940277 156.5702667  34.4600296  86.1851425 156.4203644  33.4832993
  87.1916275 157.1643372  34.6361313  80.8505859 151.4163971  34.2793655
  81.5425720 150.5778351  34.9695396  79.4989319 151.3931122  34.3605461
  78.9983444 152.0845184  33.8206749  78.6771164 150.4575653  35.1688156
  79.2674408 150.1307068  36.0248451  77.3537369 151.1602325  35.7474899
  76.8083344 151.7521515  35.0124550  76.3908539 150.2161865  36.3850174
  76.8706970 149.4954376  37.0471039  75.6058578 150.7858582  36.8823624
  75.9349747 149.6116791  35.6009064  77.7784424 152.2922211  36.8377914
  78.3569870 153.0738678  36.3454399  76.8211746 152.6828613  37.1829567
  78.4556046 151.7221375  38.0880814  79.4598389 151.4704285  37.7471237
  78.5170212 152.4673004  38.8812103  77.9692841 150.8335571  38.4906044
  78.3380508 149.1699066  34.3881226  78.3017731 148.0675964  34.9708366
  78.0895157 149.3226624  33.1113968  78.1889648 150.2129211  32.6448898
  77.5135345 148.2049561  32.2884979  77.2573471 147.2842102  32.8126183
  76.1122665 148.7289886  31.8528767  75.7322845 147.8969727  31.2600155
  75.5298920 148.9901276  32.7364731  76.3433380 150.1741943  30.7168026
  75.0492401 150.2916718  30.4062881  78.4523239 147.6842957  31.1738377
  78.2442322 146.5535736  30.7029266  79.4506454 148.4980927  30.7899685
  79.6231308 149.3494263  31.3053188  80.3087463 148.2492065  29.6026115
  81.2743149 148.7549591  29.5984783  80.4757462 147.1756592  29.5149002
  79.6755219 148.5959015  28.2474060  80.2200775 148.2347870  27.2471523
  78.5283051 149.3065948  28.2283478  78.1026077 149.5673523  29.1063538
  77.7781601 149.7162476  26.9985504  77.6163635 148.8536835  26.3520985
  76.4174652 150.3557892  27.3175240  75.9425659 149.7094116  28.0556049
  76.5589752 151.3603058  27.7163200  75.5989838 150.5390320  26.0529060
  75.5360641 149.6840363  25.2281895  75.0672455 151.7289886  25.8816223
  74.8658829 152.0005646  24.9298878  75.1848831 152.4635925  26.5647125
  78.6827164 150.6822968  26.2567368  79.1252136 151.6400604  26.8544617
  78.7713394 150.5895691  24.9452248  78.4003906 149.7215729  24.5859432
  79.4221115 151.4969330  23.9694099  80.4677353 151.6530304  24.2347622
  79.4225693 150.8090363  22.5691395  80.0975571 149.9546814  22.5184155
  78.4184265 150.5732880  22.2166958  79.8816071 151.8386383  21.4930248
  79.0828323 152.3637543  20.4090042  79.8937225 153.1880341  19.7387905
  79.5236893 153.8494415  18.9693546  81.1605759 153.1514282  20.2900085
  81.9506073 153.6703796  19.9341412  81.1708832 152.2573547  21.3365231
  82.0544128 152.0384979  21.9177971  78.7049408 152.8815155  23.8848896
  77.4979706 153.0074005  23.7554932  79.4913635 153.9738159  24.0158367
  80.4829941 153.8518066  23.8679428  79.0961609 155.3931885  24.1810341
  78.0152206 155.4045258  24.0412598  79.3203964 155.9931030  25.5837269
  80.3628693 155.9598999  25.9003410  78.9017792 156.9923248  25.7038021
  78.6055069 155.1358795  26.6136951  78.8734894 154.0794830  26.5959396
  78.9119339 155.5490112  27.5746994  76.7438736 155.0234222  26.5567245
  76.2601242 156.7351837  26.6610641  76.3596268 157.2675018  25.7150974
  75.2065277 156.7890625  26.9351501  76.8763046 157.1715393  27.4472122
  79.7153625 156.2760315  23.1270885  79.7801971 157.4834442  23.3304920
  80.1756058 155.7833557  21.9670258  80.2127609 154.7847748  21.8202438
  80.7567596 156.6832428  20.9465351  80.6410522 156.2317047  19.9612293
  80.2623444 157.6542358  20.9179306  82.2847443 156.8330994  21.2017593
  82.9460526 155.8012085  21.2956619  82.8008652 158.0686493  21.0457935
  82.1393890 158.7991486  20.8246365  84.2563477 158.3332825  21.0161781
  84.8218994 157.5168610  21.4652939  84.8262100 158.2706146  19.6238136
  84.3979187 159.1133270  19.0811424  85.8791809 158.5444183  19.6900330
  84.7071686 157.0597076  18.8160477  85.6310272 156.1553345  18.5903339
  86.6201859 156.1328888  19.0232983  85.2313538 155.0946808  17.8270130
  85.8387756 154.3176270  17.6094761  83.8516083 155.2053375  17.6603394
  82.8638840 154.3732910  17.1284389  83.2391739 153.4174805  16.7938042
  81.5202026 154.8409729  16.9683037  80.7172775 154.2156372  16.6068192
  81.2677612 156.1973877  17.4284763  80.2358475 156.4876251  17.2968636
  82.2475510 157.0571289  18.0147820  82.0653610 158.0491638  18.4008770
  83.6046219 156.5655975  18.0770645  84.5870667 159.5037231  21.7666779
  83.8396683 160.5141907  21.6792240  85.7453613 159.4423065  22.4060841
  86.3009567 158.6003571  22.4565315  86.5676956 160.5816650  22.9251442
  85.9257507 161.4169159  23.2050552  87.4778366 160.1514893  24.0734978
  86.8372345 159.8277283  24.8938065  88.0901794 159.3041840  23.7649555
  88.3370819 161.2963409  24.6186848  88.9863663 161.8011627  23.9033680
  87.6864700 162.0873413  24.9916935  89.2033844 160.9103394  25.8514404
  88.5858841 160.3426208  26.5474873  90.0120239 160.3163300  25.4255886
  89.7412109 162.1858521  26.5131779  90.4111481 162.6493225  25.7889633
  88.8390045 162.7973785  26.5257244  90.4500351 162.0231781  27.8525944
  91.3789520 161.6519012  27.7133999  90.6581192 162.9164734  28.2754688
  89.9397125 161.4844971  28.5377960  87.3801804 161.0200348  21.7277393
  88.0139694 160.1622467  21.0902653  87.5107956 162.3479767  21.5785885
  87.1429825 163.0310822  22.2252522  88.3800583 162.9785614  20.6656799
  88.8531265 162.1421204  20.1512127  87.6040955 163.7867584  19.6731548
  87.0932312 164.5192108  20.2981682  88.2728577 164.3158722  18.9942570
  86.7023392 163.0211334  18.7859306  87.0491943 162.7543030  17.4509506
  88.0112610 163.0206757  17.0387821  86.1350861 162.1709747  16.5747452
  86.4444733 161.9899902  15.5559587  84.9137878 161.6405792  17.0081081
  84.3045044 161.1023102  16.2971592  84.4894638 161.8926697  18.3276939
  83.5665131 161.4748077  18.7017975  85.3654099 162.6487122  19.1608696
  85.0491714 162.7984772  20.1826134  89.5188370 163.7738800  21.3563919
  89.2706833 164.7123718  22.1371727  90.7446213 163.5305328  20.9248562
  90.8317642 162.7573395  20.2809105  91.9479065 164.2221069  21.4276142
  91.5951996 165.0263519  22.0732937  92.8984604 163.3611298  22.2878304
  93.7914810 163.8797607  22.6366043  92.1882553 163.0935516  23.5762272
  91.3122406 162.4870605  23.3463039  92.8830338 162.4845886  24.1546268
  91.9098663 164.0140533  24.0893364  93.2484512 162.1315613  21.7394962
  93.6204834 162.3760071  20.8889389  92.6278076 164.8344421  20.2608509
  92.8208847 164.2021790  19.2180004  93.0250320 166.0639648  20.3782825
  93.0682297 166.4625854  21.3052864  93.7228088 166.7751923  19.3512115
  93.1392746 166.7713013  18.4305744  93.7596741 168.2318573  19.7178860
  94.2709579 168.3926392  20.6670132  94.1321030 168.8038330  18.8680325
  92.7391891 168.6148376  19.7249355  95.1292725 166.1738892  19.2377300
  95.7694244 165.8853149  20.2785988  95.6573792 166.0192261  17.9874191
  95.1671906 166.2047577  17.1240597  97.0352631 165.5520477  17.7472763
  97.3109818 164.8955231  18.5725384  97.0749207 164.6007080  16.5027294
  98.1121368 164.2666626  16.5289249  96.1588898 163.4142151  16.7734451
  95.1128311 163.7191620  16.7440052  96.3039703 162.5836029  16.0826874
  96.3233643 163.0697784  17.7944298  96.7669907 165.2866516  15.3055239
  95.8463211 165.5585480  15.3111076  98.1182022 166.5750732  17.5973244
  99.2890167 166.2133789  17.5374985  97.8110352 167.9115448  17.6219578
  96.8519058 168.1713715  17.8027153  98.7102890 169.0776062  17.3529243
  99.7462692 168.7783813  17.5120316  98.5269699 169.5961456  15.9102058
  97.4993439 169.8241577  15.6271963  99.0807419 170.5262146  15.7820988
  99.1104126 168.7043304  14.8153801 100.1515045 168.6544189  15.1343451
  98.7443237 167.6808319  14.8961716  98.9036942 169.1112518  13.3876934
  99.1156845 170.1804199  13.3943949  99.6625443 168.6606445  12.7480068
  97.4420547 168.7560425  12.9001637  97.2842560 167.6778717  12.9276390
  96.7755737 169.3015137  13.5682611  97.2636566 169.1643372  11.4866838
  97.7741013 168.6043701  10.8188639  96.3183746 168.9782410  11.1835127
  97.4938812 170.1309204  11.3054972  98.4732971 170.1497040  18.3791504
  97.3440781 170.4390259  18.8246593  99.5893631 170.8121948  18.7436047
 100.4456635 170.5007019  18.3079147  99.7376633 171.6452637  19.9689941
  99.2857590 171.0682068  20.7757740 101.2005081 171.7121124  20.3505096
 101.2859192 171.9995422  21.3984604 101.7369080 170.7750702  20.2011490
 101.9750595 172.6834869  19.4555607 102.0821991 172.2675781  18.4537411
 101.5064468 173.6676025  19.4563065 103.3763428 172.9115906  19.9996185
 103.2409439 173.1666107  21.0506821 103.8641586 171.9406891  19.9131069
 104.1045837 174.0647125  19.3715191 103.3751678 174.8705750  19.2900848
 104.8919067 174.3866730  20.0531101 104.6153717 173.7551270  17.9833965
 103.8650742 173.2910614  17.4916553 104.8579941 174.5770264  17.4488602
 105.4174805 173.1435089  17.9319191  99.0823441 173.0649261  19.9635601
  99.1427994 173.7026978  20.9989090  98.6438675 173.5932465  18.7611580
  98.6678543 173.0186768  17.9308510  98.1427231 175.0383606  18.6762753
  98.1987457 175.4750824  19.6733875  99.0342331 175.9374084  17.8111897
  98.8334885 176.9935150  17.9912338 100.0483475 175.6813812  18.1179790
  98.8249359 175.7612457  16.3617153  98.5126495 174.6151886  15.8810415
  98.8483505 176.7665558  15.6192799  96.6242447 175.0864258  18.4104042
  96.0581055 176.1988678  18.3823147  95.9422226 173.9555511  18.2621803
  96.4222107 173.0809021  18.4192848  94.4786987 173.8278961  18.1753197
  94.2637177 174.6551666  17.4989338  94.0550079 172.4781952  17.5672588
  94.3252182 171.6484375  18.2204018  92.9840088 172.5654755  17.3843880
  94.6305313 172.2012634  16.1746426  94.2182388 172.8816986  15.4295702
  95.6987610 172.4169617  16.1962948  94.4591751 170.5182495  15.4171934
  92.6417236 170.4126434  15.1870232  92.2773132 171.2554779  14.5997086
  92.3581238 169.4939423  14.6735315  92.1912613 170.4768524  16.1775074
  93.7289429 173.9732361  19.5111771  94.3278275 173.6148376  20.5220108
  92.4694824 174.4302673  19.5500488  92.0744629 174.7897949  18.6928425
  91.5809250 174.5925446  20.6905651  91.9922638 173.9996185  21.5074825
  91.6251526 176.0334473  21.2848301  92.6571655 176.1962280  21.5955486
  91.3435135 176.7899780  20.5524178  90.6815643 176.1803284  22.3858013
  90.7054367 177.0893250  22.6936264  90.1627655 174.2106018  20.3690758
  89.7069473 174.7755432  19.3563442  89.4609680 173.3987122  21.1571178
  88.0547562 173.0902557  20.8771286  87.7891388 172.8364258  19.8509140
  87.4611664 173.9800262  21.0870514  87.7526779 171.9083710  21.7928810
  88.0149307 170.9916992  21.2646561  86.6953583 171.9770813  22.0487309
  88.6424789 172.2081299  23.0250149  88.9794312 171.2962189  23.5179348
  88.1414185 172.8946533  23.7074547  89.9138565 172.8377838  22.4156265
  90.2259750 173.6744385  23.0406704  91.0700073 171.7843018  22.2706108
  91.3425064 171.3305817  21.1317539  91.6662369 171.3616791  23.4053783
  91.3343430 171.6825562  24.3037014  92.6875153 170.2779083  23.3555603
  93.2903976 170.5084839  22.4772301  93.5889816 170.4002838  24.6645756
  94.1601257 171.3151550  24.5067310  92.9645462 170.4923553  25.5532246
  94.6240692 169.3191376  24.9459972  94.9309998 169.6995850  25.9202442
  94.1859283 168.3216400  24.9792004  95.7884445 169.2997437  23.9700165
  95.8275375 170.0137939  22.9378529  96.7948532 168.4682617  24.2270966
  97.5364227 168.3539276  23.5510006  96.7967682 167.8742981  25.0439930
  92.0126724 168.9214478  23.2723141  92.4539719 167.9808655  22.5968094
  90.9923325 168.8148804  24.1367321  90.8061371 169.6358643  24.6947880
  90.1171188 167.5475922  24.1988125  90.3746338 166.9072876  23.3551311
  90.4025116 166.8498230  25.6161575  89.8201675 165.9285431  25.6312504
  91.4749451 166.7054443  25.7471237  89.9111176 167.7162628  26.7548771
  90.0672531 168.7641754  26.4987469  88.8291931 167.6075287  26.8304939
  90.5953140 167.3596344  28.1067009  89.8597412 167.6439362  28.8591671
  90.7796936 166.2853546  28.1113014  91.8995132 168.1400452  28.2565975
  92.5983810 167.7659760  27.5084209  91.6250992 169.1865692  28.1239624
  92.6102829 167.9025574  29.5543709  92.9551086 166.9591370  29.6599541
  93.4177704 168.4923096  29.6967030  91.9834290 168.0781860  30.3265781
  88.6974792 167.9056854  23.9842987  88.2141190 168.9632416  24.2796402
  87.9059448 166.9267883  23.4568520  88.2867661 166.0687561  23.0842266
  86.4510498 166.8631744  23.6251259  86.1650696 167.1987305  24.6219807
  85.8461838 167.7760315  22.5808010  84.9317780 168.2602234  22.9235916
  86.4654388 168.6708984  22.5189514  85.6889420 167.2190552  21.1451893
  86.7526550 167.3497314  20.2328701  87.5757370 168.0154724  20.4467297
  86.6723709 166.8081665  18.9280701  87.4218674 166.9657440  18.1666069
  85.5490112 166.1191711  18.5765324  85.5080948 165.7409973  17.5657387
  84.4849625 165.9707336  19.4422779  83.5885162 165.4572754  19.1273861
  84.4788208 166.5595856  20.7397194  83.5566254 166.5554810  21.3018074
  85.9626236 165.4320221  23.5418549  86.6385422 164.4606934  23.2812500
  84.6664886 165.3005524  23.7493172  84.2049484 166.1661835  23.9896221
  83.8728256 164.1310577  23.7310429  84.4575424 163.3034363  23.3294621
  83.4267426 163.7216492  25.1023502  82.8259659 164.5383606  25.5025425
  82.7834396 162.8543701  24.9537220  84.4342041 163.3854675  26.1438942
  85.0694199 164.3800201  26.8281479  84.9260101 165.4453278  26.7235451
  85.9189224 163.8415833  27.7385464  86.4646454 164.3616943  28.4106827
  85.9091797 162.4404907  27.6364822  86.4384308 161.4895172  28.4787712
  86.9348068 161.8047180  29.3846684  86.1662292 160.0856018  28.1746941
  86.5525436 159.2888794  28.7930775  85.4085312 159.7693634  27.0281944
  85.2580948 158.7391663  26.7410297  84.7979813 160.7741547  26.2279911
  84.3349609 160.4701080  25.3008652  85.0288086 162.1271973  26.5659428
  82.7515945 164.2052765  22.6455650  81.9522858 165.1688690  22.6062984
  82.6955261 163.1944885  21.8284912  83.3335037 162.4169312  21.9205799
  81.7110214 162.9996338  20.7172508  81.0498047 163.8602600  20.6161671
  82.2019272 162.8255005  19.7597580  80.8069534 161.7841797  20.9492359
  80.9232712 160.7396393  20.3240604  79.9091797 161.9129486  21.9335804
  79.7672882 162.8604889  22.2531662  79.0333862 160.7986145  22.5376625
  79.7231903 159.9550629  22.5639267  78.5353088 161.1556549  23.9545689
  77.7300720 161.8860931  23.8761749  78.1445999 160.2170563  24.3476391
  79.6320724 161.6801300  24.9024467  80.1679001 162.5079193  24.4379501
  78.9342804 162.2327271  26.1220188  78.4179382 161.4164124  26.6271229
  79.6317062 162.6755676  26.8330631  78.2255936 163.0127258  25.8437023
  80.7066498 160.6701202  25.2836475  81.1312256 160.3064117  24.3479385
  81.4798889 161.1296234  25.8993206  80.2598419 159.7613373  25.6868591
  77.7909241 160.3094482  21.7306614  76.9478683 161.2050476  21.4126568
  77.5552139 159.0509644  21.5571499  78.1030807 158.2655334  21.8781414
  76.4288406 158.6402283  20.6504154  76.4733429 159.2728577  19.7639046
  76.5459747 157.1481476  20.1827374  75.5609741 156.7935486  19.8791866
  77.5346451 157.0409698  19.0663052  78.4014053 157.6067963  19.4078770
  77.7158051 155.9803925  18.8917942  77.0889359 157.6113129  18.2513447
  77.0912933 156.3401794  21.2011337  76.5979538 155.5169525  21.2243195
  75.1181335 158.8287964  21.3281727  74.9055939 158.4318848  22.4621677
  74.1550598 159.6145782  20.7497730  74.4653397 160.0194702  19.8780613
  72.9096756 160.0107574  21.4379597  73.2198334 160.2257538  22.4605427
  72.3628845 161.3932495  20.8976974  71.5129166 161.6657562  21.5233154
  73.1804581 162.1091309  20.9825287  71.8921356 161.3904724  19.4012642
  72.6226501 161.9946136  18.8632355  71.9724884 160.3824310  18.9944706
  70.5222015 162.0435638  19.0980244  70.4467926 162.9528351  19.6943874
  70.4367065 162.2348785  18.0283527  69.4343796 161.2012024  19.5901394
  69.2651978 161.2165375  20.5857506  68.6624222 160.4635162  18.8327351
  68.7930298 160.1546631  17.5520954  69.4505157 160.6307373  16.9511108
  68.0669403 159.5889893  17.1362953  67.5942154 160.0102539  19.4033318
  67.2568741 160.4152832  20.2648754  66.9305191 159.5471191  18.7990818
  71.8278503 158.9316864  21.4779510  70.8922729 158.9892883  22.3015251
  71.9482956 157.8915863  20.6470299  72.6976700 157.9487305  19.9722862
  71.1948853 156.5967255  20.7494373  70.1443405 156.8409271  20.5918903
  71.6253433 155.7708130  19.6041718  71.3242950 154.7255249  19.6737309
  71.2122726 156.1254425  18.6598701  73.0976410 155.7050018  19.5306149
  73.3306046 155.4907532  18.6242924  71.4434662 155.9153748  22.1105652
  70.5423508 155.2684784  22.6477280  72.6246185 156.0218658  22.7442379
  73.3830109 156.4693604  22.2495708  73.0022583 155.3117828  23.9629269
  72.4375763 154.3862762  24.0755291  74.4133759 154.7840424  23.8615227
  75.1416931 155.5925446  23.7984715  74.6052094 154.1634369  24.7368259
  74.5400238 154.1950836  22.9531212  72.9173203 156.2151642  25.2394199
  72.8748322 155.6894684  26.3209400  72.6761932 157.4873047  25.0885258
  72.7471848 157.8700409  24.1565571  72.3973312 158.3788147  26.2013493
  72.8533401 157.8812866  27.0572910  73.0041656 159.8328857  25.9195824
  72.5540543 160.2427063  25.0153999  72.5300674 160.4553070  26.6784763
  74.5329971 160.0453339  25.9694042  75.0281830 159.2467194  25.4170361
  74.8078232 161.3165283  25.1490936  74.2264481 162.1627808  25.5151081
  75.8562164 161.5510864  25.3333893  74.6285706 161.1391602  24.0886650
  75.1097412 160.2508392  27.3480721  74.8290100 159.4127045  27.9858990
  76.1956558 160.2916260  27.2630100  74.8570480 161.2082214  27.8037834
  70.8702621 158.4002228  26.5187836  70.0938492 157.8301239  25.7638531
  70.5373917 158.8705597  27.7503719  71.2248535 159.1937408  28.4159908
  69.1227875 159.0422211  28.2020035  68.4401932 159.1233826  27.3560772
  68.6571274 157.8067627  29.0029221  68.7578125 156.9002380  28.4061108
  69.4050903 157.7538300  29.7940254  67.2397461 157.9044342  29.4145145
  66.9951477 158.8365326  29.9238796  66.2227783 157.6740112  28.3096886
  66.3984451 156.7082214  27.8358898  65.2154465 157.6350555  28.7242622
  66.3650589 158.3909302  27.5010490  67.0329895 156.8775024  30.5217323
  67.6742935 157.1212616  31.3687325  66.0120010 156.8779755  30.9034233
  67.1915131 155.8550873  30.1787148  68.9927444 160.2947845  29.0263824
  69.5554047 160.3597260  30.1560879  68.2130737 161.3084564  28.6075077
  67.8153839 161.5539551  27.2363777  66.8141785 161.1701508  27.0404739
  68.4195404 161.0414276  26.4877739  67.8212585 163.0285492  27.0413113
  67.0993118 163.2565918  26.2571583  68.8373413 163.3886566  26.8800449
  67.4717102 163.5746613  28.4215851  66.3820267 163.5844727  28.3972969
  67.8621902 164.5723419  28.6222668  67.9802399 162.5344696  29.4312992
  68.9793701 162.8504486  29.7313099  66.9911118 162.3516541  30.6827545
  66.1230164 163.2063751  30.8316231  67.2846909 161.4348450  31.6091175
  67.9762878 160.7380829  31.3717937  66.5526505 161.1997833  32.8553238
  65.4903793 161.0854034  32.6394577  67.1169281 159.9598694  33.5329323
  67.0763702 159.0764160  32.8957863  68.1829453 160.0726166  33.7304344
  66.4613266 159.6166382  34.9372940  66.6786118 160.5402679  35.4737473
  65.3824615 159.6610413  34.7883377  66.9542999 158.3682709  35.6306267
  67.9872208 158.1232910  35.3833427  66.9888535 158.5527039  36.7043571
  66.0331116 157.2347412  35.2838364  65.5153198 157.2328796  34.4166603
  65.8913651 156.1370239  35.9740868  66.4980392 155.9048462  37.0966873
  67.1842422 156.5577850  37.4472694  66.3767395 155.0803833  37.6673470
  65.1622467 155.1793976  35.5381927  64.5699844 155.4111328  34.7535706
  64.9612579 154.3439331  36.0689468  66.5850983 162.3991241  33.9130630
  65.4552994 162.8854370  34.1600266  67.6880188 162.7575378  34.4317513
