Cpptraj Generated Restart                                                       
 6188  4.0000001E-01
  90.3749847 180.8416748  24.0169315  91.3434906 180.7803497  23.7370567
  90.0923462 179.9239502  24.3299828  90.2525711 181.4787292  24.7910728
  89.3750229 180.9557343  22.8723392  88.3706284 180.7792511  23.2572384
  89.4906769 182.2634888  22.0663662  90.4840622 182.2140961  21.6204453
  88.7531815 182.2035370  21.2659893  89.3212814 183.5462952  22.9135017
  88.5182037 183.3976288  23.6353531  90.1933899 183.6101685  23.5642262
  89.2382126 185.1354065  22.0918274  87.4671860 185.2632294  21.5925236
  86.9122391 185.3927765  22.5216904  87.3971939 186.1957703  21.0325260
  87.1516953 184.4367523  20.9557400  89.4324188 179.8063202  21.8893337
  90.4826660 179.2731323  21.5277176  88.3558655 179.4595642  21.2087917
  87.4929886 179.8942108  21.5031300  88.2953873 178.4201355  20.1385975
  88.9349899 177.5810852  20.4124718  86.8974838 177.7325745  20.0504456
  86.2036362 178.5186157  19.7524395  86.8582001 176.5929718  18.9954815
  87.3460388 175.6945190  19.3734779  85.8355026 176.2576752  18.8229599
  87.2983856 176.9105072  18.0502243  86.4382095 177.2654724  21.4427643
  85.8114548 176.3876801  21.2854137  87.3251266 176.9001007  21.9604282
  85.6080170 178.2820435  22.2434959  84.7060318 178.5632324  21.6999302
  85.2723618 177.7748718  23.1480484  86.1413422 179.1979828  22.4979286
  88.8542709 178.9993134  18.8432236  88.6842957 180.1192169  18.4492817
  89.7261658 178.1818085  18.1938648  89.8720016 177.2553558  18.5687237
  90.3860703 178.3971710  16.9083138  89.9376068 179.2958069  16.4847431
  91.8692169 178.6263275  16.9641972  92.2753906 178.7829742  15.9649019
  91.9867706 179.5627289  17.5095654  92.6729431 177.5068817  17.6778755
  92.3489609 176.2940369  17.6494064  93.6844254 177.7584229  18.4296741
  94.1626587 177.0068970  18.9057045  94.1548996 178.6503448  18.3727360
  89.9105988 177.4171143  15.8228350  90.1655731 177.6036530  14.6333284
  89.1973495 176.3835602  16.2551041  89.1105194 176.2735443  17.2553310
  88.7905121 175.2414093  15.4495058  89.5718689 174.8078613  14.8253050
  88.2162094 174.0995178  16.2992516  88.9994431 173.5879517  16.8586674
  87.3551331 174.4751282  16.8520298  87.6165009 173.0167389  15.4512329
  88.4643021 172.2262421  14.6895933  89.5294876 172.4045410  14.6902027
  87.9704971 171.2550507  13.8077669  88.6699371 170.6166840  13.2884588
  86.5587921 171.0946045  13.7083683  86.1168594 170.4039612  13.0054436
  85.7311249 171.9624176  14.4486217  84.6667633 171.8759766  14.2871542
  86.1991806 172.9222412  15.3570929  85.5845108 173.5553589  15.9797745
  87.8010941 175.8351593  14.4186516  86.8564148 176.5819397  14.6766605
  88.0445633 175.4906921  13.1396637  88.7885361 174.8513947  12.8990459
  87.1500015 175.9815216  12.0505695  86.8482513 177.0201263  12.1860647
  87.8393326 175.9500580  10.7221889  88.7194901 176.5890198  10.7939415
  88.1218414 174.9346924  10.4441319  87.0234528 176.5117493   9.5409622
  86.0833664 177.2845764   9.8230476  87.3535156 176.2906952   8.3488855
  85.8753738 175.0963287  11.9562683  85.7235565 173.9961090  11.4096031
  84.8238220 175.6643829  12.5638142  85.0510330 176.5705261  12.9476938
  83.4929276 175.0189362  12.8462849  83.6151428 174.1277161  13.4618216
  82.6009979 176.0137634  13.6717291  81.5544739 175.7130280  13.6221962
  83.0089722 176.0344696  15.1339254  84.0533295 176.3337708  15.2224894
  82.3661652 176.6380615  15.7746954  83.0193787 174.9898682  15.4450178
  82.5641632 177.3276825  13.1590614  82.0233917 177.8810425  13.7273550
  82.6622543 174.5371094  11.5970774  81.7113800 173.7835388  11.6942081
  83.1131210 174.9785156  10.4266405  83.9946976 175.4658051  10.3527012
  82.6377640 174.4479065   9.1710138  81.6030502 174.1133728   9.2455149
  82.6870956 175.5502625   8.1402893  81.9653244 175.3132324   7.3586521
  82.4465103 176.5404358   8.5272722  83.9653320 175.6427307   7.6989703
  84.1242828 176.3844757   7.1106110  83.3227539 173.1214142   8.7176876
  82.7973328 172.5096436   7.7892671  84.3432846 172.6531219   9.4372168
  84.8400574 173.1855621  10.1370974  85.0104065 171.3870697   9.0626955
  85.1293335 171.4657135   7.9820566  86.3164291 171.2429657   9.7908468
  86.1514130 171.4571228  10.8467894  86.7234726 170.2318268   9.7872543
  87.4276657 172.1880493   9.2226524  87.1095657 173.2183228   9.3821144
  88.7489166 172.0642242  10.0033760  89.3185883 171.1426697   9.8837032
  89.3894806 172.9179688   9.7822380  88.4726028 172.0475311  11.0576372
  87.6874313 171.8565063   7.7477918  86.8269196 172.1225281   7.1339059
  88.5426865 172.4535370   7.4312363  87.9934845 170.8143005   7.6570377
  84.1441193 170.1264191   9.1777306  84.2836075 169.2364502   8.3213711
  83.2397461 169.9608765  10.1725903  83.0994873 170.6847076  11.4219818
  82.3598251 171.4764404  11.3030033  84.0247116 171.1305847  11.7870102
  82.5603180 169.6078949  12.4276352  82.1642532 170.1191254  13.3050632
  83.3618011 168.9098053  12.6693115  81.5615768 168.8411560  11.5170460
  80.5694962 169.2814484  11.4168615  81.5445709 167.8106079  11.8716631
  82.1738358 168.9101410  10.1231728  82.7588272 167.9941254  10.0407486
  81.1083908 169.0233307   8.9852037  80.7043762 168.0155792   8.5036125
  80.6632767 170.2236176   8.6475821  81.2205887 171.0156250   8.9343081
  79.5121231 170.5045776   7.7670627  78.7829666 169.7305298   8.0064411
  78.7946701 171.8335724   8.0198793  78.0015259 171.9791412   7.2865081
  78.0175400 171.7781219   9.3680096  78.8040543 171.8191223  10.1215467
  77.2370148 172.5338135   9.2795887  77.5034866 170.8247070   9.4899025
  79.6320419 172.9970398   7.9866529  80.3668594 172.7946167   7.4029865
  79.8246307 170.3523407   6.2607322  79.0108414 170.0725403   5.4107203
  81.1833572 170.3270721   5.9282589  81.9285202 170.4878235   6.5908175
  81.6956406 169.8752136   4.6508965  80.9241714 170.1662750   3.9380026
  82.9529877 170.5818481   4.1805038  83.3349380 170.1725769   3.2452357
  82.6687622 171.6152954   3.9822786  83.9391174 170.5217285   5.1807513
  84.5514297 171.2405701   5.0077295  81.9300690 168.3608093   4.5921211
  82.1859207 167.8882141   3.4367464  81.8216248 167.6095886   5.7049451
  81.5390244 168.1063690   6.5376768  81.9089737 166.1284790   5.7092113
  82.0153961 165.8649750   6.7615175  80.5783386 165.4763947   5.2753530
  80.3389587 165.8573914   4.2825589  80.7515411 164.4021149   5.2117767
  79.5187531 165.7574768   6.3552184  79.4736862 165.0748444   7.5270228
  78.4649124 165.5987549   8.1577158  78.0634613 165.1707153   9.0643663
  77.8864288 166.6302795   7.5258322  77.1002502 167.1716309   7.8559356
  78.5532913 166.7435303   6.3172526  78.2043610 167.3033447   5.4621124
  83.1998291 165.5356445   5.0967751  83.2018433 164.4391937   4.5348639
  84.3721619 166.2213745   5.1933413  84.4289246 167.0560455   5.7592154
  85.6613770 165.8720551   4.4916129  85.4966583 166.1563263   3.4523079
  86.8237534 166.6844482   5.0272832  86.8658752 166.5780945   6.1112642
  87.7166519 166.1878967   4.6474404  86.7750549 168.1387634   4.6415701
  86.7997284 168.1841431   3.5527942  85.7997437 168.4817047   4.9868956
  87.9828720 169.2889709   5.3526320  89.5006485 168.5164795   4.7271070
  89.4185562 168.3659058   3.6506832  90.3359070 169.2046509   4.8570271
  89.6363602 167.5849915   5.2766676  86.0137329 164.3986511   4.5987325
  86.5285263 163.8656311   3.5758135  85.7680206 163.7554779   5.7522569
  85.0670242 164.2050781   6.3237200  86.0969925 162.3407593   5.9312491
  87.1798782 162.2371979   5.8624582  85.7519073 161.9288940   7.3549919
  86.2130508 160.9703369   7.5929494  86.1710739 162.6835785   8.0204592
  84.2060318 161.9289398   7.5089326  83.5595856 163.1574707   7.8752165
  84.1414795 164.0531464   8.0351086  82.1603622 163.1173401   7.9422593
  81.6848755 163.9932556   8.3582830  81.3840256 161.9736786   7.6095595
  80.0571060 161.8751984   7.7601213  79.6591415 162.7301483   7.5804496
  82.0906906 160.7652893   7.3913774  81.5660095 159.8224030   7.3456979
  83.4754791 160.7260132   7.2366991  84.0344315 159.8267822   7.0237203
  85.4599075 161.4055023   4.8975163  85.9929733 160.3002930   4.7587342
  84.4146271 161.7496033   4.1392832  84.0594406 162.6907196   4.2299457
  83.7257385 160.9455261   3.1529036  83.7803192 159.8847961   3.3978124
  82.2588425 161.3642731   3.1962335  81.9647598 161.3975067   4.2452855
  82.2134171 162.3765106   2.7944672  81.2099380 160.4361115   2.4833837
  81.5144653 160.1564941   1.4748353  80.8803711 159.1402283   3.2743392
  80.0844345 159.3724518   3.9819205  80.3800659 158.4470062   2.5981538
  81.7876587 158.7696075   3.7513726  79.8602371 161.1912994   2.3379140
  80.0706406 162.0303040   1.6746566  79.1298599 160.5411835   1.8562449
  79.4765701 161.5830231   3.2799635  84.3412552 161.0705872   1.7243044
  84.0776138 160.2534180   0.8316623  85.1511459 162.0950623   1.5274520
  85.4425812 162.6666412   2.3074884  85.9284973 162.2767181   0.2565522
  86.9900894 162.0556183   0.3671148  85.5712509 161.6275940  -0.5428985
  85.8075256 163.6998138  -0.3260032  84.7036896 164.2744141  -0.2900470
  86.8901749 164.2407684  -0.8820512  87.7477036 163.7073517  -0.8673746
  86.8887863 165.4705811  -1.7271971  86.1973495 166.1903534  -1.2890927
  88.2998047 166.0621643  -1.5427396  88.3523560 167.0108643  -2.0768831
  88.5576935 166.2434845  -0.4993245  89.1722412 165.1016235  -2.1344149
  89.9616394 165.5419922  -2.4577425  86.6106567 165.1776276  -3.2296193
  86.5823898 164.0022583  -3.6421866  86.3211517 166.1786499  -4.0236492
  86.4379730 167.1251831  -3.6911633  85.8881607 165.9549408  -5.3756146
  85.5199280 166.9191589  -5.7260404  87.1189651 165.4781952  -6.2315474
  87.9436188 166.0909271  -5.8673792  87.4160461 164.4513702  -6.0182934
  87.0784378 165.7605133  -7.7803917  86.1678619 166.3946686  -8.3245754
  87.9906693 165.1955414  -8.4489126  84.6382599 165.0116577  -5.5722218
  84.7825470 163.9407196  -6.1736135  83.4283829 165.3946381  -5.0669403
  83.3145676 166.2106781  -4.4827833  82.1577911 164.7240753  -5.3878675
  82.3196716 163.7824097  -5.9124484  81.3601990 164.5045166  -4.0718498
  81.2823715 165.4728241  -3.5774446  80.3630371 164.1345520  -4.3103986
  82.1153412 163.4439087  -3.2257583  82.2420197 162.5303497  -3.8066649
  83.0965500 163.8699341  -3.0163877  81.4661331 163.0508118  -1.5999092
  80.0026474 162.1173096  -1.9814899  80.2606354 161.3827057  -2.7443066
  79.6267242 161.6728516  -1.0599504  79.2011414 162.7681427  -2.3309636
  81.3937683 165.6279297  -6.3764515  81.5625458 166.8241272  -6.4722438
  80.4985123 165.0765381  -7.1815310  80.1765213 164.1254425  -7.0726838
  79.6442719 165.8827667  -8.0997458  80.2451477 166.6753845  -8.5456285
  79.1443024 164.9006958  -9.2273512  79.9760437 164.4407654  -9.7610016
  78.7143097 164.0361023  -8.7216778  78.1550827 165.3664398 -10.3013830
  77.2455597 165.7021332  -9.8032074  78.5215378 166.2521210 -10.8204069
  77.8396072 164.2388000 -11.3020592  77.6197739 163.0629120 -10.8911324
  77.7291718 164.5391083 -12.5279980  78.4693985 166.5704041  -7.3981838
  77.5062485 165.8771515  -7.1093869  78.4844284 167.9296265  -7.2029052
  79.3162613 168.3708344  -7.5682797  77.4081268 168.6796112  -6.6192150
  76.9394073 168.2092438  -5.7548399  77.8775101 170.0614624  -6.2227397
  78.4054184 170.5464935  -7.0438104  77.0265884 170.7099457  -6.0141807
  78.8651962 170.0664520  -4.9812646  78.3678894 169.6223145  -4.1189785
  79.8120422 169.6122589  -5.2733192  79.1514893 171.5384369  -4.5196342
  78.6272278 172.5163422  -5.2006702  79.8955383 171.7797089  -3.5270350
  76.3286972 168.9134979  -7.6301403  76.5643768 169.1390381  -8.8230572
  75.0501022 168.8108368  -7.2344532  75.0636978 168.7032471  -6.2302918
  73.7724304 169.1144562  -7.9376764  73.9395905 169.1668549  -9.0135117
  72.7276993 167.9946136  -7.5904126  72.6349487 167.9684753  -6.5046792
  71.7960663 168.3399963  -8.0385971  73.0777664 166.6431732  -8.2127285
  72.9191895 166.3796234  -9.6070108  72.6009064 167.1317749 -10.3136530
  73.1164856 165.0522614 -10.1071920  72.9150162 164.8299255 -11.1446800
  73.5450897 164.0784302  -9.2353134  73.7541122 163.0661163  -9.5482225
  73.5945282 164.3192139  -7.8373671  73.8198471 163.5406036  -7.1236506
  73.3983154 165.6080475  -7.3345790  73.3514328 165.7049103  -6.2599525
  73.2966614 170.5048981  -7.4730663  73.6092148 171.0212097  -6.3826990
  72.4269714 171.1457367  -8.2404499  72.1883698 170.7162170  -9.1228800
  71.9432068 172.5872345  -8.1009693  72.2023544 172.9692078  -7.1135254
  72.5899200 173.5025787  -9.1642609  72.2789001 174.5351715  -9.0058527
  73.6586456 173.5306702  -8.9517908  72.5036163 173.0098267 -10.6068583
  73.2389526 171.9188995 -11.0930824  73.0120773 171.9064026 -12.4157410
  73.3614502 171.1203766 -13.0687962  72.2060699 172.8991852 -12.7852716
  71.8561020 172.9984589 -13.7274866  71.8984146 173.6708221 -11.6704550
  71.3218536 174.5812225 -11.5986433  70.3934021 172.7325134  -8.1658020
  69.7880478 173.4874878  -7.3671737  69.7404633 172.0031586  -9.0440464
  70.2545547 171.4398804  -9.7062721  68.2493439 171.9089661  -9.1534815
  67.8338242 172.9073944  -9.2898188  68.0086975 171.3614349 -10.0647402
  67.6243591 171.2620392  -7.9439750  68.3189011 170.5119629  -7.2383447
  66.3474274 171.5585785  -7.6224251  65.7758484 172.1714020  -8.1861973
  65.5691376 171.0666351  -6.4232225  66.1525345 170.3602600  -5.8326435
  65.3000717 172.3094482  -5.5127988  64.6593552 173.0236664  -6.0299950
  64.8653183 171.9433899  -4.5827017  66.5414200 173.1229095  -5.0938616
  66.9629211 173.4613647  -6.0403767  66.2778473 173.9559174  -4.4421358
  67.6182022 172.2344818  -4.3558054  67.1187744 171.6895447  -3.5547376
  68.0107193 171.5529480  -5.1104980  68.7781906 172.9770050  -3.8677161
  69.6708145 172.6752014  -4.2313704  68.7220917 173.8748322  -2.8903461
  67.7171326 174.2470551  -2.1637638  66.7761765 173.9364166  -2.3591979
  67.8150177 174.9435577  -1.4389049  69.8182678 174.5516510  -2.5935073
  70.6759415 174.5021057  -3.1245871  69.8913269 175.1998138  -1.8223696
  64.1871643 170.3879089  -6.6594596  63.4176788 170.7944183  -7.4808831
  63.8129730 169.3774567  -5.8844976  64.4052353 169.1167145  -5.1090379
  62.5051422 168.7342987  -5.8316040  61.9593315 168.9364319  -6.7532001
  62.6845474 167.1772766  -5.8485861  63.2840843 166.8312073  -5.0066295
  61.3564796 166.4234924  -5.7288628  60.6613922 166.5646667  -6.5565228
  61.6084442 165.3701782  -5.6057453  60.8718987 166.6290894  -4.7743950
  63.2808380 166.7694855  -7.0688257  62.8152695 165.9391937  -7.1931591
  61.7278290 169.1811371  -4.5501113  62.1118202 168.7565765  -3.4582000
  60.5866585 169.8979797  -4.7506537  60.3632050 170.2527924  -5.6694994
  59.5327415 170.0211182  -3.7654269  59.7651329 169.3230896  -2.9611626
  59.6338501 171.3893127  -3.0689950  59.5696640 172.1027069  -3.8906119
  58.7198219 171.6465912  -2.5337753  60.8115044 171.6638184  -2.2543395
  61.6968307 171.4288788  -2.8451860  60.9264908 173.1671295  -1.9217592
  60.0744820 173.4067841  -1.2855638  61.8496323 173.2642670  -1.3503786
  60.9363213 173.8825684  -2.7440383  60.9453735 170.8727722  -0.9348921
  61.0754204 169.8319244  -1.2312647  61.8238640 171.2536774  -0.4140538
  60.0782394 171.0162964  -0.2902386  58.1722374 169.7575531  -4.4762821
  57.8370934 170.5817108  -5.3603225  57.6271515 168.6031952  -4.1572886
  58.0890045 168.1426239  -3.3861415  56.2272835 168.1327515  -4.4241815
  56.1192970 168.0982361  -5.5082698  56.0796547 166.7386017  -3.8000593
  56.0801163 166.7581940  -2.7102354  55.0998688 166.3576965  -4.0882039
  57.0207825 165.6889648  -4.2956862  58.1486588 165.3404236  -3.5663960
  58.8101501 164.4101105  -4.3280973  59.6907806 163.8766937  -4.0019693
  58.2206535 164.2847290  -5.5280151  58.4404945 163.5345459  -6.1675506
  57.1012497 165.1702118  -5.5245299  56.4059868 165.2311401  -6.3487234
  55.2784195 169.1127319  -3.8300040  55.5317001 169.8485870  -2.8241405
  54.0271378 169.1348114  -4.3657403  53.7853241 168.4947357  -5.1086640
  52.9529991 169.9217834  -3.9025965  53.2983017 170.9552002  -3.8724205
  51.6884499 169.8821869  -4.8199129  51.4566422 168.8527069  -5.0929523
  50.8340302 170.2838287  -4.2751713  52.0140190 170.7649841  -6.0275669
  52.0476151 172.0193939  -5.8612185  52.0769920 170.2204437  -7.1729908
  52.5361977 169.6077423  -2.4367795  52.4746284 168.4476776  -2.0002699
  52.1180115 170.6351318  -1.6545513  52.0736732 171.5299988  -2.1207776
  51.5929909 170.3380585  -0.3686759  52.3505363 169.8020020   0.2030420
  51.4167213 171.6346283   0.3964160  50.6199875 172.2103271  -0.0746330
  51.0268707 171.3770752   1.3811936  52.7667694 172.3628540   0.6354616
  53.7202492 171.7722473   1.2045211  52.8287048 173.5340729   0.2521962
  50.2681732 169.5187378  -0.3898653  49.4135742 169.7051544  -1.2696066
  50.2452469 168.5641937   0.5357381  51.0280418 168.5040283   1.1711205
  49.3577690 167.4099579   0.6403828  49.7577133 166.7406311   1.4020644
  47.9014397 167.9308929   1.0171214  47.6369667 168.7015686   0.2930880
  47.0800896 167.2149506   0.9869211  47.8871651 168.5149994   2.4453971
  48.4872894 167.8820190   3.3633409  47.3145523 169.6251831   2.6110525
  49.2451324 166.4946442  -0.6115720  48.3448868 165.6822815  -0.7408395
  50.1398506 166.6829987  -1.5783257  50.8860283 167.3618622  -1.5287024
  50.0981064 165.7594299  -2.7002590  49.0742340 165.7323761  -3.0731602
  50.9117622 166.2693634  -3.9068625  50.6501198 165.6244507  -4.7457561
  50.6052284 167.2702942  -4.2106180  52.3221245 166.0930481  -3.8563156
  52.7535400 166.7399139  -3.2932453  50.5261917 164.2857971  -2.3070614
  51.4032211 164.1454468  -1.4414233  49.9437447 163.2576141  -2.9018545
  49.2253151 163.3870850  -3.5998480  50.1502190 161.8676147  -2.5699248
  50.5034180 161.8606873  -1.5387598  48.8098755 161.0263062  -2.7834458
  48.0538330 161.4749603  -2.1390700  48.4482002 160.9175262  -3.8059218
  48.9603233 159.3032684  -2.0959036  48.3993301 158.6371155  -3.1090276
  51.2193794 161.2651367  -3.4582067  51.1072464 161.3787079  -4.6588359
  52.2906227 160.7157440  -2.8670106  52.2506905 160.7727051  -1.8594092
  53.5210686 160.3091431  -3.5346174  53.3151207 160.1689758  -4.5957680
  54.5968056 161.3533020  -3.2277591  54.8093147 161.2656403  -2.1622756
  55.4995270 160.9968567  -3.7238846  54.3260307 162.8392334  -3.5652838
  53.3997612 163.1860962  -3.1072364  55.0352516 163.5615692  -3.1611416
  54.1159859 163.0146179  -5.0808101  54.3280983 162.1923676  -5.9401827
  53.5599594 164.1336060  -5.6013336  53.4310951 164.2769928  -6.5927682
  53.2450905 164.8918762  -5.0131321  53.8680382 158.9113922  -3.0974100
  53.4634590 158.5065918  -2.0391693  54.7596855 158.2013245  -3.8696313
  54.9714890 158.6240692  -4.7621188  55.4146461 156.9693451  -3.4835865
  55.1936188 156.8484497  -2.4231007  54.8069000 155.6722107  -4.1628652
  53.7505722 155.5969696  -3.9047594  54.8285217 155.9013214  -5.7112203
  55.8308182 156.1514435  -6.0589790  54.4590530 155.0223694  -6.2394528
  54.1163864 156.7092438  -5.8792629  55.4899559 154.3213043  -3.9280124
  55.2398491 153.9251251  -2.9438453  55.2127838 153.4822235  -4.5661407
  56.5653648 154.3833160  -4.0945959  56.9348335 157.0570221  -3.6748013
  57.4547157 157.5455627  -4.6836824  57.6827202 156.6158752  -2.6561530
  57.2767639 156.2163696  -1.8220650  59.1005478 156.9375153  -2.4656520
  59.5321236 157.1150818  -3.4506958  59.2515411 158.2611847  -1.6510932
  59.0704918 157.9989624  -0.6087125  60.6963272 158.9181061  -1.5843722
  61.0004807 159.3999176  -2.5135927  60.7896423 159.7076416  -0.8387023
  61.4176178 158.1284485  -1.3739601  58.2911987 159.3991089  -2.1400895
  58.4346504 159.4739380  -3.2180142  57.2686501 159.1529999  -1.8538483
  58.3560867 160.8786469  -1.5732100  59.1059036 161.4437561  -2.1268485
  57.4106140 161.3875275  -1.7608514  58.4841423 160.9058685  -0.4911009
  59.9353027 155.8362732  -1.8119023  59.5848122 155.2145538  -0.7919125
  61.1010666 155.5081177  -2.4004192  61.7301903 156.0820770  -3.6031723
  61.8706398 157.1607361  -3.5334203  61.0535545 155.8197021  -4.4164529
  63.0826530 155.4080200  -3.7802346  63.8739166 155.9661713  -3.2797797
  63.3018150 155.0870361  -4.7985883  62.9466095 154.1199493  -2.9921570
  63.8750496 153.7232819  -2.5813715  62.5118752 153.3796997  -3.6638372
  61.9409218 154.4612579  -1.8668923  61.2115631 153.6753540  -1.6707022
  62.7283096 154.9670868  -0.6077818  63.0890198 156.1149445  -0.4873956
  62.9553070 154.0151062   0.2653612  62.5622292 153.1059265   0.0679199
  63.7188263 154.0841675   1.4945428  64.0870590 155.1056824   1.5894547
  62.7630043 153.7306519   2.6882617  62.5174065 152.6688843   2.6675284
  63.5013657 153.8109894   4.0693827  63.6603661 154.8618011   4.3114929
  62.8502846 153.4216156   4.8520579  64.4624634 153.2975922   4.0408678
  61.5295219 154.5416107   2.9052725  60.8700905 154.4096985   2.0474575
  61.0153389 154.1277466   3.7727017  61.8056412 155.5827026   3.0725770
  64.8531189 153.0613556   1.3499798  64.5757523 151.8836670   1.0545925
  66.0854950 153.4938812   1.6370103  66.2985001 154.4598999   1.8408314
  67.1708298 152.5470428   1.7594643  67.2226639 151.9671631   0.8379743
  68.4671326 153.2851562   1.8349525  68.3524551 154.0261383   2.6260848
  69.2127686 152.5125275   2.0224705  68.9377899 154.0317688   0.5681227
  68.1134186 154.5951385   0.1309267  69.9988556 155.0692444   0.9188624
  70.9050140 154.7252502   1.4174935  70.2289810 155.5723877  -0.0202827
  69.5290604 155.7328186   1.6448514  69.6815796 153.0319214  -0.3586212
  69.0776825 152.1257477  -0.4062409  69.8971558 153.4564056  -1.3391563
  70.6322250 152.7267609   0.0787046  66.8762894 151.7065430   3.0667377
  66.7109604 152.2707520   4.1793857  66.8135834 150.3643188   2.9390953
  66.9813080 149.5808868   1.7711329  67.9954071 149.7397003   1.4044147
  66.1447983 149.7859802   1.1030859  67.0088959 148.1264343   2.2015600
  67.9903183 147.6965485   2.4018290  66.4812698 147.6163788   1.3956124
  66.1923218 148.1571960   3.5101750  66.5302963 147.3719788   4.1864200
  65.1312943 148.0624695   3.2792094  66.5263290 149.5203857   4.0866809
  65.5993195 149.9128571   4.5046840  67.6160736 149.5567932   5.2281518
  67.2108307 149.3211670   6.3450274  68.8953094 149.7714081   4.9574766
  69.2440948 149.7926788   4.0098505  69.8899765 149.9497681   6.0698204
  69.5274963 149.3464661   6.9021330  71.2558594 149.4868164   5.6464024
  71.6635590 150.1447601   4.8789406  72.0020294 149.5926056   6.4338932
  71.3547211 148.0304565   5.2138066  70.8817139 147.5191803   4.0096354
  71.2112579 146.1773682   4.0253587  71.0834274 145.4556732   3.2321360
  71.7057953 145.9206390   5.2419553  71.8802795 144.9874573   5.5866451
  71.8930054 147.0375671   5.9567523  72.4174042 147.1412048   6.8951941
  69.8481369 151.3152924   6.7780509  70.7621689 151.5211182   7.6069942
  68.9099121 152.2691345   6.5647521  68.1997986 152.0890503   5.8694720
  68.8515167 153.5629578   7.2372851  69.8137512 153.9261780   7.5982246
  68.4140091 154.6257477   6.2192812  67.4840393 154.3220367   5.7386284
  68.1790390 155.9769592   6.9178414  69.1755600 156.2265167   7.2822261
  67.9873962 156.7630615   6.1874824  67.3972778 155.8992615   7.6734295
  69.4350891 154.7745667   5.0819407  69.4857712 153.8700256   4.4758549
  69.1923599 155.5821686   4.3913088  70.4427567 154.9040680   5.4768381
  67.8880463 153.4208374   8.4382086  66.7552872 153.2092896   8.2360659
  68.3870316 153.5520325   9.6887074  69.3843994 153.5084991   9.8418674
  67.5791626 153.3460999  10.8671751  66.6213837 152.9024811  10.5952272
  68.2799072 152.2674103  11.8246946  69.2966919 152.5961151  12.0396681
  67.7700806 152.2378387  12.7876587  68.2894135 150.9068451  11.1263952
  67.2766190 150.5039673  11.1318579  68.5563965 151.0913696  10.0858307
  69.3447113 149.6003876  11.8274632  69.8366165 148.8788757  10.2635431
  70.4061050 149.6059113   9.6845713  70.5225677 148.0664673  10.5034409
  68.9479828 148.4615479   9.7899847  67.2374649 154.6148376  11.6923170
  66.2805252 154.6026917  12.4740534  68.0705643 155.6480103  11.4896278
  68.7408981 155.6116028  10.7350216  67.8772430 156.9688568  12.1068592
  67.6422424 156.7978058  13.1573915  69.1611252 157.8497620  12.0413980
  68.9093094 158.7695770  12.5692539  70.3256149 157.3108826  12.9773741
  70.7194977 156.3279266  12.7190027  71.2559204 157.8781281  13.0070562
  69.9716415 157.1027069  13.9870577  69.5970078 158.1330109  10.6053553
  68.7217407 158.3036346   9.9785442  70.2474976 159.0076141  10.6025229
  70.0977707 157.2204590  10.2819519  66.6748199 157.7713776  11.5591803
  66.1371078 157.4822083  10.4815845  66.1925125 158.6803436  12.3376331
  66.6238708 158.6764221  13.2508764  65.1930313 159.6533051  11.9700937
  64.4865875 159.1227570  11.3316956  64.4063339 159.9830170  13.2519045
  64.0114212 159.0171356  13.5669107  65.0520096 160.4045410  14.0223112
  63.1425705 160.8541107  12.9067516  63.4189682 161.7184296  12.3028927
  62.4821739 160.2899017  12.2482290  62.1765976 161.4278107  14.3200436
  62.3751907 160.0749359  15.4888391  63.4368935 159.9307556  15.6890745
  61.8938599 160.3609924  16.4240341  61.8493919 159.2221069  15.0595369
  65.8141556 160.9402161  11.4338398  66.7720490 161.4019318  12.0837784
  65.4363861 161.3954773  10.2517462  64.6741562 160.9666138   9.7465963
  65.9161301 162.6380920   9.7152452  66.8982925 162.8648071  10.1300554
  66.1996613 162.5356903   8.1483288  66.5973282 161.5601654   7.8685107
  65.2584457 162.5440216   7.5986443  67.1006622 163.6058807   7.5510364
  66.6878281 164.5839996   7.7979283  68.4951324 163.4248505   8.0099421
  68.8416214 162.4022522   7.8604879  69.1229782 164.1980743   7.5672083
  68.4992676 163.4986267   9.0974398  67.0920944 163.4626617   6.0666122
  66.1138153 163.7475586   5.6794267  67.8083191 164.1422882   5.6048341
  67.2640228 162.4121246   5.8323045  64.9295883 163.7919617  10.0258064
  63.7382660 163.6458740   9.6380548  65.3313980 164.9615021  10.5144072
  66.3061829 165.0771637  10.7521429  64.4914017 166.2085419  10.6128817
  63.4455376 165.9028473  10.6415577  64.7445297 166.9566193  11.9322767
  65.7960358 167.2410889  11.9713202  63.9025841 168.2610474  12.0736265
  62.9458809 168.0339813  11.6032248  63.6786728 168.4964142  13.1140900
  64.4590454 169.0754547  11.6097498  64.4051208 166.0389404  13.0885725
  65.1174622 165.2168121  13.1575575  64.5009918 166.5554962  14.0436087
  63.0358200 165.4105835  13.1939631  62.8754997 164.5461578  12.5496149
  62.9571915 165.0462952  14.2182779  62.1920547 166.0762482  13.0121603
  64.7555771 167.0737610   9.4059019  65.8766403 167.0142212   8.8731890
  63.7711678 167.7307434   8.8207254  62.3479729 167.5962677   8.8954487
  62.0146027 167.9889679   9.8560467  62.0399857 166.5507202   8.8861923
  61.7669678 168.2637024   7.6302772  60.8084488 168.7559052   7.7948017
  61.5353775 167.4580841   6.9335275  62.7971077 169.2382050   7.2050157
  62.6875954 170.1985931   7.7087431  62.7207680 169.4107666   6.1314726
  64.1098557 168.6111603   7.6243515  64.4175873 167.9660797   6.8013930
  65.1710281 169.5842438   7.9551387  65.3935928 169.9519501   9.1359310
  65.9417114 170.0147400   6.9658036  65.7885818 169.6589050   6.0330424
  67.1101837 170.8974609   7.2080636  67.2336426 171.5965118   6.3809075
  66.7731323 171.5076904   8.0459909  68.3855591 170.2183990   7.5987206
  69.4743958 170.7095490   7.2621679  68.2621918 168.9909668   8.1393423
  67.3081284 168.7165680   8.3252773  69.3449478 168.1487732   8.6669321
  69.9945145 168.8105316   9.2398520  68.7715378 167.0463867   9.6159353
  68.1104279 167.5403137  10.3280230  68.2468567 166.2875061   9.0354891
  69.9372330 166.4065704  10.3547468  70.5359879 165.8325195   9.6475906
  70.6279068 167.1407471  10.7695408  69.3694000 165.4524841  11.4270287
  68.1556625 165.2390137  11.6133900  70.2596359 164.7621765  12.1719770
  70.1660690 163.9834442  12.8083143  71.2184906 164.8058014  11.8576593
  70.0852051 167.6082611   7.4572835  69.4867249 167.0073090   6.5622892
  71.4141083 167.5887756   7.5498486  71.8056107 168.0988617   8.3287144
  72.3650055 167.0310364   6.5376353  71.7935028 167.1597748   5.6184454
  73.7451324 167.7863922   6.4578676  74.1581192 167.6364594   7.4553971
  74.7557144 167.3104248   5.3996825  74.1895905 167.2240906   4.4722352
  75.5869598 168.0122986   5.3325195  75.1766357 166.3322144   5.6321039
  73.5735550 169.1993103   6.2917247  74.3969879 169.6907806   6.3366671
  72.5009689 165.5396271   6.8393259  72.4555283 165.1558380   8.0088072
  72.7561111 164.6033936   5.8808069  72.5445023 164.8977966   4.9381285
  72.8706055 163.1684875   6.0176950  73.0629349 163.0593567   7.0850286
  71.4470520 162.6219940   5.7221313  70.6878357 163.0525055   6.3750811
  71.1778564 162.8867188   4.6996102  71.3721466 161.0747681   5.8017488
  72.1157227 160.6564636   5.1233573  71.7858124 160.4985809   7.1601453
  71.1901855 160.9753418   7.9386244  71.5457458 159.4383392   7.2400246
  72.8519516 160.6203461   7.3515224  69.9734650 160.5679779   5.3827782
  69.6535492 160.9936829   4.4317064  69.9723206 159.4902191   5.2199345
  69.2095032 160.9094696   6.0812387  74.0051804 162.5768890   5.0365686
  73.7512360 162.4518890   3.8268743  75.1496582 162.3005676   5.5119858
  75.5735245 162.6307831   6.8802476  74.9836578 162.1775360   7.6769404
  75.5477371 163.7175751   6.9598722  77.0803986 162.1641846   6.9908423
  77.1810303 161.2194366   7.5251069  77.6917267 162.9129639   7.4945183
  77.5563889 162.0267181   5.5839939  78.2980194 161.2510529   5.3931088
  77.9243546 162.9421082   5.1205916  76.2489014 161.6611023   4.8019986
  76.3444901 161.9886169   3.7667665  75.9678574 160.1753540   4.7914052
  75.4833984 159.6368713   5.7872343  76.2158051 159.4684906   3.7143364
  76.5627747 159.8993073   2.8692853  76.1374512 157.9886322   3.6385715
  76.1409149 157.5385590   4.6313076  74.6904144 157.6253815   3.1226895
  74.7820358 158.1086426   2.1499803  74.5911636 156.5447540   3.0202799
  73.3946533 158.1109467   3.8164358  73.4689026 159.1903076   3.9490099
  72.1609879 157.8100433   2.9290209  72.1959229 156.7778625   2.5804856
  71.3180542 157.9665527   3.6021247  72.1060486 158.4885864   2.0777509
  73.2102509 157.2693329   5.0888600  73.9991302 157.5037384   5.8035865
  72.2234039 157.4453888   5.5169291  73.2839050 156.2086945   4.8486071
  77.1935272 157.3843689   2.7442381  77.7016144 158.0086060   1.7876186
  77.5499115 156.0914154   3.0263574  77.2733383 155.8011169   3.9533598
  78.3159943 155.2105713   2.1418147  78.3485870 155.6652679   1.1517197
  79.7416687 155.0546875   2.7549446  80.2394333 156.0238495   2.7223685
  79.5784683 154.7041626   3.7740626  80.6810455 154.0560150   2.0620747
  80.2015610 153.0778351   2.0992706  80.7962112 154.3212433   1.0111265
  82.1050339 154.0328522   2.5551934  82.5830078 155.0467834   3.0777700
  82.8322754 152.9388580   2.3148689  83.8222504 152.9600525   2.5138614
  82.3855515 152.0751801   2.0417223  77.4934998 153.9223633   1.9329683
  77.1281662 153.2400665   2.8993390  77.2244949 153.5223236   0.6581300
  77.5447311 154.1178741  -0.0921091  76.3442078 152.4591522   0.3432496
  75.9908524 151.9148102   1.2190039  75.0676956 152.9306793  -0.4223994
  75.3190079 153.1665649  -1.4564704  74.4301834 152.0492706  -0.4915744
  74.2511902 154.1513519   0.0831203  74.9165344 155.0144501   0.0615345
  73.0862503 154.5460052  -0.8666782  72.3704834 153.7570953  -1.0977657
  72.5387955 155.4016113  -0.4713120  73.6215744 154.7888794  -1.7845801
  73.6554489 153.9412842   1.4744709  74.5217972 153.6696625   2.0775974
  73.3051834 154.8823395   1.8985394  73.0601425 153.0297852   1.5283611
  77.1941681 151.4908142  -0.4983161  77.6269684 151.8114319  -1.6206808
  77.4499969 150.2818604   0.0733102  77.2389603 150.2015533   1.0577503
  78.2538376 149.1878967  -0.4758877  78.7205734 149.5009308  -1.4098386
  79.3559647 148.8211823   0.5826684  79.9684219 147.9685516   0.2893639
  80.0631561 149.6279907   0.7751260  78.7985764 148.4448395   2.0318277
  78.4166870 149.4480133   2.9329612  78.6055756 150.4719238   2.6460633
  77.6591034 149.0807037   4.0850034  77.2594376 149.8882141   4.6804867
  77.5398712 147.7503204   4.4362884  77.0630722 147.4488068   5.3572407
  77.9779510 146.7523956   3.5516076  77.6213226 145.7668610   3.8122540
  78.5037308 147.1256256   2.3314679  78.6933517 146.3198547   1.6377978
  77.3694077 147.8891602  -0.8464120  77.8612518 147.0515747  -1.5974183
  76.1579895 147.7646637  -0.3004432  75.9049072 148.3675079   0.4693893
  75.2213058 146.6638489  -0.5921407  75.7829361 145.7382507  -0.4657494
  74.1393738 146.5029144   0.5063041  73.7429123 147.4840698   0.7675386
  73.2935333 145.9431763   0.1071297  74.6903992 145.7418518   1.6934010
  74.8927078 144.3299103   1.5763007  75.0465240 143.9123230   2.8587627
  75.3127365 142.8975372   3.1151736  75.0289230 144.9903717   3.6939812
  75.1406097 145.0471039   4.6961827  74.6112213 146.0952911   2.9862096
  74.2032242 147.0154114   3.3777807  74.6425323 146.7628937  -2.0559435
  74.3800964 147.9088745  -2.4553957  74.5417786 145.6105042  -2.8426604
  74.5549622 144.2231598  -2.3723519  74.0932922 144.0523376  -1.3998374
  75.5907364 143.8851166  -2.3408854  73.8631973 143.3423462  -3.4586165
  72.8099594 143.2312469  -3.2008581  74.4789734 142.4432678  -3.4345424
  74.0036469 144.2274628  -4.7264314  73.1978302 144.1392975  -5.4551177
  74.8898926 143.9439087  -5.2941184  74.1750259 145.7034149  -4.2739692
  74.9502792 146.1083221  -4.9244628  72.9176712 146.5238953  -4.4953375
  72.8476486 147.4248810  -5.3622413  71.8284073 146.2635498  -3.7741764
  71.8924408 145.4907379  -3.1270721  70.4645767 146.8695984  -3.9078581
  70.2896957 146.8004150  -4.9815121  69.3686371 146.0377350  -3.0936468
  68.3847885 146.3289032  -3.4615624  69.4421768 144.9976959  -3.4114785
  69.2898560 146.0711975  -1.5697322  69.5029526 147.1143646  -1.3363210
  68.3166962 145.7478638  -1.2002375  70.3795319 145.2210846  -0.8545883
  71.4659271 144.9803772  -1.3203228  70.0379105 144.7266693   0.3258751
  70.6827621 144.1090088   0.7978373  69.0897827 144.8776398   0.6395160
  70.5769272 148.3295593  -3.5365677  69.9304657 149.1689148  -4.1476836
  71.3626328 148.7101288  -2.5075288  71.9329529 148.0649261  -1.9797662
  71.5028381 150.1264038  -2.1372335  70.5311813 150.6009979  -2.0003169
  72.2715836 150.2891846  -0.8363611  73.2651672 149.8424530  -0.8726422
  72.3342056 151.3708954  -0.7176747  71.5169220 149.8148651   0.4244079
  70.4740829 150.1313324   0.4451148  71.4936829 148.7254333   0.3977449
  72.2268448 150.2906342   1.6941137  73.4028244 149.9418335   1.8672982
  71.5967331 150.9965363   2.5022254  72.2028732 150.9554291  -3.2095015
  71.8226013 152.0634766  -3.4554749  73.1920166 150.3893127  -3.8843148
  73.5708771 149.5139618  -3.5521650  73.8884888 150.9701385  -5.0532484
  74.3053207 151.9389496  -4.7779942  75.0377808 150.0390930  -5.5576701
  74.7520142 148.9881744  -5.6026220  75.6210861 150.5129700  -6.8907094
  75.8013306 151.5874939  -6.8587656  76.5633774 150.0221405  -7.1341953
  74.9652405 150.2938995  -7.7333064  76.1539307 150.1963501  -4.3914394
  75.8666229 149.8578949  -3.3959479  77.0431061 149.6230011  -4.6536264
  76.4502640 151.2412415  -4.2993569  72.8477859 151.1662903  -6.2256293
  72.6715546 152.2691498  -6.6952004  72.1495895 150.1001892  -6.6372800
  72.3230667 149.2299347  -6.1549363  71.1684494 150.0507660  -7.7130470
  71.6672211 150.3772430  -8.6255922  70.6074677 148.6549225  -7.9364791
  71.4580612 147.9794464  -8.0276957  70.1484222 148.2770538  -7.0229130
  69.8994446 148.6096344  -9.1782875  69.2773209 147.8794250  -9.2151985
  70.0889130 151.1054077  -7.5345993  69.8860016 151.9788208  -8.3728104
  69.4327087 151.1343384  -6.3747392  69.6312180 150.4409637  -5.6676884
  68.3587570 152.0791626  -6.1312156  67.5414124 151.9327393  -6.8373427
  67.8145676 151.8289948  -4.7478857  67.6552963 150.7507935  -4.7323160
  68.4828491 152.1449127  -3.9468262  66.4001846 152.4072876  -4.4548330
  65.7041550 151.9725037  -5.1721907  66.1358109 152.0347595  -3.4651754
  66.2480469 154.2039032  -4.4750943  67.1820450 154.7044067  -3.0881031
  68.2250824 154.3904419  -3.1281641  67.1030731 155.7861328  -2.9797823
  66.7040329 154.1943359  -2.2517815  68.8217697 153.5599060  -6.2929530
  68.2844620 154.3217468  -7.0928679  69.8873749 154.0238037  -5.6207514
  70.4331360 153.3401489  -5.1159220  70.3640213 155.3894958  -5.8146133
  69.4680099 155.9909363  -5.6612420  71.4499664 155.8071442  -4.8358140
  71.7747269 156.8317261  -5.0171418  70.9694824 155.7643127  -3.4060881
  70.7977982 154.7140503  -3.1703491  71.6325760 156.3114319  -2.7359653
  69.9842300 156.2290955  -3.3692794  72.6998215 154.9287872  -5.0149531
  73.1141739 155.0742035  -6.0125794  73.4550171 155.2122040  -4.2818427
  72.5279465 153.8621674  -4.8704586  70.8001633 155.7251282  -7.2345295
  70.5855026 156.8782654  -7.6895356  71.4012985 154.7718811  -7.9379196
  71.5038834 153.8590088  -7.5181389  71.8944778 154.9451141  -9.3696251
  72.4655762 155.8720093  -9.4229002  72.7441101 153.7355652  -9.8484726
  73.5277252 153.6174164  -9.1000853  72.0952988 152.8681335  -9.9697189
  73.4849472 154.0295563 -11.1128635  72.9325867 154.5312653 -11.9074039
  74.2672806 154.7497559 -10.8733358  74.1920700 152.7901764 -11.7068529
  73.4424133 152.0039368 -11.7959690  74.4954681 153.0302887 -12.7258701
  75.4050827 152.4209442 -10.8986044  75.9517670 153.1761475 -10.5101271
  76.0039825 151.2410431 -10.8134136  75.5954056 150.2076874 -11.4747620
  74.8152313 150.4221802 -12.0792665  76.2590485 149.4528503 -11.5741825
  77.0971756 151.1379700 -10.1260185  77.5209656 152.0081482  -9.8374290
  77.5107880 150.2170258 -10.0962248  70.6392593 155.2510071 -10.2425070
  70.5694199 156.2971191 -10.8817587  69.6186676 154.4473572 -10.0893669
  69.7922287 153.6922607  -9.4414425  68.3716736 154.4002991 -10.8401833
  68.4971848 154.4325867 -11.9224510  67.6201096 153.0067749 -10.4892483
  67.3902206 153.0474243  -9.4245415  66.6491394 152.9532776 -10.9816418
  68.3818130 151.7145691 -10.8831587  69.3793640 151.6646729 -11.5956373
  67.9695511 150.5203552 -10.4281492  68.5694351 149.7288055 -10.6116810
  67.1422195 150.4129028  -9.8588800  67.4125595 155.5483246 -10.5423279
  66.5979843 155.8919067 -11.4372330  67.5383530 156.1713562  -9.3614016
  68.0998383 155.6924133  -8.6718721  66.8747101 157.4501953  -8.9739056
  65.8463211 157.4874420  -9.3332329  66.6973038 157.4382782  -7.4172463
  66.0970078 156.5642395  -7.1646810  67.6834335 157.3251495  -6.9668560
  66.1402359 158.6338043  -6.6750011  66.7797394 159.4811859  -6.9221702
  64.7346497 159.0027618  -7.2003508  64.0859222 158.1400452  -7.0487618
  64.2610321 159.8198242  -6.6561251  64.8866501 159.2892151  -8.2409954
  66.1828537 158.3563385  -5.1962771  67.2059021 158.3488922  -4.8202085
  65.7269058 159.1807861  -4.6481004  65.5781708 157.4844208  -4.9468436
  67.6571579 158.6731415  -9.5228348  66.9835968 159.6278839  -9.9172945
  69.0178528 158.7083435  -9.5080452  69.4495697 157.8708344  -9.1443348
  69.8585663 159.9191132  -9.7117081  69.4507828 160.6924744  -9.0607729
  71.3208466 159.6842346  -9.2467775  71.3510895 158.9137573  -8.4763441
  72.3519745 159.2712402 -10.3735056  72.4107666 160.1507874 -11.0146255
  73.3294830 159.1156921  -9.9170237  71.9525299 158.4337006 -10.9454241
  72.0331116 160.8495941  -8.5019674  73.0845947 160.5933838  -8.3722372
  71.9616852 161.7877197  -9.0523729  71.5255814 161.0028687  -7.0831370
  71.9594269 160.2697754  -6.4031034  71.9348984 161.9656677  -6.7772331
  70.4437866 160.8733978  -7.0505524  69.7946396 160.4629974 -11.1478014
  70.0303040 161.6546936 -11.3240328  69.4232635 159.6844788 -12.1368876
  69.4823608 158.6916656 -11.9609518  69.1344757 160.1573334 -13.5091267
  69.9605103 160.8136597 -13.7830162  69.1341782 158.9549103 -14.4867163
  68.6984787 158.1177673 -13.9413319  68.4416656 159.1519623 -15.3050737
  70.4693756 158.6082153 -15.1150055  70.2864456 157.7286072 -15.7322035
  70.6811905 159.4137115 -15.8181438  71.6251526 158.5032349 -14.1438284
  72.4737320 159.3753204 -14.0012856  71.7651978 157.4541779 -13.4205694
  72.5529251 157.4502411 -12.7884531  71.1497421 156.6808777 -13.6286926
  67.7701263 160.9392090 -13.5802135  67.4642410 161.6375427 -14.5601511
  66.9573517 160.7871094 -12.5210590  67.3854218 160.2641449 -11.7704792
  65.6479950 161.4201660 -12.2495155  65.5036392 162.1491699 -13.0468960
  64.4091415 160.5548706 -12.5487976  63.5562630 161.2159882 -12.3951254
  64.4388275 160.2552338 -13.5963831  64.3850861 159.2462463 -11.6900492
  65.2457275 158.6479950 -11.9892225  64.4698486 159.5892639 -10.6589088
  63.0360146 158.5518341 -11.8983679  62.8313942 157.8893127 -11.0573521
  62.1902122 159.2393799 -11.9007959  62.9308319 157.7175598 -13.2099714
  62.6693878 158.3038940 -14.0908546  63.8652344 157.1619415 -13.2891769
  61.7792854 156.7066650 -13.0990925  60.8933144 157.1896820 -13.1420841
  61.8309364 156.0651093 -13.8774519  61.8271866 156.1107635 -12.2850266
  65.5657120 162.3270874 -11.0007420  66.4164734 163.2277679 -10.9019852
  64.5679398 162.1488342 -10.1770601  64.0271072 161.3176880 -10.3688412
  64.1536407 162.9891663  -9.0400724  64.0985413 163.9759979  -9.4996662
  62.8182259 162.5377655  -8.4552145  62.4355011 161.7433472  -9.0959234
  63.0048141 162.0972290  -7.4758258  61.7078362 163.6107025  -8.4159622
  61.9936523 164.7553864  -8.3260546  60.5273361 163.3102112  -8.5696945
  65.1483459 163.1461945  -7.8560801  64.9280396 164.0555420  -7.0128961
  66.1920624 162.3045807  -7.6980925  66.3543777 161.6583099  -8.4570961
  67.1189270 162.3253632  -6.5581260  67.7995529 161.4788208  -6.6487536
  68.0729675 163.5339355  -6.4740415  67.4939575 164.4557495  -6.4183969
  68.6356583 163.4729462  -5.5425062  68.9466705 163.4679260  -7.7872720
  69.5033035 162.5318451  -7.8321290  68.3731689 163.4556427  -8.7141228
  70.0160370 164.5046844  -8.0129309  70.7007446 164.5285339  -7.1651626
  70.6294708 164.1322937  -8.8333769  69.4443359 165.8449860  -8.3878078
  69.4713211 166.0197601  -9.3822041  68.9936600 166.7028046  -7.5534272
  69.1548843 166.6985931  -6.2335439  69.6096878 165.9721527  -5.6991863
  68.7049484 167.4269257  -5.6976361  68.2910385 167.7471313  -7.9722424
  68.0243835 167.8105774  -8.9443369  67.9756622 168.4365997  -7.3049560
  66.5004120 162.1551208  -5.0936060  67.2467270 161.8464355  -4.1550879
  65.2073746 162.4166107  -4.8289714  64.7694016 162.8807831  -5.6118088
  64.5061340 162.1939087  -3.5684543  65.1571121 162.6121674  -2.8007336
  63.1873856 162.9942017  -3.4562838  62.5496063 162.6409149  -2.6460116
  63.3981171 164.4843750  -3.3078568  63.7473602 164.9009857  -4.2526159
  62.3642578 164.8281250  -3.3407516  63.9152145 164.7260437  -2.3792503
  62.4477348 162.8170319  -4.6522026  61.9748077 161.9846497  -4.7234726
  64.2884216 160.7100677  -3.2029111  63.5462418 159.9493408  -3.8060353
  64.8721085 160.2666473  -2.0779378  65.4698410 160.9457550  -1.6289299
  64.4327316 159.0668640  -1.3484044  63.6619759 158.4967957  -1.8671073
  65.6963196 158.1591797  -1.2914805  65.3810654 157.1681824  -0.9649224
  66.1427383 158.0713043  -2.2819767  66.6451950 158.5252686  -0.1958245
  67.7778854 159.3869476  -0.4815179  67.7616806 159.7877808  -1.4842451
  68.7722015 159.5968933   0.4418001  69.6727219 160.0954742   0.1148859
  68.6875687 159.0125885   1.7574675  69.5000305 159.0931091   2.4644594
  67.5525589 158.2054901   2.0640688  67.5882339 157.6024628   2.9593256
  66.6010742 157.9187317   1.0851899  65.8579788 157.1902008   1.3740991
  63.7340126 159.5232544  -0.0781393  63.4639282 160.6973877   0.1290031
  63.3080673 158.5478058   0.7474091  63.5123024 157.6112671   0.4291498
  62.8078117 158.8371124   2.0719907  63.0031281 159.8756409   2.3392329
  61.2731400 158.6397095   2.0837679  61.1117363 157.7267914   1.5105056
  60.7810898 158.4412231   3.0359190  60.8164024 159.4812317   1.5628667
  63.5894585 158.0873718   3.2045083  64.0869217 157.0061035   3.0989051
  63.4443207 158.7457123   4.3796263  63.0154915 159.6519165   4.5020232
  63.8458557 158.1438751   5.6860008  64.3166885 157.2028656   5.4015446
  64.9445953 159.0347137   6.3758750  64.5253601 160.0362244   6.4723639
  65.2522354 158.3488007   7.7804003  65.1532974 157.2633057   7.7757139
  66.2584000 158.5920410   8.1218204  64.5584869 158.7329712   8.5282049
  66.2109222 159.0591888   5.5033307  66.0575638 159.8114471   4.7295747
  67.0834656 159.4753876   6.0068645  66.4404144 158.0701599   5.1068048
  62.6016464 158.0636749   6.5547366  61.9921913 159.0918884   6.8251295
  62.1919823 156.8507385   7.0199718  62.7195129 156.0598755   6.6788783
  61.0585480 156.7050934   7.9741888  60.2744675 157.4420624   7.8004065
  60.4313507 155.3013000   7.8411164  61.1543922 154.5523071   8.1640863
  59.6192398 155.2633820   8.5671635  59.9283447 154.8393707   6.4269595
  60.6350365 155.0077057   5.6143422  59.5020828 153.3405914   6.4466486
  58.7685890 153.0213165   7.1870127  59.1643715 153.0310059   5.4576073
  60.3533707 152.6812134   6.6158223  58.7262878 155.6476135   5.9978800
  59.0211983 156.5840302   5.5243158  58.1463089 155.1065216   5.2502584
  58.0197372 155.7150879   6.8251314  61.4171181 156.9633942   9.4614801
  62.5376015 156.6455078   9.8705273  60.5054474 157.4837341  10.2458506
  59.5740814 157.7117004   9.9285402  60.6602745 157.6162109  11.6785879
  61.7147293 157.7086639  11.9387236  59.9202461 158.8175049  12.2305384
  58.8364372 158.7242737  12.1614952  60.2586327 158.8336029  13.2665577
  60.2606354 159.7366333  11.7536297  60.2150269 156.2944489  12.2919216
  59.0362663 156.0421906  12.5974150  61.1921616 155.3858795  12.3243694
  62.1574478 155.6306458  12.1558256  60.9261589 154.0369720  12.9013166
  60.0988235 153.6649475  12.2969837  62.1021271 153.1173401  12.6556025
  62.9690628 153.5572052  13.1485958  61.9252930 152.1910553  13.2022409
  62.3325233 152.7411194  11.2087364  61.3910141 151.8895721  10.4859447
  60.5409126 151.5311737  11.0474405  61.4562950 151.5937500   9.1084137
  60.6997414 151.0603333   8.5521002  62.5415611 152.1141510   8.4257078
  62.7121582 151.8725891   7.0624218  62.5552788 150.9480743   6.8568735
  63.5097733 152.8687744   9.0676022  64.3571091 153.2179108   8.4961786
  63.4231834 153.2122803  10.4676895  64.1590500 153.8492279  10.9358816
  60.5003090 154.0501709  14.3751650  61.3812599 154.1452637  15.2628145
  59.2005501 154.0181427  14.7058172  58.5286560 153.9569244  13.9542103
  58.5936394 154.0991364  16.0585728  59.1240959 154.8646851  16.6248531
  57.1184502 154.3754120  15.9321642  56.5747414 154.2240601  16.8646717
  56.9586449 155.3875275  15.5604153  56.6286278 153.4500732  14.9072599
  55.7014732 153.2137756  14.9855995  58.8215904 152.7635498  16.8266354
  58.9315910 152.7604523  18.0526657  59.0628204 151.6447296  16.1085491
  58.9899673 151.8187103  15.1163187  59.6601791 150.3542786  16.5543060
  60.2933655 150.5254059  17.4248791  58.4921494 149.5270844  17.0911331
  58.0712090 150.0252533  17.9644775  57.7364960 149.3755188  16.3203430
  58.9472542 148.1416626  17.3829021  59.7818718 147.4541779  16.7287464
  58.5113983 147.5287628  18.4223080  58.8544502 146.5989685  18.6169624
  57.7065086 147.9504852  18.8632259  60.6016617 149.8167572  15.4303284
  60.1069756 149.2353363  14.4599323  61.8973160 149.9725189  15.5934477
  62.2130737 150.1752167  16.5311623  62.8472061 149.6505127  14.5504560
  62.4591141 149.8710480  13.5560484  64.0473709 150.6243896  14.7542791
  63.6880226 151.6470184  14.8691359  64.8232269 150.2335663  16.0578156
  65.1380768 149.1912384  16.0075417  65.7333679 150.8211975  16.1779919
  64.1957245 150.3603821  16.9400063  65.0582199 150.5776520  13.5896702
  64.6489029 151.0000610  12.6719961  65.8301392 151.2790527  13.9063272
  65.5062256 149.6077881  13.3734426  63.1605873 148.1363678  14.4507532
  63.7948914 147.7323761  13.5253677  62.6968727 147.3349304  15.4454718
  62.0541344 147.7712708  16.0909195  62.8049355 145.8888245  15.4932880
  63.7302322 145.6399689  14.9736719  62.9843636 145.4893646  16.9583797
  63.7576027 146.1453094  17.3583050  62.0968056 145.6444244  17.5718155
  63.4682617 144.0384827  17.1250267  62.7106781 143.4706726  16.5848808
  64.5067825 143.9575195  16.8040447  63.5131416 143.6244812  18.6240711
  64.2089081 144.3039093  19.1163998  62.4929199 143.8041229  18.9631519
  63.8248405 142.1591644  18.8439484  64.7682724 141.9264374  19.1193848
  63.0046005 141.1288605  18.7003727  61.7276993 141.2489471  18.4392967
  61.2447739 142.1358185  18.4572811  61.1220894 140.4610748  18.2587509
  63.4352798 139.9017029  19.0162830  64.3758163 139.7280273  19.3408146
  62.7981377 139.1182098  18.9994431  61.6898956 145.1563263  14.6912756
  61.9361305 144.2083282  13.9580364  60.4326973 145.6145630  14.7442017
  60.2255516 146.3054047  15.4512606  59.3877792 145.3181305  13.7817564
  59.5618210 144.2991028  13.4362278  58.0034409 145.3085175  14.4596853
  57.9750824 146.2562714  14.9973526  57.2075424 145.3025513  13.7149658
  57.7860031 144.1891479  15.4812574  58.6745644 144.1813354  16.1125240
  56.9021111 144.2475891  16.1164093  57.7104340 142.8185272  14.7689571
  56.8674812 142.5590363  13.8399849  58.5590134 141.9187927  15.0557108
  59.3628387 146.1257019  12.4858198  58.7517853 145.7548828  11.5116138
  60.1167984 147.2511444  12.4853592  60.5967674 147.4040680  13.3607693
  60.1910477 148.3380127  11.5078745  60.8038864 149.1452332  11.9090471
  60.7929497 147.8256378  10.2085848  60.0852432 147.2498474   9.6121588
  61.0639496 148.6377563   9.5339441  62.0195885 146.9302063  10.3710442
  62.5932350 147.2492828  11.2412310  61.6657219 145.9139709  10.5446100
  62.9213066 147.0071564   9.0978556  63.6228828 146.1731415   9.1149864
  62.3216743 146.9019775   8.1937075  63.6116714 148.3017731   9.0656595
  63.1673355 149.0003662   9.6441393  64.7162323 148.5452118   8.3149853
  65.3512039 147.6707001   7.6187763  65.1112213 146.7029419   7.7798247
  66.0618591 147.9074249   6.9412608  65.2821426 149.7341461   8.3068886
  64.9487000 150.5413513   8.8141766  66.1674118 149.7261047   7.8207378
  58.8344536 149.0558472  11.2450047  58.3663025 149.2747498  10.1031389
  58.1006584 149.2648163  12.2618818  58.4726791 148.9764709  13.1555042
  56.9413872 150.1426086  12.3158216  56.3059769 149.8146362  11.4931479
  56.0780373 149.9880371  13.6409063  56.6323967 150.3153992  14.5204649
  55.2424126 150.6517487  13.4188042  55.6061974 148.5634003  13.9380999
  55.3177414 148.0662689  13.0119514  56.4022789 147.9588776  14.3727388
  54.4732246 148.5475464  14.9461174  54.7319641 148.7389069  16.1818447
  53.3172760 148.2837677  14.4679193  57.3768921 151.5919189  12.1125212
  58.3433342 152.0697937  12.7520390  56.5824928 152.3722687  11.2877636
  55.7921486 151.9604645  10.8125038  56.6563454 153.8713226  11.2920246
  56.9111786 154.3136749  12.2550840  57.8065376 154.2503204  10.3643723
  57.6535034 153.8408356   9.3658733  57.8949928 155.3338470  10.2853985
  58.7548447 153.9181519  10.7868319  55.3660660 154.5701447  10.8090315
  54.6308556 153.9953003  10.0251789  55.0364914 155.7245636  11.3374720
  55.6204834 156.1540070  12.0407791  53.8178101 156.4213409  10.9139948
  53.2439423 155.8024139  10.2242765  52.9750481 156.7542572  12.1670332
  53.6366844 157.3145905  12.8276215  52.0254250 157.2612762  11.9960222
  52.5937920 155.5128174  12.9736385  51.6269264 154.5246124  12.5497484
  51.6506805 153.5620270  13.5008945  51.0813332 152.6484833  13.4132071
  52.3642616 153.9342041  14.5241785  52.5213776 153.3361206  15.3227472
  52.9440651 155.1432037  14.2252245  53.5186729 155.7599792  14.9003677
  54.0642548 157.6780853  10.0349045  53.2067680 158.0712585   9.2116032
  55.2321777 158.3450012  10.1899586  55.7681961 158.1716919  11.0282640
  55.6976738 159.4867554   9.3929024  55.1336365 159.5195007   8.4607582
  55.4868813 160.7504272  10.2878733  56.1784134 160.6570282  11.1252251
  55.7512207 161.7041626   9.8311186  54.0698166 161.0441437  10.7955151
  53.3148422 162.0900879  10.1364546  53.6412849 162.5909424   9.2370176
  52.0538673 162.3976898  10.6895847  51.4854240 163.1949615  10.2339134
  51.6103706 161.8166046  11.8970652  50.6398926 162.0023956  12.3330193
  52.3917351 160.7814636  12.5215397  52.0126114 160.2882080  13.4043522
  53.6349525 160.4437408  11.9882784  54.3084717 159.7732086  12.5012665
  57.1744118 159.4322968   8.9879827  57.8805199 158.4587860   9.2557812
  57.6979752 160.4911346   8.3610058  57.0569763 161.2571259   8.2110643
  59.0960388 160.5258942   8.0054445  59.7064209 160.5416412   8.9083786
  59.4135170 159.6812897   7.3939214  59.4657249 161.8107452   7.2766857
  58.7274055 162.7952271   7.3105350  60.6168823 161.7600555   6.7416587
  60.9995270 160.8258820   6.7102113  61.3393974 162.8665009   6.0386453
  60.5001183 163.5441895   5.8822784  62.3589363 163.5416718   6.9524136
  62.9240417 162.7558136   7.4536085  63.3540421 164.4783936   6.2360411
  62.8766327 165.3522339   5.7926636  64.1397247 164.7572479   6.9382129
  63.8077087 163.9721222   5.3839941  61.6577644 164.3507233   7.8607144
  61.9605904 164.1425171   8.7475920  61.8416748 162.3952332   4.6159120
  62.5369225 161.4015350   4.4566193  61.5258446 163.1498108   3.5474372
  60.9180756 163.9336700   3.7379241  62.1393013 162.9225922   2.1813176
  62.2518158 161.8496552   2.0255213  61.3390732 163.4992523   0.9769987
  61.8527946 163.3424683   0.0285198  59.9458656 162.8977356   0.8165895
  59.3034973 163.4186707   1.5265809  59.5613823 162.9995270  -0.1982571
  59.9588280 161.8298035   1.0344936  61.2493057 164.8886566   1.1744215
  62.1356812 165.2551880   1.2143394  63.5506630 163.4983215   2.1815732
  63.7734871 164.6600494   2.4343860  64.5774078 162.7161560   1.8018119
  64.3680649 161.7327118   1.7064050  65.9501572 163.0809479   1.5958623
  66.0971069 164.0260468   2.1186297  66.8678970 162.0214539   2.2288601
  66.7642593 161.1095886   1.6407610  67.9245529 162.2608032   2.1093090
  66.5729904 161.8712921   3.2674065  66.2191925 163.3869781   0.0801148
  66.0616989 162.4492798  -0.7089268  66.6737747 164.6112518  -0.3015234
  66.8622513 165.3704681   0.3373693  67.1620255 164.8610229  -1.6988890
  66.7242966 164.0745087  -2.3136115  66.6536865 166.2565308  -2.2349725
  65.5838928 166.1858826  -2.4315674  66.7871323 167.0125275  -1.4611720
  67.3578262 166.7724304  -3.5488169  68.4181900 166.8653259  -3.3140771
  67.2126083 166.0372925  -4.3403950  66.8359680 168.0866699  -4.1176519
  65.7475967 168.5654907  -3.6898816  67.5057449 168.5062408  -5.0774531
  68.7042007 164.7128906  -1.6656047  69.3644409 165.1620941  -0.7601307
  69.2154388 163.9515839  -2.6407754  68.5400391 163.4027710  -3.1533446
  70.6860046 163.7300415  -2.7932642  71.1641693 163.7799683  -1.8150150
  71.0963669 162.3861389  -3.4005663  70.5372162 162.3497467  -4.3355155
  72.6519699 162.3842468  -3.7010787  73.2169876 162.4885559  -2.7748070
  72.9555206 161.4570465  -4.1871419  72.8868713 163.1595917  -4.4303064
  70.7454758 161.2060852  -2.5449009  71.3810425 161.1582794  -1.6606666
  69.7096710 161.2618408  -2.2100894  70.8884888 159.7994537  -3.2049994
  71.9072342 159.6212921  -3.5492663  70.6918488 159.0200653  -2.4688003
  70.1582336 159.7680054  -4.0136046  71.2985001 164.9753418  -3.4643717
  71.0936737 165.1351013  -4.7130427  72.1054077 165.7937012  -2.7150683
  72.2415390 165.7271729  -1.7164946  72.8246536 166.9647064  -3.2794178
  72.2701721 167.2408905  -4.1762848  72.8065567 168.2785797  -2.4095733
  73.0538177 169.1283722  -3.0458279  71.7790146 168.4230804  -2.0758476
  73.6688309 168.2703247  -1.1549561  74.8819580 169.0090179  -1.0411626
  75.1900711 169.6703644  -1.8374525  75.6629868 168.9564056   0.1457977
  76.5517349 169.5496674   0.3026021  75.2010193 168.1529999   1.1842592
  75.9180069 168.0728149   2.3141103  76.3992004 168.8793488   2.5130236
  73.9780884 167.4746857   1.0865054  73.6443405 166.8361359   1.8910310
  73.1634903 167.5552673  -0.0442785  72.2014923 167.0651550  -0.0717132
  74.2273865 166.7060089  -3.8439875  74.7451401 167.5869598  -4.5633597
  74.8999023 165.5860748  -3.4575281  74.4774246 165.1179962  -2.6685333
  76.2779160 165.1957245  -3.8872955  76.3268051 165.5850372  -4.9042220
  77.3657227 165.9576263  -3.0630238  77.3408813 165.8441772  -1.9792268
  78.3027039 165.5295868  -3.4193068  77.4975739 167.0153503  -3.2909582
  76.5227585 163.6904602  -4.0732703  76.1009445 162.8636017  -3.2499027
  77.2700119 163.2543488  -5.1119781  77.8465042 163.9218597  -5.6041155
  77.3420486 161.8659973  -5.5543590  77.1714020 161.2640533  -4.6618085
  76.1250534 161.6372528  -6.4534945  75.2687912 162.0217285  -5.8993330
  76.2292023 162.2348175  -7.3591323  75.8595505 160.2556763  -6.9295759
  74.8197479 159.4207611  -6.3719568  74.1897888 159.8226776  -5.5922017
  74.6923370 158.1214447  -6.9186769  73.8690643 157.4771423  -6.6475587
  75.5198898 157.6250153  -7.9508510  75.2439423 156.3830566  -8.5217896
  74.8724670 155.7900085  -7.8645997  76.4269409 158.5061798  -8.4953346
  77.0082626 158.1585999  -9.3365498  76.6097641 159.7993164  -8.0196686
  77.2504349 160.4364929  -8.6112385  78.7001495 161.4456482  -6.1923294
  79.2633667 162.2623444  -6.9326057  79.2325134 160.2836151  -5.8615403
  78.5830765 159.7631378  -5.2893219  80.4472198 159.5997314  -6.4022379
  80.6230316 159.7963257  -7.4598470  81.5934525 160.1473694  -5.5324473
  81.4079819 161.1543427  -5.1587119  81.6391068 159.5136414  -4.6467714
  82.9826584 160.1490479  -6.2274013  83.0997238 159.1933136  -6.7382531
  83.0696335 160.9349060  -6.9777188  84.0827103 160.2063599  -5.2243524
  83.7223129 160.7985840  -4.3832283  84.1740952 159.2108459  -4.7899671
  85.2571487 160.8851624  -5.7591586  85.1118393 161.8123932  -6.1322823
  86.4852219 160.4408417  -5.8853993  86.8395538 159.2166290  -5.5877113
  86.1668854 158.5750885  -5.1926713  87.7246780 158.8992615  -5.9563980
  87.4434509 161.2743988  -6.2425070  87.2367477 162.2537079  -6.3778543
  88.4188538 161.0156708  -6.2008009  80.4526596 158.0253143  -6.2814493
  79.8936005 157.4905396  -5.3197174  81.0142975 157.3178101  -7.2813783
  81.2835617 157.8828735  -8.0740261  81.0262451 155.8401184  -7.3544021
  80.6354828 155.2761993  -6.5074096  80.2227249 155.4273071  -8.6235867
  80.5470276 156.0434723  -9.4622087  80.4349670 154.3997040  -8.9186592
  78.6948166 155.6198730  -8.4362516  78.4372330 155.0605469  -7.5368571
  78.4701920 156.6740723  -8.2740345  78.0025711 155.0320435  -9.6915874
  77.4789276 153.8977051  -9.6399174  77.8755951 155.8238373 -10.6830482
  82.4802933 155.3828583  -7.5263529  83.2369080 155.9181366  -8.3487825
  82.7427979 154.2853241  -6.8251295  81.9668884 153.8910675  -6.3126521
  84.0277176 153.5788574  -6.6410236  84.6890717 153.9553986  -7.4213581
  84.7530212 154.0323792  -5.3869915  84.2527008 153.5006561  -4.5776377
  85.8255615 153.8425598  -5.4286795  84.8062668 155.5666809  -5.1857166
  85.2262802 155.9630432  -6.1101551  83.8074493 155.9957581  -5.1059370
  85.7088394 156.0725403  -4.0388989  86.7310791 155.3945770  -3.7056386
  85.5182037 157.2536621  -3.6655157  83.9772568 152.0363159  -6.9605904
  83.0003433 151.3582306  -6.6091743  85.0259094 151.4407806  -7.4963737
  85.8007812 151.9711609  -7.8683491  85.0815811 149.9794006  -7.6180329
  84.3228836 149.5166016  -6.9869237  84.9620132 149.6486664  -9.1331682
  83.9872131 150.0393829  -9.4250727  85.7102127 150.1542816  -9.7436161
  85.1347961 148.1775818  -9.4448748  86.1051788 147.7119293  -9.2727747
  84.4287033 147.5784302  -8.8699217  84.7693634 147.8603363 -10.9213629
  85.5997620 147.4127045 -11.7321539  83.4832764 148.0418854 -11.3380289
  83.3126297 147.9004974 -12.3234186  82.8348694 148.5115967 -10.7223644
  86.4256439 149.4900818  -6.9477010  87.5657272 149.7844696  -7.4463401
  86.3255386 148.7451477  -5.8245482  85.4048615 148.4368744  -5.5462976
  87.4754486 148.1827087  -5.1357675  88.2627106 147.8649292  -5.8193893
  88.0822220 149.1481018  -4.0779419  87.3958969 149.2295532  -3.2350783
  88.9898148 148.6715698  -3.7074029  88.5690613 150.5782471  -4.4848437
  89.3377304 150.5349884  -5.2564492  87.6841660 151.1240234  -4.8122382
  89.1484146 151.4742279  -3.4254940  88.7002182 151.4873657  -2.2571931
  90.0708618 152.2099915  -3.8535290  87.2197342 146.8047333  -4.4318399
  86.0753784 146.5500031  -4.1315646  88.2463226 145.9360352  -4.2430034
  89.1811371 146.2924500  -4.3815017  87.9908600 144.5796356  -3.6682749
  88.9220505 144.0249634  -3.7837169  87.5732727 144.7278595  -2.1400082
  86.5088577 144.9626465  -2.1412816  87.7139435 143.7357330  -1.7110521
  88.3954468 145.7234344  -1.3571945  89.7094803 145.3545837  -0.9385240
  90.0651627 144.3559265  -1.1448027  90.4804382 146.1801910  -0.1494558
  91.4441223 145.8671570   0.2243498  90.0394821 147.5257111   0.0107583
  90.9279556 148.3629150   0.6025929  91.7718582 147.9573669   0.8146358
  88.8238525 147.9721069  -0.4484613  88.4949417 148.9746094  -0.2178284
  87.9805832 147.0523224  -1.0999976  87.0234375 147.4263306  -1.4322394
  86.9337463 143.7164612  -4.4594679  86.2356644 142.8515015  -3.8881397
  86.7205963 144.0426788  -5.7788534  87.3550797 144.7334137  -6.1535869
  85.7314835 143.4235687  -6.6574435  85.9784393 143.7988739  -7.6505537
  85.8415909 142.3391571  -6.6638036  84.3111649 143.8514099  -6.4198918
  83.4173126 143.2272949  -7.0363131  84.0717392 144.8978882  -5.6155787
  84.8765030 145.4028320  -5.2728114  82.6905823 145.4249420  -5.3156352
  81.9958267 144.6462708  -5.6303873  82.4361572 145.5889130  -3.7810760
  81.3513947 145.5757904  -3.6751881  83.0703659 144.4396820  -3.0148413
  84.1530228 144.5622101  -2.9841156  82.7636871 144.4416046  -1.9688758
  82.7976913 143.5088959  -3.5122108  82.8701172 146.9477386  -3.2452793
  83.9120483 147.1363068  -3.5039661  82.3275833 147.7252350  -3.7831061
  82.7477951 147.2459106  -1.7622023  83.3984756 146.5792084  -1.1963290
  83.0388794 148.2648773  -1.5071361  81.7194214 147.1246033  -1.4218479
  82.4526062 146.7066345  -6.1351175  83.3174210 147.5366516  -6.2701168
  81.1937485 146.8579102  -6.6503205  80.5402451 146.1105194  -6.4647374
  80.6713867 148.2157593  -6.9080749  81.4649048 148.8113861  -7.3593760
  79.5799942 148.1034088  -7.9947066  78.6909561 147.6533508  -7.5529385
  79.2440033 149.1002502  -8.2802048  79.8989792 147.3068390  -9.3009615
  80.8386612 147.5580292  -9.7928934  79.9850311 146.2469635  -9.0614424
  78.8194504 147.5059204 -10.3749990  78.0829620 148.5229492 -10.3637848
  78.7050476 146.6393433 -11.3016062  80.1378021 148.9111938  -5.6100183
  79.4724731 148.2314148  -4.7985601  80.4605789 150.1657867  -5.3448334
  81.1851044 150.5829620  -5.9115257  79.9475555 150.9151764  -4.1491690
  78.9814529 150.4580231  -3.9353104  80.8327789 150.5330658  -2.9800682
  80.7637939 149.4801178  -2.7068679  82.3293228 150.8296356  -3.2674737
  82.4578323 151.8315125  -3.6771293  82.8713074 150.7980347  -2.3222980
  82.7688293 150.1709747  -4.0165396  80.4836121 151.2651215  -1.8248168
  81.0088959 151.0193176  -1.0597932  79.7802048 152.4475098  -4.3837128
  80.1705322 152.9279785  -5.4662232  79.1632614 153.1992950  -3.4824677
  78.8313446 152.7864075  -2.6225564  78.7672882 154.6518250  -3.7418797
  79.6248856 155.0690613  -4.2696476  77.4681168 154.6809082  -4.6900039
  77.6469269 154.0952454  -5.5917387  76.1797791 154.1823730  -3.9882298
  75.8044510 154.8674164  -3.2280121  75.3749542 154.1614075  -4.7230248
  76.3895416 153.2191925  -3.5230534  77.0399780 156.0130920  -5.1725659
  77.7903900 156.3545227  -5.8855939  76.0530243 155.9525452  -5.6312175
  76.7772217 156.7033691  -4.3709497  78.6901932 155.5270691  -2.5340087
  78.3022308 155.0629883  -1.4323354  79.1672974 156.7819061  -2.6865487
  79.6659546 156.9880371  -3.5403359  79.2537994 157.7442780  -1.5827161
  78.9720764 157.2914886  -0.6320766  80.6943588 158.1279602  -1.5631369
  81.0337296 158.4246063  -2.5555754  80.8440094 159.0324402  -0.9735373
  81.5852127 156.9441681  -1.0492978  81.2493973 156.5582275  -0.0868160
  81.5441284 156.0581665  -1.6828637  83.0324020 157.4870605  -0.8049560
  83.2695847 158.2962341  -1.4956626  83.0542374 158.0333099   0.1380331
  84.2229462 156.4902649  -0.8292781  83.9024124 155.6888885  -0.1635835
  84.4131546 156.1075134  -1.8319829  85.5129929 157.1351318  -0.5590303
  85.4657974 157.6083221   0.3320176  86.1166687 156.3478851  -0.3694526
  85.8085327 157.6821136  -1.3550020  78.2862015 158.9554138  -1.8927252
  78.3885269 159.6254883  -2.9162829  77.3634644 159.2417450  -0.9797242
  77.2960510 158.7174225  -0.1191216  76.2892380 160.2075195  -1.2214272
  76.6637344 160.7933655  -2.0608573  74.9232178 159.6723480  -1.6441212
  74.3534775 160.5526428  -1.9417498  74.9862213 158.8206482  -2.9182312
  75.2049408 157.7722778  -2.7152863  73.9935379 158.7344666  -3.3601060
  75.7436295 159.1951752  -3.6068265  74.0537491 158.8904572  -0.5253906
  73.7263412 159.6094055   0.2256215  73.1337280 158.5548859  -1.0039961
  74.5873642 158.0009613  -0.1905036  76.1373444 161.1114960  -0.0096595
  76.1377411 160.6594238   1.1133574  75.8474731 162.3892365  -0.3233844
  75.8565598 162.6515808  -1.2986759  75.3820801 163.2997284   0.7445890
  75.3381119 162.7717896   1.6971867  76.3982315 164.5113983   0.8268194
  76.5902634 164.8739014  -0.1830382  75.8148117 165.2489014   1.3780054
  77.6471405 164.1296692   1.5848190  77.4771194 164.2231598   2.6574104
  77.8404617 163.0792389   1.3672500  78.9242859 164.8838348   1.2709999
  79.7584534 164.4663696   1.8349013  79.2595749 164.6654510   0.2570975
  78.8622971 166.3664398   1.5321412  77.9598389 166.7628174   1.0667826
  78.7101822 166.4025726   2.6108692  80.0614548 167.0712433   1.0294546
  79.9657364 167.1607056   0.0279889  80.1187286 168.0099487   1.3977432
  80.9633484 166.6843262   1.2681963  73.9862061 163.7154999   0.4058620
  73.6540527 164.0670319  -0.7498920  73.1037445 163.8333130   1.4308646
  73.4522400 163.5144043   2.3235862  71.7178040 164.2584076   1.3558656
  71.5444412 164.7087555   0.3785062  70.8474960 162.9732666   1.3149959
  70.8350601 162.4452209   2.2684729  69.8257217 163.2787018   1.0896585
  71.2351913 162.2458801   0.6017516  71.2499771 165.2226105   2.3906345
  71.9858551 165.4863586   3.3192825  70.0342484 165.7946472   2.2222891
  69.7025909 165.6654205   1.2770892  69.5139771 166.8792725   3.0428474
  69.9207840 166.7966309   4.0507073  69.9638214 168.2621155   2.4544263
  71.0369339 168.3023834   2.2675669  69.3066788 168.6501007   1.1651093
  68.2484818 168.9022675   1.2338154  69.8320389 169.4649963   0.6670717
  69.3648071 167.8085785   0.4747643  69.6571503 169.3944244   3.5080001
  68.6299133 169.6973267   3.3051753  69.6715775 168.9679718   4.5110149
  70.5529327 170.6170197   3.4511614  70.5444489 171.0815430   2.4651308
  70.1191483 171.3664703   4.1131701  71.5207748 170.2466736   3.7891314
  68.0746689 166.7177277   3.0703442  67.3358765 166.4184113   2.1333134
  67.4602051 166.9398041   4.2306304  67.9859924 167.3193970   5.0049324
  66.0074463 166.7425690   4.3821793  65.6850510 165.8290710   3.8825080
  65.8817139 166.5910797   5.4542580  65.1507797 167.8675385   3.9088943
  65.2256927 169.0155182   4.4067621  64.3109436 167.6838837   2.8670325
  64.4214935 166.7858276   2.4182708  63.4326782 168.6658783   2.1723330
  63.8756294 169.6616821   2.1888535  63.3882179 168.2754364   0.7325765
  63.1702194 167.2077026   0.7099767  62.6777687 168.8425903   0.1311528
  64.7053909 168.3946075  -0.1072055  65.5843964 168.2424774   0.5191404
  64.6191101 167.6818695  -0.9273673  64.9979630 169.7321930  -0.7926989
  65.8749542 169.5387268  -1.4104034  64.1499100 169.9345093  -1.4468896
  65.2150192 170.8840027   0.1462669  64.3593521 171.2436523   0.5444763
  66.3427505 171.4538879   0.5818139  67.5165634 171.2377472   0.0228928
  67.5911331 170.6219177  -0.7741568  68.2658157 171.8913574   0.2004391
  66.2779236 172.4292755   1.4667754  65.4064026 172.6981201   1.9006877
  67.1495590 172.8800354   1.7058692  62.0896873 168.8078766   2.8505981
  61.6913452 169.9212341   3.2087407  61.4186440 167.6510620   3.0755944
  61.8694763 166.7630920   2.9072635  59.9054260 167.5408783   3.3552473
  59.6073875 168.5438843   3.6605914  59.1091805 167.1437988   2.1053727
  59.3074608 166.0810089   1.9665560  58.0437698 167.2184448   2.3231640
  59.3598976 167.9204712   0.7934988  59.0724068 168.9693451   0.8664210
  60.4261246 167.9618988   0.5709116  58.6510048 167.2445374  -0.3525105
  57.7367401 167.7984009  -0.9149292  58.9860764 166.0137939  -0.7049293
  58.5182457 165.7544250  -1.5616460  59.8636436 165.6195984  -0.3973928
  59.6587143 166.5776825   4.5049720  60.3300896 165.5542755   4.5782332
  58.5830574 166.8151703   5.2991958  58.0574760 167.6488342   5.0781007
  58.0113945 165.8066406   6.1908603  58.7606964 165.0804749   6.5060248
  57.4120789 166.4989319   7.4175735  56.7387123 167.3375092   7.2401872
  56.8099709 165.7515259   7.9342442  58.5034409 166.9650421   8.3669443
  59.0937271 166.0730591   8.5768013  59.1777878 167.7047577   7.9354644
  57.9679298 167.4733429   9.7057476  57.3815689 166.6807556  10.1705933
  58.7491837 167.6899109  10.4343395  57.1288376 168.7147675   9.5850372
  57.4809113 169.4929047   9.0459232  55.8806839 168.8625183  10.0374899
  55.2731438 167.9248352  10.6981201  55.7287979 167.0797882  11.0118084
  54.4767036 168.2447052  11.2305269  55.2870979 170.0321045   9.9730778
  55.8647499 170.8149261   9.7017717  54.4200706 170.3270111  10.3989782
  56.8945808 165.0394745   5.3547754  56.1400032 165.6726227   4.5527334
  56.4878998 163.8732758   5.8497920  56.9603577 163.3776703   6.5922608
  55.2871513 163.2098694   5.3829141  54.5153809 163.9442139   5.1522098
  55.6169968 162.4477081   4.0899506  54.6841888 162.0432129   3.6970892
  55.9867630 163.0783539   3.2814529  56.6823692 161.3220062   4.2074614
  56.4210587 160.1569519   4.9605732  55.4150467 159.9634247   5.3024526
  57.4144592 159.2253723   5.2745872  57.1892433 158.2960968   5.7767315
  58.6528053 159.3692780   4.7329264  59.3674202 158.5646057   4.8236694
  58.9216766 160.4085541   3.8191926  59.8889465 160.4551392   3.3410542
  57.9784050 161.4227600   3.6817672  58.2528763 162.3034515   3.1201200
  54.5627556 162.3448944   6.4697957  55.2165184 161.7897644   7.3433094
  53.2119865 162.0941315   6.2780261  52.7426720 162.6275330   5.5601678
  52.5047684 160.9111633   6.8201504  52.9587021 160.6876526   7.7855959
  51.0150299 161.2179108   6.8977704  50.8882675 162.2393188   7.2566381
  50.5463028 161.2370453   5.9138875  50.1741791 160.2685394   7.7784939
  50.3984146 159.2398224   7.4963803  50.5033836 160.5279694   8.7846823
  48.6583748 160.5077362   7.8093977  48.3125343 160.6845551   6.7909541
  48.2114716 159.6020508   8.2194223  48.0942841 161.6868134   8.6391478
  48.5839844 161.4958801   9.5940504  48.3717995 162.6580963   8.2296133
  46.6056938 161.6783142   8.7995319  46.2641487 160.7997589   9.1622877
  46.2756882 162.3782654   9.4485884  46.1568871 161.8541718   7.9119811
  52.6194420 159.6676788   5.9318709  52.5445595 159.8407135   4.6947818
  52.8773575 158.4455109   6.4595904  52.9386559 158.4313507   7.4676290
  52.8050156 157.1046600   5.8362389  53.2871552 157.2343292   4.8673096
  53.6692009 156.0953064   6.6375084  53.2916336 156.1028290   7.6599989
  53.5569344 154.7087708   6.0243206  53.9945259 154.7102356   5.0260158
  54.0735703 154.0777130   6.7474804  52.4993744 154.4512329   5.9665318
  55.1341362 156.5200958   6.6774030  55.2761955 157.5494537   7.0065470
  55.6841087 155.9534912   7.4287992  55.5876007 156.5519257   5.6867180
  51.3697014 156.6085205   5.6847229  50.6542206 156.3193054   6.6281753
  51.1051598 156.0960846   4.4681978  51.7894440 156.3225555   3.7606919
  49.9168930 155.4011383   4.0521803  49.1903915 155.5600281   4.8490829
  49.3913727 156.1073608   2.7966421  50.2920914 156.1141968   2.1828377
  48.6859169 155.3839417   2.3878579  48.7985802 157.5183258   2.8317935
  49.4921150 158.1141663   3.4251711  48.5998306 158.0197449   1.4454727
  47.8160934 157.4643555   0.9302950  48.3134918 159.0690613   1.3745167
  49.5148888 157.9717407   0.8551615  47.3861771 157.5243225   3.4870205
  47.6195602 157.3954468   4.5439177  46.8774643 158.4715118   3.3076727
  46.7756042 156.7778625   2.9789848  49.9773102 153.8563690   3.8915846
  49.1739006 153.1237335   4.4648294  51.0914993 153.4940796   3.2930031
  51.7955704 154.1879272   3.0857315  51.4222374 152.0638580   3.1260026
  51.2051353 151.4640808   4.0098805  50.5593796 151.5167084   1.9555835
  49.5356674 151.8632660   2.0970516  51.0216713 151.9931488   1.0910635
  50.4890976 150.0141754   1.6402845  51.4100227 149.5018616   1.9187407
  49.7296219 149.6063080   2.3073187  50.1614113 149.6179657   0.2059135
  49.4236336 150.3383636  -0.5084029  50.5322571 148.4917297  -0.2113099
  52.9530678 151.9475403   2.8798993  53.6520958 152.8453064   2.4523761
  53.4727516 150.7127838   3.2287230  52.8798409 149.9493713   3.5215733
  54.8586807 150.3255005   2.9166660  55.3460808 151.0516510   2.2660830
  55.8598671 150.2402344   4.0780725  55.5328445 149.3965607   4.6858306
  57.2741737 150.0059509   3.5221922  57.6884232 150.8500824   2.9709003
  57.9333153 149.9351654   4.3874211  57.3452454 149.0698090   2.9684064
  55.8874321 151.5325470   4.9390926  56.4405479 152.2652130   4.3514128
  54.8636208 151.8638000   5.1128426  56.5492401 151.3265839   6.2845731
  57.5785217 150.9684753   6.3053627  56.5808792 152.2576599   6.8504467
  55.9357796 150.6499939   6.8795466  54.7760773 149.0809174   2.0893016
  54.1986465 148.0967102   2.5883906  55.3388863 149.0579071   0.8844659
  55.7331924 149.8987579   0.4874922  55.5429344 147.8696289   0.0909563
  55.0369301 146.9979706   0.5060129  54.9588661 148.1544495  -1.3100063
  53.8935051 148.3508453  -1.1894147  55.4358292 149.0824280  -1.6253808
  55.1039543 147.0136108  -2.2954829  56.1619873 146.8302460  -2.4826658
  54.6955299 146.0675507  -1.9401457  54.2778206 147.2243500  -3.6108544
  53.2444229 147.1801300  -3.2669995  54.5351372 148.1711731  -4.0856462
  54.5407753 146.0123749  -4.5325785  54.8398247 145.1312561  -4.1397929
  54.4955368 146.0580902  -5.8591204  54.5400925 147.2289581  -6.4870181
  54.5469246 148.0829468  -5.9478083  54.7896271 147.2348633  -7.4656901
  54.5779877 144.9432373  -6.5410304  54.7698936 144.0460968  -6.1186528
  54.5048409 145.1286163  -7.5311728  57.0409584 147.5580139   0.0291021
  57.7587051 148.5261993  -0.0055327  57.4185753 146.3271484  -0.1352267
  56.6745453 145.6609955  -0.2861292  58.8504868 146.0345917  -0.4400315
  59.3847084 146.9846954  -0.4346458  59.5384369 145.2213593   0.6086701
  59.2358513 144.1742401   0.5999295  61.0391502 145.2520905   0.5059043
  61.4088135 146.2106018   0.8702192  61.5319977 144.4530182   1.0596963
  61.2730598 145.1096039  -0.5491224  59.1706543 145.8083191   1.8539040
  58.2453384 145.6893311   2.0802522  58.9302635 145.3798218  -1.7783179
  58.0736313 144.5647125  -2.1933777  59.9801292 145.7399597  -2.5429440
  60.6268463 146.4242249  -2.1773872  60.3107224 145.1075287  -3.8643100
  59.4621086 144.5932617  -4.3154197  60.8090820 146.1507721  -4.8973088
  61.6053047 146.7064056  -4.4019241  61.2884636 145.5984344  -5.7055368
  59.6563950 146.9499512  -5.4648266  58.8838882 146.2976837  -5.8721275
  59.1139870 147.3409729  -4.6040177  59.9251595 148.2156372  -6.2589970
  60.2927628 149.2572479  -5.7780204  59.6678467 148.2000122  -7.5553136
  59.8931770 149.0098877  -8.1151686  59.2652054 147.4409332  -8.0861349
  61.2922821 143.9066162  -3.6441667  61.9779587 143.8288116  -2.6075361
  61.3534966 143.0212860  -4.6018858  60.8335381 143.2798767  -5.4282517
  61.9799881 141.7298431  -4.5630808  61.4567947 141.1596680  -3.7954309
  61.8147354 141.0304413  -5.8407402  62.2506599 141.5788269  -6.6758094
  62.3461494 140.0799408  -5.7933025  60.4231071 140.7896118  -6.1178184
  60.2349014 140.1144409  -6.7738066  63.4486427 141.8684998  -4.2618790
  64.0645676 141.0706329  -3.5959687  64.1286163 142.8601227  -4.8490319
  63.6553574 143.4782715  -5.4924779  65.5170746 143.1531830  -4.5078945
  66.1619797 142.2824707  -4.6264729  65.9451904 144.1453552  -5.6113715
  67.0276642 144.0922241  -5.7276917  65.6884155 143.7059479  -6.5752678
  65.4297791 145.5478821  -5.4684076  64.6015167 145.8141327  -4.6299744
  66.0146942 146.4660645  -6.1057191  65.7370605 143.6922455  -3.0338814
  66.8472290 143.8092041  -2.5158741  64.6617050 143.9017334  -2.2842841
  63.7539864 143.9231720  -2.7266502  64.6566391 144.0734100  -0.8015268
  63.7543907 143.5848083  -0.4336747  65.5082321 143.5430145  -0.3753997
  64.6903610 145.4882812  -0.2850991  64.9032516 145.7120667   0.8885312
  64.5052719 146.4954071  -1.1527451  64.5120468 146.2982788  -2.1433010
  64.2846146 147.9253082  -0.7413102  64.7693253 148.0427094   0.2279009
  64.9611816 148.9691315  -1.6954530  64.9611588 149.9503784  -1.2208258
  66.4544983 148.6355133  -1.8934153  66.5300217 147.7468719  -2.5200865
  66.8004990 149.5634308  -2.3487937  67.0348282 148.4297943  -0.9939738
  64.2705383 149.0354156  -3.1142988  64.9822388 149.0839844  -3.9384494
  63.8339043 148.0491180  -3.2714276  63.2778282 150.1358185  -3.2278800
  63.7848740 151.0708466  -2.9897377  62.7921410 150.1700592  -4.2030926
  62.4136200 149.9929504  -2.5791559  62.8013649 148.2184906  -0.5340928
  61.9968071 147.6035919  -1.2514975  62.4655190 149.1598206   0.3760449
  63.1922722 149.6060944   0.9171277  61.1495972 149.4824524   0.6983880
  60.5480957 148.6831207   0.2655497  60.9596062 149.5939484   2.2114146
  61.2976227 150.5859070   2.5111685  59.8749619 149.5659943   2.3156888
  61.4625740 148.4158173   3.0591979  61.2686806 147.4862671   2.5240011
  62.5454597 148.3735352   3.1761229  60.8077545 148.2482147   4.4819999
  61.2515526 148.8977966   5.4645262  59.8304749 147.3713226   4.5326877
  59.3585625 147.2651367   5.4193258  59.6126823 146.7563934   3.7616229
  60.6992111 150.6813507  -0.0814698  61.5541649 151.5642395  -0.5004525
  59.3949814 150.7777252  -0.3443161  58.8125000 149.9916992  -0.0933376
  58.7331200 151.8895569  -0.9663984  59.4279823 152.7102814  -1.1443949
  58.2665901 151.4229431  -2.2909486  57.7213440 150.4801178  -2.2474132
  57.5113068 152.1220245  -2.6500428  59.3727798 151.2020416  -3.3144786
  60.3059120 150.8107758  -2.9091651  59.0188789 150.4243469  -3.9912770
  59.7172661 152.4210358  -4.1644869  59.2169952 153.5145721  -3.9536602
  60.4358711 152.2673187  -5.2679896  60.6162109 153.1033325  -5.8052731
  60.7197723 151.3403625  -5.5512805  57.5388756 152.3137360  -0.0618266
  56.5065727 151.5928802   0.0526419  57.6443977 153.5209198   0.4936119
  58.4658127 154.0860901   0.3324418  56.5276184 154.0537109   1.2574431
  55.9446945 153.3126221   1.8043363  57.1514854 155.0261230   2.2499299
  57.5703239 155.9089661   1.7669531  56.4527740 155.2959290   3.0418270
  58.0374222 154.5813293   2.7031379  55.6057014 154.7910919   0.2504150
  56.0445862 155.6928558  -0.4962340  54.3129082 154.5554810   0.4161925
  54.0285759 153.8264313   1.0547417  53.2504349 155.4887543  -0.0404012
  53.5148277 155.9708557  -0.9815634  52.0024147 154.8040314  -0.4245692
  51.5511742 154.2944794   0.4268095  51.2421570 155.5621796  -0.6124834
  52.0858040 153.8025665  -1.6409827  53.0650864 153.7136993  -2.1113098
  51.9660187 152.8160248  -1.1932415  51.0357971 154.2308655  -2.7053115
  50.0671997 154.0862885  -2.2267485  51.1203117 155.3002319  -2.8986921
  50.9465752 153.5209351  -4.1049471  50.2543106 154.1057129  -4.7106647
  51.9135361 153.5842285  -4.6040287  50.4808083 152.1067810  -4.0768676
  49.6475601 151.9597931  -3.5253286  50.2852402 151.8605652  -5.0366750
  51.2134094 151.5585327  -3.6492867  53.0662651 156.6062317   1.0103472
  52.8739204 156.2557526   2.2165651  53.1917191 157.8665466   0.6370072
  53.3569832 158.0325775  -0.3454498  53.0529518 158.9785004   1.5765413
  52.6356621 158.5459747   2.4858799  54.4654198 159.4733734   1.9523077
  54.4289513 160.0636902   2.8678873  55.4029045 158.3119965   2.2852812
  55.7648659 157.8193512   1.3828387  56.3000069 158.7435608   2.7291958
  54.9226418 157.6300201   2.9869626  55.1708450 160.2626495   0.8492116
  54.6925201 161.2218475   0.6510924  56.1755714 160.4655151   1.2199907
  55.2337265 159.6304169  -0.0364640  52.1503487 160.1589355   1.1537211
  51.8326645 160.2892151  -0.0310358  51.7232971 161.0623474   2.1247098
  51.9311790 160.6677094   3.0308871  51.1577644 162.4222565   1.9466981
  51.1307106 162.5581818   0.8655459  49.7245064 162.5237274   2.5529544
  49.0690956 161.7962189   2.0741303  49.6448364 162.4529114   3.6377330
  49.0694733 163.9270172   2.3152518  49.4679909 164.6605835   3.0160844
  49.2712975 164.2403412   1.2909440  47.5676651 163.9685669   2.4497056
  46.7972145 163.0340424   2.1555269  47.0432739 165.0868225   2.9563191
  46.0398674 165.1068115   3.0698469  47.6170731 165.8410339   3.3056202
  52.1353989 163.5427094   2.4714124  52.4617233 163.5466461   3.6839211
  52.5618553 164.5184174   1.6187649  52.1984100 164.4440155   0.6793655
  53.6145859 165.4970398   1.9498543  54.3484955 165.0413513   2.6145513
  54.3013229 166.0328064   0.6492183  53.6087151 165.9412994  -0.1874537
  54.7430496 167.5269775   0.7812545  55.6061707 167.5801697   1.4447978
  54.9463844 167.9474640  -0.2036020  53.9361458 168.1796722   1.1144193
  55.5022430 165.1849518   0.2732687  55.8904152 165.4693298  -0.7047659
  56.3073730 165.4126129   0.9718620  55.3638840 163.6715088   0.1725456
  54.6796799 163.3557129  -0.6149981  56.2820015 163.1119080  -0.0063769
  54.9520111 163.2721558   1.0993510  52.9826202 166.6244049   2.7947855
  51.9583740 167.2303009   2.4260058  53.5418739 166.9020386   3.9479229
  54.4358788 166.4788971   4.1523771  52.9627686 167.8114471   4.9228792
  51.8846664 167.8424988   4.7652926  53.2355003 167.1713867   6.2683825
  54.3095207 166.9854736   6.2644982  53.0270958 167.8718567   7.0771003
  52.5204468 165.8140106   6.5490570  52.7004318 165.1166229   5.7309127
  53.0161438 165.1884003   7.8821507  52.9419174 165.9121552   8.6937819
  52.4050102 164.3344421   8.1743412  54.0210915 164.7714996   7.8160434
  50.9942055 166.1188354   6.5399051  50.5804176 166.0897522   5.5319176
  50.4621239 165.4384613   7.2047873  50.8395271 167.0923615   7.0051303
  53.4548340 169.2416382   4.9455652  54.6460304 169.4454803   4.7339978
  52.5386658 170.2375793   5.1391568  51.0828819 170.2036438   5.0818019
  50.8256340 169.5979614   5.9507556  50.6694260 169.6725159   4.2244458
  50.5094109 171.6340790   5.1258974  50.1685600 171.8527985   6.1378689
  49.7068748 171.7058258   4.3917966  51.7405205 172.4446259   4.8026652
  51.6609154 173.4599915   5.1910081  51.8428917 172.4992065   3.7188530
  52.9579659 171.6087036   5.2235708  53.7664642 171.8476105   4.5326643
  53.3303757 171.9377747   6.6476674  52.7646675 171.5013580   7.6390896
  54.1516724 172.9111023   6.7706251  54.5192833 173.1688538   5.8659024
  54.3277969 173.8767242   7.8831658  54.4547691 173.3640289   8.8366432
  55.5986748 174.6923065   7.6404204  55.7442741 175.0057068   6.6066504
  55.5694466 175.5330811   8.3334885  56.7811165 173.7687531   7.8936772
  56.6593704 172.7697906   7.4749260  57.6357117 174.3007965   7.4757204
  57.0901909 173.6661987   9.4148979  57.5463448 174.7093048   9.9749575
  56.9274368 172.5261993   9.9516945  53.0681915 174.8216553   7.9465361
  52.6341362 175.4661255   6.9564648  52.3570175 174.7576599   9.0497570
  52.4995537 174.0671387   9.7729254  51.0861282 175.5885925   9.1992760
  50.5799332 175.6721191   8.2375641  50.0777283 174.9291382  10.1574888
  50.5151176 174.8031616  11.1479053  49.2230721 175.5936279  10.2844505
  49.4222565 173.6411438   9.6668596  49.0158157 173.6951294   8.6569147
  50.2595215 172.9635620   9.4995956  48.5152245 172.9689484  10.7034035
  48.3364601 171.9840546  10.2720070  48.9984818 172.8681946  11.6752100
  47.2227516 173.6633453  10.7069855  47.0220718 174.0538940   9.7974243
  46.2840042 173.7707520  11.6574287  46.4430389 173.2225037  12.8229952
  47.1490364 172.5165710  12.9757309  45.6429405 173.1779938  13.4377823
  45.2202644 174.4930878  11.4927206  45.2338829 174.9791260  10.6074677
  44.3777161 174.4634399  12.0489044  51.3857536 177.0447998   9.6390686
  51.1788979 177.4511871  10.7641125  51.8236351 177.8704987   8.6804886
  51.9837570 177.5194092   7.7471085  52.4881554 179.0961304   9.0527153
  53.1472015 179.0480499   9.9195728  53.4475098 179.5125885   7.8809342
  52.8331223 179.8877258   7.0624614  54.1819611 180.7993011   8.3125525
  54.9334908 180.6014709   9.0768623  54.5490189 181.2958984   7.4143615
  53.4662933 181.4450226   8.8214207  54.4778481 178.4284973   7.2827253
  53.8917961 177.8100739   6.6028609  55.2826500 178.9809265   6.7977395
  54.9229240 177.8540649   8.0951576  51.4681549 180.2511597   9.3444061
  50.7565079 180.7614899   8.4747610  51.3242683 180.6079254  10.6555834
  51.8523293 180.1404419  11.3785734  50.4086418 181.6171112  11.1912498
  49.4850159 181.4934387  10.6258106  50.0777702 181.2275238  12.6120520
  50.9437408 181.1754608  13.2719679  49.3799591 181.9739838  12.9914675
  49.3831100 179.8695374  12.8992100  50.0417252 179.0772095  12.5434895
  49.1498604 179.6931458  14.4554100  48.5736694 180.5527496  14.7977486
  48.5086861 178.8180847  14.5615301  50.0984344 179.5733795  14.9788246
  48.0225563 179.8171844  12.1549540  48.1629410 179.7844391  11.0745268
  47.7157249 178.7808685  12.2964029  47.4019775 180.6411438  12.5072184
  50.8146935 183.0909119  10.9488525  51.9408760 183.4914398  11.2438412
  49.8665237 183.9823761  10.5914154  48.4550667 183.6717682  10.2444754
  47.8829460 183.0487823  10.9319963  48.4713631 183.2020416   9.2610130
  47.7426605 185.0136719  10.1716223  47.3012772 185.2674408  11.1354084
  46.9526100 185.0162048   9.4206753  48.9105568 185.9385986   9.8587112
  48.6112938 186.9518585  10.1267347  49.0910683 185.8719635   8.7858295
  50.1184044 185.4245758  10.5695505  50.9570389 185.6526489   9.9116888
  50.2253761 185.9371033  12.0120478  49.9179916 185.2469788  12.9822712
  50.4867249 187.2396393  12.1335573  50.5652924 187.7407227  11.2601566
  50.5726318 187.9467468  13.4677572  51.3476486 187.4784088  14.0744820
  50.9446526 189.4297638  13.2571449  51.8472557 189.6340637  12.6812391
  50.1812134 189.9985046  12.7263031  51.0419235 190.0650024  14.4819107
  51.2844353 190.9847412  14.3519497  49.2351189 187.8532562  14.1738796
  48.1360817 188.0169525  13.6397514  49.3185692 187.5432587  15.4673481
  50.2326965 187.5099945  15.8955641  48.2420311 187.2978821  16.3734837
  47.7383385 186.3896484  16.0425701  48.7432098 187.0685577  17.8000698
  47.9890862 187.2946625  18.5539093  49.2225380 185.6035461  18.0489960
  50.0054092 185.3504333  17.3340473  49.6842651 185.5646515  19.0356045
  48.4330940 184.8706818  17.8823090  49.8348923 187.9740143  18.1049137
  50.2942963 187.6341705  18.8763123  47.2797394 188.4718170  16.4593906
  46.0852623 188.2560577  16.5712471  47.8607788 189.6645966  16.3428154
  48.8667030 189.6824188  16.2539425  47.1979179 190.9118958  16.4382973
  46.3101730 190.8090057  17.0623455  48.1450577 191.9949493  17.0910416
  48.9928741 192.2701874  16.4637089  47.6033211 192.9392242  17.1456242
  48.6310349 191.7721710  18.4884758  49.0439682 190.7634125  18.4880924
  49.4968529 192.3941650  18.7155857  47.4738083 191.9501343  19.8952618
  46.5579910 190.3529358  20.0052052  47.2883148 189.5767365  19.7766323
  46.1217117 190.3333740  21.0038948  45.7771568 190.2214661  19.2561226
  46.7040482 191.4094391  15.0796824  45.8734055 192.2859802  15.0549784
  47.1456070 190.8602753  13.8567753  47.8567467 190.1431427  13.8665152
  46.6890793 191.3846588  12.5293007  46.6362114 192.4707947  12.6042337
  47.7219582 191.0852509  11.3805828  47.5556412 191.6981354  10.4946880
  48.6704140 191.5482941  11.6528358  47.8488045 189.7246704  10.9701805
  47.2674789 189.5484467  10.2268028  45.2477951 190.9451599  12.2615080
  44.5989838 191.4831848  11.3574076  44.7207565 190.0849915  13.0692320
  45.3282394 189.5075989  13.6328554  43.2916794 189.6811523  13.2770605
  42.8888512 189.6913910  12.2642803  43.1015015 188.2771912  13.8083982
  43.8269768 188.1887970  14.6170855  42.1025314 188.0545807  14.1833715
  43.3542480 187.5142670  13.0720825  42.5083694 190.7326050  14.1264715
  41.3649025 190.4441528  14.5106716  43.1311073 191.8709717  14.4980278
  44.1120796 192.0484619  14.3358746  42.4166183 192.8535767  15.3771458
  41.4386101 192.9253387  14.9012823  42.3208961 192.2964172  16.7947941
  42.2736053 191.2177124  16.6455135  43.6101570 192.4908752  17.6790657
  43.6623611 193.5364075  17.9827785  43.4817810 192.0019073  18.6447430
  44.5755768 192.2267456  17.2474403  41.0228386 192.6571655  17.4904633
  40.1485252 192.1446381  17.0892429  41.0190620 192.3062897  18.5224361
  40.8067741 193.7236633  17.4272118  42.9672165 194.2709351  15.3901463
  42.2103119 195.1832733  15.6718359  44.2392769 194.5005188  14.9503222
  44.8130836 193.7008820  14.7235231  44.8125648 195.8461304  14.7862978
  44.4204178 196.5826721  15.4876051  46.3355026 195.7885590  15.0503588
  46.6438255 196.8306580  15.1344824  46.5845451 195.4023132  16.0387363
  47.2350845 195.1054840  14.0164614  47.4419250 194.1281586  14.4525404
  46.7697334 194.9671021  13.0405531  48.6268845 195.7220459  13.8752375
  49.2442055 196.2035980  14.8074474  49.2466621 195.4300079  12.7179012
  50.0668869 195.9028015  12.3660507  48.6647224 194.9378662  12.0551414
  44.4395180 196.4261017  13.4670115  45.2728958 197.0119781  12.7165575
  43.1852150 196.2373810  13.0577393  42.5874252 195.7055664  13.6741180
  42.4643860 196.9176331  11.9769039  43.1531601 197.0764465  11.1471596
  41.3067932 196.0094452  11.4692039  40.5359955 195.9155121  12.2341528
  40.7365265 196.5733185  10.7309942  41.7684631 194.6605835  10.8097782
  42.6769218 194.8765411  10.2474890  42.0740929 193.5626678  11.8372755
  41.3998947 193.4445038  12.6855631  42.1641464 192.6258392  11.2874317
  43.0585785 193.7761688  12.2535715  40.6566963 194.0873108   9.9634666
  40.3726921 194.8525238   9.2410402  40.8917542 193.2026672   9.3716516
  39.7858810 193.9331970  10.6006746  42.1682472 198.4100037  12.3722992
  40.9909286 198.7910461  12.4802475  43.2093773 199.1795349  12.7535772
  44.1010170 198.8333588  12.4291735  43.0247078 200.5687103  13.2642355
  42.1921883 200.9465179  12.6707077  42.6476212 200.5597534  14.7740650
  42.2851830 201.5428314  15.0745668  41.7633095 199.9233398  14.8066282
  43.7144241 199.9800873  15.6983528  44.2891693 199.1805573  15.2308950
  44.4649124 200.7305450  15.9467306  43.1956863 199.3874359  17.0698910
  43.7316475 198.4502869  17.5797157  42.1499596 199.8761292  17.6159420
  41.7575912 199.3208923  18.3628407  41.6477623 200.6017609  17.1246758
  44.2540627 201.3572083  12.8942890  45.2772789 200.8041992  12.4872332
  44.2508736 202.6891174  13.0040798  43.4413528 203.0765686  13.4673986
  45.3351631 203.6322632  12.6212549  45.4128418 203.6475067  11.5341330
  44.9533577 205.0074463  13.1076727  45.7844429 205.6743164  12.8781309
  44.0906258 205.3605804  12.5427866  44.8104095 204.9765778  14.5570183
  44.2092247 205.7058563  14.7253485  46.7648125 203.2257690  13.1039772
  47.7552147 203.7116394  12.5290966  46.8480759 202.5679474  14.2577019
  45.9780350 202.3316650  14.7130051  48.0412865 202.1779480  15.0275841
  48.7051010 203.0395660  15.0987072  47.6590881 201.7791443  16.4434948
  46.8271599 201.0881042  16.3076038  48.4655380 201.1549225  16.8283253
  47.3994522 202.8894043  17.4297256  48.1340523 203.6888275  17.3328934
  46.0425186 203.5016174  17.2156582  45.2318382 202.7731323  17.2298985
  45.7988586 204.2476807  17.9720459  46.1214943 203.9855804  16.2421913
  47.3827744 202.2971802  18.8703690  48.3312683 201.7775421  19.0061359
  47.2273788 203.0861816  19.6062031  46.5347939 201.6264038  19.0084705
  48.8751984 201.0613251  14.3390360  49.9298935 200.6875916  14.8213654
  48.3594780 200.4563751  13.2934666  47.4388924 200.7576904  13.0074081
  49.0318031 199.3248444  12.6118383  49.0450172 198.5590668  13.3874140
  48.1157265 198.7731781  11.5120983  48.6071625 197.8695526  11.1514673
  47.1787224 198.5088654  12.0022621  47.8631134 199.7839050  10.4657621
  46.9590187 199.6836090  10.1589241  50.4632301 199.5717926  12.0783501
  51.3818703 198.7659149  12.1976757  50.6504059 200.7822266  11.5197315
  49.8219719 201.3531647  11.4312658  51.9724121 201.3497162  11.0023384
  52.4383545 200.5863495  10.3792257  51.6770210 202.6098785  10.1637573
  52.4718208 202.7803040   9.4375677  50.8109741 202.3923035   9.5386782
  51.4045868 203.8245392  11.0055141  50.6203690 203.5620880  11.7156057
  52.2596588 204.0831451  11.6300755  51.0141754 205.0610046  10.2186270
  51.7566185 205.8396912  10.0439501  50.7180901 204.7117615   9.2294464
  49.7888412 205.5448914  10.8662395  49.0763054 204.9031372  11.1833487
  49.4192390 206.7806549  10.8424654  50.1848488 207.7637482  10.6546907
  51.1220398 207.6672974  10.2907324  49.9005814 208.7270355  10.7614193
  48.2175789 207.0069580  11.1688671  47.5703964 206.2457428  11.3164549
  47.9584160 207.9724731  11.3128643  53.0702591 201.6260376  12.0110130
  54.0570488 202.3318939  11.6879873  52.8427696 201.2169189  13.2470131
  52.0294952 200.6529999  13.4487123  53.8915901 201.3264923  14.2735224
  54.3545799 202.3105927  14.2007561  53.2084351 201.3781891  15.6030378
  52.5721626 200.4932404  15.5916080  53.8604660 201.2680969  16.4695473
  52.3427582 202.6658783  15.7977924  52.9152908 203.5853882  15.6761761
  51.6166229 202.7079468  14.9859667  51.6774826 202.7059326  17.1659126
  50.8540230 203.4192200  17.1308727  51.2067375 201.7622528  17.4415607
  52.5426331 203.1225281  18.2530708  53.3843307 203.5648651  17.9125156
  52.2642136 203.1316223  19.5312443  51.1817932 202.6570435  20.0528107
  50.4427795 202.2172699  19.5231285  51.0099945 202.6641541  21.0480690
  53.1648712 203.6311035  20.3494911  54.0876579 203.7920532  19.9717865
  52.9076309 203.7050476  21.3233776  55.0071220 200.2279205  14.0843372
  55.1530647 199.2653198  14.8172874  55.7991943 200.3785706  12.9960642
  55.6258659 201.1841736  12.4120407  56.6725502 199.3412781  12.3914127
  56.1322174 198.4191589  12.6054888  56.6245766 199.4901428  10.8279505
  55.6045837 199.6985931  10.5050516  57.3313713 200.2132874  10.4210081
  56.9046974 198.1924896  10.0578518  58.1027222 197.7883453   9.4688883
  57.8540421 196.6161041   8.8110971  58.4686012 196.0077515   8.1640902
  56.5447464 196.2507172   9.0055828  56.1364212 195.4356079   8.5708580
  55.9364777 197.2723236   9.7003927  54.8668900 197.3598938   9.8216934
  58.0077362 199.1335297  13.0593481  58.4912529 199.9706421  13.8776007
  58.6876030 198.0647888  12.6889563  58.2699280 197.5711823  11.9130745
  59.9515762 197.5426178  13.2363729  59.8328438 197.5351105  14.3198605
  60.0879402 196.0483398  12.8733845  60.9996033 195.6593475  13.3268785
  58.8768044 195.2551727  13.3257017  57.9922295 195.5002747  12.7378654
  59.1716919 194.2058868  13.3369646  58.7276993 195.5091400  14.3751650
  60.3445129 195.8696594  11.3604364  59.5004005 196.3526917  10.8682356
  61.2497101 196.4106140  11.0845671  60.5430450 194.4532013  10.9230576
  59.6840057 193.8131256  11.1241741  60.6338539 194.4622192   9.8368788
  61.4101334 193.9640656  11.3669014  61.2750931 198.3132172  12.9658957
  61.3275833 199.0171814  11.9599533  62.4366455 198.2344208  13.6769724
  63.0887833 198.8702545  13.2404871  63.0814705 197.1401520  14.4950848
  64.0504303 197.5985107  14.6929188  62.4340210 197.0184784  15.9179935
  61.5398369 196.3959351  15.8867226  63.1718330 196.5217438  16.5480671
  61.9585571 198.3301697  16.5869751  62.8232918 199.4105225  16.7923393
  63.8995895 199.4100189  16.7029915  62.3939247 200.6502228  17.2995777
  63.0696564 201.4768829  17.4621124  61.0473595 200.8256683  17.5309753
  60.7287674 201.7774811  17.9296570  60.1283493 199.7539062  17.3905811
  59.0835686 199.8048859  17.6593361  60.6066055 198.4849548  16.9514427
  59.8847580 197.7028961  16.7677956  63.4654541 195.8096161  13.7350044
  63.6897011 195.8562775  12.5385914  63.4841270 194.5776978  14.3318872
  62.4610558 194.0644379  15.2323942  61.4637871 194.3387451  14.8884239
  62.6116028 194.2832489  16.2895393  62.4588318 192.5135803  15.0810232
  61.9041405 192.1732483  14.2066135  62.0531654 191.9754181  15.9377127
  63.9953346 192.3324585  14.8252802  64.1498413 191.4411469  14.2171707
  64.5280914 192.2211761  15.7696781  64.5762863 193.6667023  14.2443199
  65.2969437 194.1228485  14.9230585  65.2668915 193.5224304  12.8405333
  64.6402969 193.1653290  11.8492622  66.6068420 193.4440155  12.7260113
  66.8208237 193.2671967  11.7549047  67.6827164 193.9359589  13.6617041
  68.6137772 193.9493256  13.0950947  67.9112473 192.9786682  14.8911037
  68.6161041 193.4331818  15.5872974  66.9516678 192.8981476  15.4018116
  68.4050140 191.7168121  14.4927549  68.2299347 191.1096344  15.2154474
  67.5517197 195.4186096  14.1795511  66.6519775 196.1077423  13.6663628
  68.3832550 195.9806976  15.0831985  69.1242065 195.4566803  15.5264740
  68.0086823 197.2430267  15.7348938  67.5269852 197.8629456  14.9787350
  66.8534317 197.0336914  16.7808533  66.1922531 196.3000183  16.3196716
  67.4130402 196.5261230  17.5665474  66.1132050 198.1731720  17.2091751
  65.9658661 198.7561493  16.4608307  69.1213608 198.2680054  16.2078094
  69.0438690 198.8468170  17.2681503  70.2399139 198.5108948  15.5306358
  70.7889404 199.2206116  15.9942732  70.8646317 197.8229675  14.3774748
  71.7958145 198.3629150  14.2058144  69.8431625 198.1352081  13.2107220
  68.8932419 197.6049652  13.2785826  69.5029831 199.1697693  13.1653767
  70.3957596 197.7462311  11.7558889  70.4487686 196.6587067  11.8066864
  69.7525101 198.1601868  10.9793749  71.8873825 198.2210083  11.5254145
  72.6042938 197.8437500  12.2546759  72.2718201 197.8078308  10.5928926
  72.0167542 199.7449036  11.3924007  71.1533585 200.1344604  11.9317350
  72.9103622 200.1311646  11.8826799  72.0091095 200.0912781   9.9146595
  71.0790558 200.1556244   9.5261202  72.5347366 200.9383392   9.7525158
  72.4994812 199.4497528   9.3079557  71.4305115 196.3795319  14.7072163
  71.4227905 195.5364685  13.8052120  72.0496368 196.1309357  15.9206810
  71.7441254 196.5714569  17.2535458  70.6767502 196.7257690  17.4116249
  72.3434906 197.4718781  17.3881054  72.1069183 195.4532928  18.1935921
  71.2371445 194.8759460  18.5070477  72.7670441 195.8758087  18.9510975
  73.0202103 194.5612335  17.3868294  73.9646530 194.3952637  17.9050751
  72.4554291 193.6388092  17.2517033  73.2120972 195.2846985  16.0354710
  73.2695847 194.5158539  15.2649679  74.5351410 196.0601349  16.1024399
  75.5767288 195.4248962  16.1866169  74.5089264 197.3963623  16.2588863
  73.6139069 197.8382416  16.1046734  75.7361221 198.2204285  16.2375526
  76.2627106 198.0278778  15.3028212  75.3048706 199.6939087  16.2406597
  74.3528824 199.8165741  15.7241688  75.1525803 199.9240112  17.2951546
  76.3805847 200.6303253  15.6747875  77.3865128 200.2989197  15.9324465
  76.3103790 200.6407776  14.5871010  76.2570724 202.0724182  16.0349274
  76.2026672 202.1930847  17.1168613  77.1357956 202.5878448  15.6472673
  75.0281906 202.8153381  15.5848598  74.8634949 202.5745544  14.5346193
  74.1891861 202.4043884  16.1463718  75.2572632 204.2732849  15.8777914
  76.1814575 204.5506439  15.5793781  74.5447540 204.8166504  15.4117498
  75.2016983 204.5564575  16.8456917  76.6909103 197.8526917  17.3752098
  77.8986206 197.8292694  17.2430420  76.1159210 197.5101318  18.5452824
  75.1090851 197.4502411  18.4923077  76.8070450 197.1548157  19.7747574
  77.7347107 197.7259674  19.7383595  76.0967941 197.7174072  21.0071411
  76.9044113 197.6996307  21.7389393  75.7040634 199.2113647  20.7831039
  74.6654510 199.4131317  20.5210533  75.7233047 199.5913391  21.8045521
  76.4039764 199.7084045  20.1114082  74.8677826 196.9584656  21.5299950
  75.1244812 195.9314880  21.7898560  74.4137268 197.5493164  22.3254986
  74.1116180 196.9833832  20.7453289  77.3366699 195.6912537  19.9049969
  78.0066147 195.3924866  20.9168472  77.1489410 194.7985535  18.9066582
  76.8092575 195.1323242  18.0159779  77.4604950 193.3950500  19.1221962
  77.2518692 192.7919922  18.2385139  78.9845200 193.0956879  19.3401337
  79.3194733 192.9478455  20.3668041  79.1612778 192.1805115  18.7750664
  80.0266266 193.9897003  18.7205219  80.6746216 194.9497375  19.4362202
  80.5053329 195.0871582  20.4939823  81.4454651 195.7102356  18.5847206
  81.9676437 196.5350952  18.8436241  81.5428009 195.0948334  17.3530178
  82.2044907 195.4572906  16.1102581  82.8707428 196.3067169  16.0788975
  81.9816666 194.6882172  14.9398193  82.6092148 194.8535004  14.0765295
  81.1536407 193.5779877  15.0405531  81.1734238 192.8419342  14.2504568
  80.4508896 193.2491608  16.1972179  79.8433533 192.3642273  16.3163261
  80.5155258 194.0411682  17.3393078  76.5509949 192.7902832  20.2669849
  75.4132919 193.2241211  20.3276176  77.0866776 191.8736877  21.0957623
  78.0394669 191.6903687  20.8152580  76.6443253 191.2503662  22.3086166
  77.5867615 190.8777924  22.7099705  75.7481232 189.9736938  22.0468597
  75.2994461 189.7076111  23.0039387  74.9683838 190.2999573  21.3586273
  76.6605835 188.8705139  21.5303974  76.0529022 188.0939331  21.0659161
  77.2234116 189.1565704  20.6418610  77.5926285 188.1849976  22.5668983
  77.5689926 188.4358063  23.7168427  78.5015945 187.3557587  22.0177841
  79.2033005 186.9207764  22.5995922  78.5047531 187.2322998  21.0153637
  76.0753937 192.1629791  23.3665428  75.7974319 193.3342896  23.1610336
  75.9638062 191.5867157  24.5679169  76.2897110 190.6323395  24.6230831
  75.7535248 192.1337128  25.9215355  75.1098328 191.3971252  26.4023685
  77.0903854 192.0164948  26.7079926  77.1407013 192.6490326  27.5942593
  77.2168274 190.9475861  26.8799133  78.3376312 192.5745697  25.9824944
  78.3623505 193.7630005  25.6535168  79.3081589 191.7884521  25.8444500
  75.0834122 193.5325470  26.1899872  75.2471695 194.5292511  25.5014820
  74.3507233 193.6015778  27.3048687  74.4362335 192.7415314  27.8274517
  73.6679535 194.7426453  27.8942394  72.8750153 194.3680420  28.5415592
  74.5298615 195.4993896  28.9995384  73.9857101 196.3686829  29.3687916
  74.7288437 194.8316956  29.8378086  75.9228821 195.9905548  28.6151142
  76.4440918 196.0719604  29.5689583  76.3980484 195.2640686  27.9559231
  75.9873428 197.3978271  27.8705902  75.1439972 198.0344086  28.1382351
  76.8141403 198.0052032  28.2388172  76.2952576 197.2789307  26.4103966
  75.6098480 197.5221863  25.7095795  77.4501114 197.0315247  25.8623657
  78.5962448 196.7866974  26.5303974  78.5108185 196.6300964  27.5245209
  79.3857498 196.3726044  26.0557289  77.4224091 197.0005798  24.5439701
  78.2481308 196.6910553  24.0515518  76.6046982 197.1834869  23.9800663
  72.8158035 195.5366516  26.9835758  72.2358475 194.8780823  26.0434113
  72.6244202 196.8017426  27.1234894  72.9724808 197.1021576  28.0227680
  71.8091354 197.7574921  26.3855019  71.8258209 198.7004547  26.9319820
  72.4693527 197.9492188  25.0397892  72.8339920 197.0149536  24.6128559
  71.7935410 198.3814392  24.3018379  73.3325729 198.6081238  25.1336250
  70.3122025 197.4181213  26.1500587  69.3867188 198.0906830  26.6100368
  70.0190353 196.4363556  25.3042297  70.8000565 196.0063324  24.8296986
  68.6667709 196.0674591  24.8173103  68.1874313 197.0250702  24.6140690
  68.7609558 195.3838959  23.4498882  67.7400818 195.1002502  23.1940060
  69.0784836 196.1357880  22.7274513  69.6640778 194.1629639  23.3943615
  69.1425629 192.9086151  23.8207436  68.2517471 192.7751312  24.4165897
  69.8423615 191.7475739  23.5604553  69.4975662 190.7924500  23.9282303
  71.0189362 191.8515930  22.7715073  71.5700607 190.9743195  22.4664631
  71.5344772 193.1204529  22.3341503  72.3986282 193.1586761  21.6874790
  70.8067322 194.2661591  22.6250458  71.0688248 195.2623291  22.3004513
  67.7108154 195.4303436  25.7989120  66.6872559 194.8399048  25.4143887
  67.9584274 195.6019135  27.0701504  68.8371048 196.0366821  27.3130665
  67.1278152 195.1231842  28.1676521  66.8413315 194.0790253  28.0420685
  67.9181519 195.2983246  29.4660301  68.2893677 196.3204956  29.5397511
  67.3341827 194.9950867  30.3350163  69.2493515 194.3812408  29.5824356
  68.8853836 193.4503479  30.0172615  69.6469727 194.2199860  28.5804348
  70.2811127 195.1627960  30.4924736  71.1744080 194.5420685  30.5619259
  70.5688782 196.1318817  30.0848427  69.7389526 195.3870087  31.8213234
  69.5261993 194.4841614  32.2209473  69.7322617 196.4966431  32.4770470
  70.0364914 197.6387024  31.9598179  70.2639923 197.7227631  30.9793682
  69.8996429 198.4996948  32.4697838  69.2912292 196.5574799  33.7302055
  68.8560410 195.7687225  34.1868935  69.2195129 197.3962555  34.2882576
  65.7596283 195.8224335  28.1533337  64.7680740 195.1541138  27.9431877
  65.7627563 197.1688995  28.4054623  66.6890182 197.5607910  28.4980011
  64.5023041 197.9021912  28.3883629  63.8505630 197.5496979  29.1877918
  64.9455261 199.3777313  28.7118015  65.8198395 199.7118073  28.1531639
  64.0659714 199.9622192  28.4418888  65.3445206 199.5553284  30.2396660
  64.5410690 199.1300507  30.8410873  66.1483307 198.8662720  30.4988823
  65.6773148 200.9525452  30.7710304  65.8161697 201.8704071  29.9893894
  65.9738464 201.0806427  32.0554237  66.2753601 201.9816742  32.3979378
  65.9386520 200.2527771  32.6329155  63.6699028 197.8146362  27.0765114
  62.4420204 197.9389648  27.0626564  64.2979584 197.5864258  25.8995819
  65.3076630 197.6061554  25.9143753  63.6414604 197.5008392  24.6006508
  62.8839226 198.2845764  24.6024075  64.5812988 197.7301178  23.4581299
  64.9426804 198.7533569  23.5606022  65.4089661 197.0279388  23.5581684
  63.9269257 197.5149841  22.0738583  63.3304977 198.4584961  21.2636795
  63.1035881 199.4653473  21.5817509  62.7854080 197.8564606  20.1570702
  62.3498383 198.3917999  19.4196453  63.0659256 196.5132294  20.1150341
  62.7138252 195.4797668  19.2059174  61.9978065 195.6946869  18.4264755
  63.2724533 194.2049255  19.3789387  63.0456161 193.4786835  18.6124401
  64.1148529 193.9687042  20.4902306  64.5895691 193.0109253  20.6442108
  64.4738159 194.9571228  21.4115639  65.0084381 194.7426147  22.3251114
  63.9125748 196.2844849  21.2966118  62.8816795 196.1976013  24.4361248
  61.8754883 196.2002869  23.7924404  63.2576599 195.1133118  25.1519775
  64.1883392 195.1154175  25.5443192  62.4367752 193.8740845  25.0330334
  62.2258530 193.8330688  23.9644222  63.2461739 192.5798645  25.3968582
  63.9472771 192.9040680  26.1659126  62.5300941 191.8470612  25.7687988
  63.8396339 192.0089569  24.1984596  65.1627731 191.9326630  23.9170704
  65.9282227 192.3952637  24.5224552  65.3796692 191.1756439  22.7842789
  66.2874832 190.9956055  22.3798389  64.2029037 190.7685242  22.2318954
  63.8194122 189.9242554  21.1527367  64.5539551 189.7049255  20.3919830
  62.4482613 189.5095520  21.0354080  62.1244659 188.7996063  20.2887192
  61.5240135 189.9881287  21.8732491  60.5011292 189.6797180  21.7151566
  61.8454971 190.7707977  22.9999218  61.1019516 190.9301453  23.7668304
  63.1877289 191.2259064  23.1327858  61.1112404 193.9699097  25.7648621
  60.1143761 193.3952332  25.2206688  61.0144196 194.8518066  26.7882538
  61.8920708 195.1889954  27.1572037  59.7319489 195.2784119  27.3646317
  59.1561012 194.3682861  27.5324497  59.9053650 195.9376221  28.7584038
  60.4772644 196.8575897  28.6371841  58.9266014 196.1597748  29.1835709
  60.6508560 194.9919128  29.7610855  60.1478386 194.0494385  29.9774704
  61.6975479 194.8183289  29.5112782  60.6463165 195.6483002  31.1652470
  60.8108253 196.8786316  31.3001881  60.7170372 194.8638306  32.2093925
  61.0452881 195.2563782  33.0801735  60.7176895 193.8540649  32.1880379
  58.9173126 196.1869965  26.4140759  57.7085915 195.9163818  26.2144165
  59.5616035 197.1459808  25.8592262  60.5174522 197.2016754  26.1807003
  59.0282631 198.2462158  25.0517616  58.3374901 198.8596802  25.6301937
  60.1148415 199.1819458  24.7095261  60.7190781 199.3827820  25.5942097
  60.7429428 198.7211609  23.9471169  59.7038193 200.5539856  24.0993462
  59.1092529 200.3827057  23.2019844  59.1175842 201.1246796  24.8195782
  60.9470139 201.3619232  23.6555309  61.6829796 201.3548126  24.4595280
  61.3766937 200.8776245  22.7786465  60.7008286 202.8720703  23.3501701
  61.6424065 203.3194427  23.0317402  59.9370308 203.0074463  22.5844078
  60.2970924 203.6909332  24.5186214  60.8926239 203.5408173  25.3204403
  60.3747292 204.6696625  24.2816181  59.3760185 203.4374695  24.8464546
  58.4179420 197.6763153  23.7732048  57.3507500 198.1202240  23.3456974
  59.0894661 196.6975098  23.1233883  59.9801979 196.4078827  23.5012894
  58.5959549 196.0527191  21.9097710  58.2973595 196.7835236  21.1581955
  59.7617111 195.3867798  21.3016548  60.5355415 196.0924683  20.9995003
  60.1525536 194.6456604  21.9988575  59.4816284 194.3963318  20.1393414
  59.1228905 194.8860016  18.8713779  59.0630608 195.9509277  18.7018032
  58.9605598 194.0768127  17.7464619  58.8679276 194.5190430  16.7655144
  58.9556694 192.6463013  17.8997498  58.6291656 191.8376007  16.8852921
  58.6446571 192.2090302  16.0001926  59.1929970 192.1410370  19.1794682
  59.1989784 191.0799255  19.3804893  59.4231873 193.0026855  20.2509384
  59.6179695 192.5410461  21.2076817  57.3852844 195.0964661  22.1415424
  56.3614044 195.3099670  21.4958000  57.4189377 194.2899323  23.2189140
  58.2791405 194.3205566  23.7473221  56.2388649 193.6071930  23.6983604
  55.9722595 192.8395538  22.9718895  56.6400566 192.8106537  24.9802361
  57.2571869 191.9665222  24.6725006  57.2642746 193.4211731  25.6327114
  55.4407234 192.2932129  25.8548546  54.8074150 193.1487122  26.0897293
  54.8303299 191.6145630  25.2590694  56.0365334 191.6459656  27.0818214
  55.9042931 190.4469757  27.1796284  56.4444962 192.4082184  28.0393085
  56.5563660 192.0269318  28.9678631  56.2877235 193.3978729  27.9124470
  55.1008911 194.5813293  24.0196705  53.9675941 194.2799530  23.5629463
  55.3303642 195.6321716  24.8200226  56.2100677 195.7013245  25.3113937
  54.2647018 196.7151642  25.0237274  53.4049988 196.1796875  25.4265633
  54.7677879 197.7527161  26.0792103  55.1899872 197.1342773  26.8712940
  55.5192375 198.4223938  25.6609421  53.6737480 198.6839752  26.6475849
  53.3642464 199.3070679  25.8085041  52.8485947 198.1693573  27.1399136
  54.2893944 199.6889038  27.6806412  54.6464767 199.1442719  28.5546989
  55.0960503 200.2879791  27.2581234  53.2608376 200.6501770  28.1860695
  53.2955208 201.4519043  27.4484043  52.2419090 200.2648163  28.2232208
  53.6079712 201.1433716  29.5497265  54.5688553 201.4528503  29.5175877
  52.9952507 201.8735352  29.8836765  53.6180801 200.4494324  30.2835236
  53.7628746 197.3781586  23.7002735  52.6799011 197.9285278  23.7295704
  54.5775185 197.4449921  22.5804310  55.5364952 197.1971283  22.7779846
  54.1647873 198.0637665  21.3286800  53.4904823 198.8895721  21.5555344
  55.4731865 198.6974335  20.7522621  55.8354950 199.2671814  21.6079578
  56.2454605 197.9644928  20.5188332  55.1094055 199.5369873  19.5371990
  54.7280197 198.9031830  18.7366238  54.2796326 200.1984100  19.7864151
  56.3053017 200.3813477  18.9544449  57.0845795 199.6875916  18.6389828
  55.9562988 200.9572296  18.0973263  56.7816391 201.3191376  19.9532776
  56.5405846 201.0778046  20.9039345  57.4471893 202.4409485  19.7855549
  58.0672989 202.6835327  18.6224709  57.9556656 202.0714111  17.8268871
  58.3838539 203.6137390  18.3887672  57.5030899 203.3685608  20.7523575
  56.9966583 203.3305206  21.6253853  58.2476349 204.0502777  20.7203751
  53.4505310 197.1566162  20.3427200  52.3784409 197.5721893  19.8155556
  54.0724220 195.9843750  20.1593914  54.9826813 195.7810059  20.5468998
  53.5856972 195.0134735  19.2115841  53.4362679 195.5208130  18.2584972
  54.7283669 194.0001831  18.9202309  55.6477089 194.5151367  18.6414146
  54.9853935 193.5295258  19.8691864  54.3317184 192.8766479  17.9534664
  53.6343651 192.1793365  18.4177380  53.7711411 193.2522888  17.0974522
  55.5605240 192.1247253  17.4149818  56.2650833 192.8616028  17.0293579
  55.9937935 191.5457611  18.2305641  55.2099113 191.0850372  16.3614693
  56.0166206 190.3523560  16.3840981  54.2784500 190.5804138  16.6180496
  55.1807671 191.6271667  14.9768085  56.1063194 191.9123535  14.6902399
  54.8477783 190.9269867  14.3295441  54.5966225 192.4496307  14.9274368
  52.3103142 194.3557587  19.6601372  51.5274925 193.8732910  18.8781395
  52.1294746 194.2758942  20.9749718  52.8881187 194.5332642  21.5900478
  50.9452324 193.6271667  21.6147175  50.3086395 193.3333130  20.7801476
  51.3845673 192.4212494  22.5369034  52.0636597 192.8154297  23.2929211
  50.4392471 192.0147705  22.8964005  52.1005630 191.4153595  21.6953163
  51.5095482 190.6274109  20.7067642  50.4334106 190.6299133  20.6155052
  52.2551956 189.7398834  19.8760586  51.8189545 189.0763397  19.1440697
  53.6297188 189.5881958  20.0937557  54.1927032 188.9419708  19.4366074
  54.2357826 190.3839417  21.0767593  55.3039360 190.4121246  21.2338009
  53.4909134 191.2908325  21.7573109  54.0262680 191.9178162  22.4549370
  50.0082397 194.5991669  22.3564701  49.2156219 194.1358185  23.1064091
  50.0545425 195.9141083  22.0831127  50.7560081 196.2164001  21.4223080
  49.1207695 196.9060211  22.6828079  49.2318878 196.8458557  23.7654591
  49.4879379 198.3045044  22.1088524  50.5036316 198.5598907  22.4109173
  49.4542656 198.2223969  21.0224705  48.5962982 199.4916382  22.3586826
  48.9031982 200.5111084  23.2391853  47.8233910 201.2828064  23.2255802
  47.7103348 202.1769714  23.8206387  46.8917351 200.8179169  22.3848801
  45.9411201 201.1590118  22.3752728  47.3786430 199.6703949  21.7802944
  46.9327164 199.0880890  20.9875374  47.6440010 196.5453949  22.3369713
  46.7231483 196.7897491  23.1553764  47.3915825 195.9241943  21.1979198
  48.1842728 195.9210510  20.5720367  46.0502892 195.5392151  20.7294216
  45.3621559 196.3516998  20.9627285  46.0404129 195.5236664  19.2009792
  46.7613029 194.7762299  18.8696651  45.0743027 195.1593475  18.8516865
  46.5742340 197.1323090  18.5705700  45.5034981 197.8671570  18.8842793
  45.4263115 194.2591400  21.2915344  44.2395363 193.9338989  21.2062416
  46.1907997 193.6375885  22.1602840  47.1315231 194.0029602  22.2008076
  45.7450409 192.6332703  23.1431789  45.3629265 191.7869110  22.5724182
  46.9992676 192.0970612  23.8255825  47.3957329 192.9211273  24.4187374
  46.7237892 191.4341431  24.6457901  47.6376724 191.6205292  23.0816364
  44.7166748 193.1688690  24.1342545  43.9612083 192.3628540  24.7061863
  44.5060234 194.4750977  24.2511845  45.1272049 195.1353455  23.8058453
  43.5394745 195.1068420  25.1597958  43.6940460 194.7014008  26.1597137
  43.8000641 196.6247559  25.2237625  43.2334023 197.1434784  25.9970188
  44.8694496 196.7588959  25.3866081  43.4891357 197.2220306  23.8955574
  43.7618370 198.1419525  23.9267864  42.1201859 194.8708344  24.7095566
  41.2177277 194.8471832  25.5373859  41.8252716 194.6597748  23.4199963
  42.6398621 194.6759491  22.8230991  40.5409317 194.3598480  22.8391323
  39.7563782 194.9868011  23.2628136  40.4883995 194.5525360  21.3262157
  40.9553680 193.6816406  20.8662605  39.4903564 194.6103363  20.8918476
  41.2143631 195.7865601  20.7643261  42.2637482 195.7011871  21.0464745
  41.1230202 195.8798676  19.2268028  40.1102829 195.7602844  18.8418865
  41.4901390 196.8507690  18.8941154  41.8077240 195.0874786  18.9244633
  40.5972595 197.0811920  21.3325844  40.8072395 196.9724426  22.3966274
  41.1773720 197.9025879  20.9119930  39.5103302 197.1137238  21.2575550
  40.0420570 192.9404449  23.1719151  38.8226662 192.6732941  23.3624954
  41.0127296 192.0292969  23.2538300  41.9543343 192.3861542  23.1754990
  40.9602585 190.5986023  23.5871696  39.9777031 190.2813110  23.2378674
  41.9124222 189.6976624  22.8829060  41.5793800 188.6894531  23.1292896
  41.9508400 189.7958069  21.3827209  42.3522720 190.7489014  21.0383873
  42.4678612 188.9579926  20.9148998  40.9355850 189.6605072  21.0098095
  43.2388115 189.8380280  23.3866882  43.6925430 189.0594940  23.0556011
  41.0328865 190.3547668  25.1193638  41.3007965 191.2558899  25.9092960
  40.7105560 189.1529694  25.5849094  40.4589195 188.4223785  24.9345055
  40.6140480 188.8201294  27.0355682  40.2462158 189.7053680  27.5543633
  39.6018944 187.7280884  27.1674805  39.5071869 187.3972168  28.2017212
  38.6277313 188.0681763  26.8161144  39.9508781 186.6173096  26.3481064
  40.5541649 186.1134491  26.8992634  41.9595757 188.4991302  27.7148247
  41.9874687 188.0852509  28.8811817  43.0368996 188.7064209  27.0582924
  42.9914474 189.3298035  26.2649307  44.4212303 188.3330536  27.4700909
  44.3989601 187.8181915  28.4305725  45.0191460 187.2763367  26.5387383
  45.2117043 187.7009583  25.5534916  46.0361176 187.0067291  26.8236732
  44.1257858 186.0940094  26.2782097  43.4641685 185.8041534  25.1427841
  43.5388145 186.3282928  24.2014503  42.7423363 184.5841827  25.2426281
  42.0893822 184.2297211  24.5584431  42.8489075 184.0867920  26.5482559
  42.3253174 182.9332428  27.1635284  41.5173645 182.3618774  26.7309189
  42.7906647 182.5895538  28.4566460  42.3448944 181.6876678  28.8494282
  43.6319237 183.4269714  29.1785278  43.9564819 183.1792450  30.1783791
  44.0351067 184.6635895  28.5754051  44.6378899 185.2996216  29.2067051
  43.7131195 185.0423279  27.2516041  45.4450874 189.4196320  27.5792294
  45.4791756 190.2381897  26.6787949  46.3399200 189.4439087  28.5703125
  46.5244255 188.4007416  29.6184788  46.6234398 187.4093018  29.1765194
  45.6374626 188.4149628  30.2518768  47.7661591 188.7512054  30.3804226
  48.5582848 188.1884613  29.8864994  47.7127495 188.4786530  31.4344463
  47.9504547 190.2434387  30.1481781  48.9992447 190.5372772  30.1905861
  47.2755470 190.8199768  30.7808094  47.3260231 190.4669342  28.7513695
  46.8562927 191.4504852  28.7433147  48.3884430 190.3684845  27.6639538
  48.7533836 189.2713165  27.1954231  49.1414528 191.5079041  27.3765049
  48.8763695 192.8401337  27.9535217  49.3313560 192.8433838  28.9440155
  47.8096123 193.0274963  28.0761414  49.5038452 193.8213043  27.0172443
  49.7949524 194.7124023  27.5733757  48.8194695 194.1710663  26.2443275
  50.6771965 193.0273895  26.4681034  51.5224266 193.0722809  27.1548939
  51.1067276 193.3961029  25.5366230  50.1182480 191.5613251  26.2830982
  49.5954208 191.4290161  25.3358669  51.2317085 190.4669800  26.3212471
  51.5457840 189.8688354  25.2840595  51.7193985 190.0854645  27.4844589
  51.4488716 190.5473785  28.3409443  52.7142677 189.0381470  27.6991463
  53.4902039 189.4432831  27.0496235  53.2347374 189.0809021  29.1206799
  53.9758301 188.2868500  29.2121372  53.8586006 189.9679871  29.2301464
  52.3258095 188.8823395  30.2610550  51.8513985 189.8470306  31.0942345
  52.0176773 190.9089203  30.9887447  50.9753189 189.3254395  32.0179710
  50.4175301 189.8203888  32.6991463  50.8879547 187.9465637  31.8401089
  50.0804291 186.9373932  32.4073906  49.3745499 187.1549988  33.1952896
  50.1396713 185.6058960  31.9906120  49.5355415 184.8827820  32.5183907
  51.0702057 185.2364197  31.0091972  51.1171265 184.2492981  30.5735207
  51.8879166 186.2110443  30.4126263  52.4728241 185.9808655  29.5343876
  51.7558784 187.6099701  30.7740173  52.3629837 187.6194458  27.2708054
  53.2620049 186.8864441  26.8045101  51.0825958 187.1716156  27.2456169
  50.3237877 187.8167114  27.4134388  50.7015228 185.8675232  26.7220058
  51.3214531 185.1983490  27.3186646  49.2276230 185.5363922  27.0137100
  49.0016708 185.6397552  28.0750141  48.7380409 186.2936554  26.4013519
  48.7770195 184.0975647  26.5468597  48.9508743 184.0141907  25.4740486
  49.3904953 182.9487610  27.3577652  49.2734871 183.0929718  28.4318256
  49.0199127 181.9485321  27.1334362  50.4591675 182.8742218  27.1565685
  47.2556190 183.9900513  26.6125908  46.9124413 184.8091278  25.9805832
  46.9161987 183.0480804  26.1817951  46.9587669 184.1513214  27.6489143
  51.1032753 185.6511688  25.2370949  51.6508751 184.6376343  24.8864193
  50.7695312 186.6357117  24.4154778  50.4528580 187.5158234  24.7965469
  51.1152992 186.5786285  22.9974689  50.5912628 185.6568756  22.7447414
  50.4096565 187.7223663  22.2612572  50.7419357 188.6739349  22.6762257
  50.7653694 187.7287445  21.2309532  48.8697701 187.6375275  22.1964703
  48.2052574 186.6060638  21.5128460  48.8409042 185.8601074  21.0590763
  46.7875214 186.5077362  21.5234375  46.3378105 185.6880798  20.9827614
  46.0691528 187.4664917  22.2338314  44.7363358 187.4933319  22.2981186
  44.3803711 187.0097504  21.5490875  46.7467651 188.5288391  22.8898849
  46.2487106 189.2636719  23.5049992  48.1519814 188.5932922  22.9208488
  48.5609589 189.3717499  23.5478668  52.6226120 186.4822693  22.6871185
  52.9751701 185.7779846  21.7720318  53.4885063 187.0711823  23.5347595
  53.0681915 187.6255035  24.2669983  54.9357605 186.8584290  23.3936844
  55.3017235 187.2596588  22.4485970  55.7276154 187.6044922  24.4377422
  55.4118118 187.2681122  25.4252739  56.7747726 187.3958130  24.2186108
  55.5601387 189.0400848  24.4398270  56.0415726 189.4064178  25.1852207
  55.3992844 185.3752747  23.5323296  56.3774452 184.9730988  22.9573936
  54.6162033 184.5275574  24.1650352  53.7518158 184.8729401  24.5570126
  54.8934441 183.0591125  24.4136181  55.9759560 182.9880829  24.3076820
  54.3233795 182.5617828  25.7721024  53.2461319 182.4834900  25.6254520
  54.7825813 181.5818939  25.9027195  54.5813522 183.3625031  27.1056366
  53.8807640 184.1955414  27.0479202  54.2729263 182.6531830  28.4794102
  55.0890732 181.9471893  28.6330128  54.3886299 183.4982300  29.1580868
  53.2739029 182.2196198  28.4339771  56.0260887 183.9492035  27.2893028
  56.1068535 184.6595001  26.4664745  56.1425133 184.4997253  28.2228260
  56.6723709 183.1152039  27.0156670  54.3393517 182.1852417  23.2688923
  54.5129356 180.9855499  23.2530575  53.8268700 182.8079071  22.2398682
  53.4549866 183.7426147  22.3301125  53.4349899 182.1984711  20.9756145
  53.7944336 181.1723785  20.8979511  51.9147720 182.1556244  20.8668194
  51.5661812 183.1692810  21.0645199  51.5874939 181.7755127  19.8990841
  51.2262230 181.2006989  21.8319454  50.7601051 181.7476044  23.0359726
  50.8504257 182.8122711  23.1931496  50.1679726 180.9408875  23.9669304
  49.7670975 181.3048553  24.9014015  49.9086914 179.5655518  23.7343540
  49.2899475 178.8122559  24.6996040  48.7012901 179.2368011  25.3279762
  50.3774834 178.9706726  22.5349388  50.2466087 177.9138489  22.3549728
  50.9932518 179.8184357  21.5337181  51.2086868 179.4157410  20.5550346
  54.0384369 182.9918823  19.7765388  53.9177589 182.6696625  18.5790157
  54.7069702 184.1120911  19.9943256  54.7922287 184.4303589  20.9490700
  55.3657913 184.9596100  18.9855766  54.6201439 185.2124023  18.2317810
  55.6890182 186.2663422  19.6608105  54.7384682 186.7626038  19.8564739
  56.2620277 186.0825958  20.5696583  56.4968452 187.2080231  18.6704884
  56.4220695 187.0447235  17.4144573  57.4561348 187.8793335  19.1566677
  56.6490135 184.3671265  18.3787575  57.6195335 184.2075958  19.1123524
  56.6656952 183.9707031  17.0728893  55.8438263 184.1173553  16.5044479
  57.8392143 183.3119354  16.4409332  58.0240746 182.3507385  16.9205570
  57.5734100 182.9430847  14.9643431  57.6177330 183.8273163  14.3285065
  58.2988777 182.1669006  14.7207680  56.6133423 182.4488831  14.8155823
  59.0997276 184.1517792  16.5796337  60.1918564 183.6280060  16.6881142
  59.0813026 185.5187378  16.6459389  58.1680756 185.9391174  16.7429123
  60.2576141 186.3407745  16.8763905  61.1223259 185.9658051  16.3288670
  59.9128876 187.8010712  16.4414482  59.0377617 188.1881866  16.9633656
  60.7121773 188.4635925  16.7735558  59.7107239 187.9276581  14.9147024
  58.8620186 187.2646637  14.7466211  59.5180588 188.9693451  14.6580954
  60.9041405 187.4047699  14.0988140  62.0810204 187.4064026  14.4869642
  60.6664047 186.9676514  12.9754734  60.7553787 186.2896271  18.2867355
  61.9729462 186.1866150  18.5508060  59.8546715 186.3057098  19.3022156
  58.8931389 186.5809326  19.1615009  60.2915039 186.1343536  20.6938286
  61.2277451 186.6900787  20.7460613  59.1278648 186.4594269  21.6449776
  58.2652435 185.8028870  21.5311928  59.5372391 186.2927551  23.1531162
  60.4839745 186.8328857  23.1594124  58.8256645 186.7194672  23.8599930
  59.6185570 185.2294312  23.3785973  58.6180191 187.8032074  21.4743576
  58.2810898 187.8770294  20.5784626  60.7793236 184.6593628  20.9597797
  61.7214737 184.4595947  21.6498585  60.0835037 183.7192841  20.3482399
  59.2605858 183.9371643  19.8047066  60.4830856 182.3483124  20.4997959
  60.5656776 182.0146942  21.5341949  59.4111137 181.4866638  19.7295017
  59.2410583 181.9197388  18.7437878  59.8867264 180.5150604  19.5958691
  58.0601921 181.2947693  20.4750309  57.7009544 182.2691040  20.8062973
  56.9646912 180.7808838  19.5207233  57.2896576 179.9231110  18.9319019
  56.1259995 180.4594421  20.1382751  56.4232712 181.4175262  18.8209629
  58.2529259 180.3382874  21.6631660  59.0605888 180.7167358  22.2897205
  57.3609200 180.2729797  22.2861900  58.3475761 179.3359833  21.2454071
  61.8602486 182.0093231  19.8388786  62.4269753 181.0879059  20.3310108
  62.2404137 182.6807098  18.7713280  61.6691933 183.4431915  18.4359989
  63.6017685 182.5763092  18.2378197  63.7697716 181.5004578  18.1885414
  63.7744331 183.2026672  16.8212032  63.3423576 184.2023773  16.7765007
  64.8450699 183.2853241  16.6340923  63.1583900 182.3222198  15.7480650
  63.7310867 181.3987274  15.6626596  62.1341782 182.0768280  16.0289230
  63.1319351 183.0163269  14.0956392  64.8988724 183.1060028  13.6386738
  65.3324051 182.1063995  13.6693087  64.9591293 183.4785614  12.6160908
  65.4775467 183.7576447  14.2933645  64.6363373 183.1924591  19.2219296
  65.7580185 182.6877441  19.3230877  64.2509308 184.3249054  19.7852001
  63.4060593 184.8011169  19.5032101  65.2162552 184.9418640  20.6882896
  66.1512909 185.0721893  20.1434536  64.6994629 186.3527069  21.1068745
  64.5677567 186.9062347  20.1771717  63.8199081 186.1279144  21.7101612
  65.7301483 187.1407776  22.0116558  65.3159409 188.1411285  22.1374664
  65.7214432 186.6824341  23.0005646  67.1361160 187.2550812  21.4045868
  67.1853104 187.5000610  20.1871929  68.1336060 187.0137177  22.0786934
  65.4830246 184.1635895  21.9628811  66.6229553 184.0883484  22.3947487
  64.4884262 183.4400330  22.5867748  63.5621109 183.6403656  22.2376270
  64.8128128 182.5688324  23.7796555  65.2435684 183.1269684  24.6109428
  63.4557114 182.0136566  24.3897285  62.9238091 181.5503082  23.5587692
  63.6449547 181.3319550  25.2189274  62.5452385 183.1701813  24.8786736
  63.0567932 183.6149750  25.7322388  62.4583473 183.9914246  24.1672440
  61.1448822 182.7022858  25.3561153  60.4668732 183.5439606  25.4974957
  60.7589912 182.1296844  24.5127144  61.2935867 181.9956512  26.6134834
  62.2192688 181.9601135  27.0159187  60.2805176 181.4023132  27.2911282
  59.0501366 181.2333069  26.8495331  58.8371239 181.7956085  26.0380230
  58.4286118 180.6351929  27.3749561  60.5712547 180.8063354  28.3626366
  61.5388222 180.7038574  28.6335793  59.8300247 180.4022980  28.9171162
  65.8172379 181.5157013  23.3596840  66.6501846 181.1945190  24.1947212
  65.7033615 180.9060211  22.1303673  64.8203125 181.0711060  21.6687737
  66.6019440 179.8031158  21.7715015  66.8843765 179.1918488  22.6286373
  65.9315033 178.9068756  20.6579933  65.5804825 179.5447235  19.8467979
  66.8660583 177.8153076  20.1439896  67.1534348 177.2964783  21.0585022
  66.1834183 177.1725464  19.5881443  67.7451630 178.2185059  19.6413002
  64.5702896 178.2779541  21.2255058  63.9447250 178.9938049  21.7587395
  64.0144424 177.9249878  20.3568516  64.7705460 177.4014435  21.8417263
  68.0201111 180.4183044  21.3980179  69.0180283 179.8411407  21.8540573
  68.0882416 181.5823975  20.7236977  67.2705231 182.1267548  20.4889507
  69.3557358 182.2571564  20.5203857  70.0122147 181.6277161  19.9195900
  69.2596588 183.5760498  19.7472553  68.5034561 184.1579895  20.2741394
  70.1940002 184.1028442  19.9411716  69.0103607 183.4933929  18.2169132
  69.7616501 182.8133698  17.8153667  68.0277252 183.0657196  18.0178432
  68.9906540 184.9329376  17.7083893  68.1062546 185.4900665  18.0174847
  69.8722458 185.4683838  18.0608025  68.8992081 184.9002686  16.1937885
  69.6360397 184.1846771  15.8289185  67.9372177 184.5120697  15.8591585
  69.2369308 186.2620392  15.6028519  70.1616898 186.5765076  15.8598318
  69.2380676 186.2002869  14.5947418  68.6272659 187.0114746  15.8973961
  70.1687241 182.4885406  21.7998581  71.3014450 182.0915527  21.9084167
  69.5808334 183.0955353  22.8053799  68.7032013 183.5700684  22.6482563
  70.1768875 183.2974243  24.1650715  71.0948715 183.8732452  24.0475101
  69.0951385 184.1427307  24.9837551  68.7626877 184.9236755  24.2998753
  68.2267609 183.5308685  25.2279434  69.7053757 184.8306732  26.2819099
  70.0806122 184.0600433  26.9552860  70.5295105 185.4962311  26.0251541
  68.6447754 185.7494049  27.0160866  69.1362991 186.3574677  27.7755451
  68.3440628 186.4955444  26.2805824  67.5476227 184.9551544  27.5437698
  67.7105026 183.9825134  27.7618294  66.3648529 185.3603516  27.9070816
  65.9395523 186.6235199  27.8293743  66.5005417 187.4021454  27.5145321
  65.0373383 186.9047241  28.1857777  65.4688034 184.5013123  28.3382397
  65.8176193 183.6063690  28.6505013  64.5858154 184.8449554  28.6880283
  70.6377945 182.0109100  24.8467369  71.5212708 182.0317993  25.6695671
  70.1565628 180.8256683  24.4472141  69.3202057 180.7750092  23.8832569
  70.7654419 179.5494690  24.8276443  71.2387924 179.6859131  25.7999706
  69.5633774 178.5661926  25.0060883  68.8653870 178.9421997  25.7540989
  69.0172729 178.4663544  24.0680542  69.8729401 177.1364899  25.4015083
  68.9323044 176.5924377  25.3160000  70.5235825 176.7089691  24.6386242
  70.4475937 177.0600128  26.8013458  69.7332916 176.8806915  27.7469578
  71.7410736 177.0315704  26.8839359  72.1516342 176.9125977  27.7990265
  72.2513199 176.7687225  26.0528717  71.8294144 179.0828247  23.8191986
  72.8925934 178.6084290  24.2043247  71.6658936 179.2303925  22.4744148
  70.8755646 179.7093353  22.0668468  72.6458282 178.8196716  21.4637680
  72.8735962 177.8111725  21.8089390  72.0900116 178.7496338  20.0223312
  71.8838577 179.7600403  19.6692295  72.8864365 178.2934723  19.4343433
  70.8534088 177.9182434  19.7113762  69.9884415 178.1717682  20.3242855
  70.4934921 178.0887451  18.2360973  71.4413834 177.9285583  17.7223434
  69.7212372 177.4448547  17.8152332  70.2357407 179.1343536  18.0676441
  71.1152420 176.4159851  19.9706783  71.1976929 176.2996216  21.0513134
  70.2633362 175.7930908  19.6979752  72.0174103 176.0609741  19.4725094
  74.0236588 179.6025085  21.5578156  75.0996552 179.0731201  21.2316628
  73.9463959 180.8407898  22.0047131  73.0295029 181.2630463  22.0379944
  75.1412506 181.6396942  22.3249016  75.8689728 181.5525665  21.5180988
  74.8976822 183.1014862  22.6676598  73.9800110 183.2070618  23.2463074
  75.6923065 183.4102936  23.3468494  74.7955704 184.0197906  21.4349976
  75.8599319 184.8367157  20.9506016  75.3425751 185.4734955  19.8707104
  75.9176025 186.1713715  19.2801819  74.0160446 185.2016296  19.7785110
  73.3753967 185.6098328  19.1128998  73.6621552 184.2869110  20.7651520
  72.7122726 183.8126678  20.9631824  75.9679871 181.0430756  23.5956230
  77.2017136 181.1571808  23.5679855  75.2883224 180.4211426  24.5092354
  74.2805634 180.4871216  24.5221252  75.9392090 179.6682739  25.5430756
  76.7265854 180.3399353  25.8851261  74.9862671 179.3014069  26.7258453
  74.0728149 178.8933563  26.2931805  75.4126740 178.5132141  27.3463612
  74.5533524 180.5652771  27.4971085  74.6496811 181.4884796  26.9256878
  73.4935989 180.4430084  27.7209034  75.3389206 180.5672760  28.8271236
  75.9644012 181.6025085  29.1436729  75.3003311 179.5682983  29.5689602
  76.5452194 178.4374847  24.8963127  77.7304611 178.2229004  25.2203732
  75.9316330 177.6834869  23.9983463  75.0398407 177.9728088  23.6227036
  76.4670181 176.5160522  23.2865391  76.9415436 175.9515533  24.0892010
  75.3958054 175.6806183  22.5660229  74.8314896 176.3170166  21.8843651
  75.9698410 174.9565277  21.9878559  74.4660492 174.9238434  23.4661388
  74.6790237 174.8068542  24.7925510  75.5250015 175.2021484  25.3352127
  73.6379166 174.1307373  25.3728447  73.5082016 174.0509644  26.3712997
  72.7880249 173.6517334  24.3981209  71.6200256 172.8368835  24.4015102
  71.2766037 172.4415436  25.3460598  70.8977432 172.6179810  23.2130871
  69.9142914 172.1716309  23.2123089  71.3883743 173.1577911  21.9821777
  70.8757019 172.9899750  21.0465508  72.5458832 173.9249878  22.0127239
  72.9149017 174.3148651  21.0755901  73.2206268 174.2905273  23.2106419
  77.5932312 176.9085693  22.3171062  78.5371399 176.1272278  22.1544857
  77.6627808 178.1127472  21.7446976  76.8547516 178.6934509  21.9178410
  78.6679764 178.6098480  20.7861366  79.5577240 177.9881439  20.8858013
  78.1450577 178.4741058  19.3619213  77.6183701 177.5206451  19.4021626
  77.4298553 179.2595062  19.1175194  79.2426605 178.4558258  18.2826328
  80.3659134 178.9264526  18.5158806  78.9864120 177.9296570  17.1857529
  79.1089478 179.9908752  21.1647110  78.4172516 180.9272308  20.8029079
  80.2219849 180.1161804  21.9412460  80.7742844 179.2949219  22.1427402
  80.7645340 181.4166260  22.4777737  79.9886551 181.9473267  23.0295811
  81.8571930 181.1493073  23.5333977  82.7024384 180.6566772  23.0528011
  82.0939941 182.1526489  23.8874245  81.4034271 180.2523956  24.7086124
  82.0122757 180.6015778  25.5425644  80.3326569 180.3811340  24.8666058
  81.7396393 178.7741089  24.4774456  81.4378052 178.2319489  23.3867359
  82.1482620 178.0673370  25.4399948  81.2683792 182.4050446  21.3932018
  81.5606613 183.5473480  21.6712761  81.4868851 181.9430695  20.1530304
  81.1631775 181.0128174  19.9295559  82.0561829 182.7019348  19.0618305
  82.3879089 183.6448822  19.4964752  83.3917160 182.0666809  18.5203800
  83.3744965 181.0251465  18.8413563  83.4318161 182.2305756  17.4435196
  84.6329269 182.6486816  19.1982574  85.2512512 182.0779877  20.1062870
  85.1034470 183.7466736  18.6323433  85.9524307 184.1009064  19.0493011
  84.6323166 184.2776947  17.9139004  81.0648956 182.9909363  17.8665695
  81.4484711 183.5029755  16.8143845  79.8218384 182.4035034  17.9572754
  79.6500549 181.8874359  18.8083134  78.8109436 182.4423828  16.8693256
  79.2987823 182.0908813  15.9601707  77.7105331 181.4420471  17.2074833
  78.1928406 180.4737244  17.3409328  77.3395767 181.7278290  18.1917725
  76.5337219 181.3277130  16.1571083  76.9825516 181.6504669  15.2177038
  75.9178696 179.9562988  16.1828651  75.4334412 179.8311615  17.1512508
  75.2546921 179.9388733  15.3180017  76.6301651 179.1392670  16.0680103
  75.3727646 182.3236084  16.4691143  75.6427689 183.3796082  16.4772778
  74.6736832 182.2755890  15.6342020  74.7871323 182.1829071  17.3775997
  78.3609085 183.8709564  16.6125240  77.7751923 184.5284576  17.4610500
  78.5107880 184.3514709  15.3853912  79.1165771 183.8749542  14.7326508
  77.9187012 185.5545654  14.8262663  77.5931091 186.1951752  15.6458483
  79.0684433 186.1840363  13.9951286  79.4498291 185.4450378  13.2904816
  78.6086349 186.9911346  13.4248018  80.1765518 186.6778412  14.8855705
  79.7392883 187.3486633  15.6250944  80.7314072 185.9097595  15.4243574
  81.2467422 187.4333038  13.9754887  82.2099762 187.5594177  14.4698238
  81.5109634 186.7180481  13.1965866  80.8732452 188.8000793  13.3819256
  81.7154236 189.2287445  12.8387003  80.0741653 188.7748718  12.6410198
  80.4586334 189.8023834  14.3951502  81.2178955 190.4110107  14.6656799
  79.6320038 190.3246002  14.1420231  80.1985703 189.2648773  15.2097397
  76.6265564 185.2556152  14.1021519  76.6559296 184.2611084  13.3834343
  75.5534744 186.0689240  14.2602320  75.6470947 186.8700256  14.8681602
  74.1634140 185.7688599  13.8671427  73.8666306 184.9506378  14.5232849
  73.2542267 186.9703064  14.2551918  73.7184753 187.9130249  13.9656200
  72.3169250 186.7712097  13.7356491  72.9478607 187.0635681  15.8207903
  73.7941513 186.6737671  16.6515217  71.7568893 187.3469238  16.1307678
  74.0149307 185.4001160  12.3664255  73.1627274 184.5141754  12.0244608
  74.8565216 185.9221954  11.4620304  75.5022736 186.6016846  11.8380480
  74.7700806 185.8186493   9.9571533  73.8923645 186.3157501   9.5440950
  76.0318069 186.5255585   9.4782448  76.8841782 185.9123688   9.7707586
  75.9629822 186.4978790   8.3907690  76.2976227 187.9997253   9.9555750
  76.7305222 188.0612488  10.9540310  77.0702972 188.3210449   9.2571344
  75.0419388 188.9156952   9.7862577  74.3698654 188.7708435   8.6923227
  74.7160416 189.8418579  10.5879154  74.8213425 184.3319702   9.4470711
  74.2932968 183.9957733   8.3810978  75.4023895 183.3778076  10.2473135
  75.7871628 183.6578674  11.1381617  75.3975525 181.8759766  10.0046968
  75.5930176 181.7087708   8.9454803  76.5246582 181.2850952  10.7901230
  76.7203293 180.2497101  10.5111990  77.4415665 181.8487244  10.6177912
  76.2434158 181.3397217  12.1679382  77.0267639 181.1466980  12.6882334
  74.0219803 181.1490936  10.2980280  73.9237823 179.8993378  10.0728073
  72.9692459 181.8032990  10.8236046  73.0168457 182.7951202  11.0083971
  71.6869659 181.1863098  11.2244902  71.7565384 180.1022339  11.1347332
  71.4044266 181.4238586  12.7617073  71.4834366 182.5081024  12.8407850
  70.4220352 181.0463257  13.0454121  72.4696274 180.8116608  13.7041302
  73.4798737 181.1038208  13.4175177  72.2627487 181.2472839  15.2668152
  71.2034607 181.0932617  15.4724331  72.9464722 180.7422180  15.9491158
  72.3943024 182.3262939  15.3475685  72.4309921 179.2649689  13.6414623
  72.6807327 178.8696289  12.6568594  73.2088318 178.8605804  14.2891798
  71.4438705 178.8762512  13.8916292  70.5135880 181.6510468  10.2923927
  70.5048828 182.7713470   9.8376741  69.4840927 180.8188782  10.1277933
  69.5513306 179.3721619  10.3447809  69.2153244 179.1187744  11.3502626
  70.5575104 179.0078583  10.1374474  68.6385040 178.7621613   9.3485537
  68.2124634 177.8049622   9.6491404  69.1883926 178.7716217   8.4074707
  67.5253983 179.8061218   9.1990767  66.8018723 179.6477051   9.9987698
  67.0295715 179.6215057   8.2460976  68.3104553 181.1284485   9.3000469
  68.6864014 181.3954163   8.3123751  67.4477005 182.2740784   9.8208437
  66.9808273 182.3314514  10.9358301  67.1223755 183.2149658   8.8659248
  67.5532150 183.1956482   7.9526339  66.2789764 184.4155884   9.1637173
  66.5074310 184.8241272  10.1480942  66.5342331 185.5239716   8.1321154
  65.7089462 186.2315216   8.2120781  67.7819824 186.3006592   8.4979630
  68.6461563 185.6363525   8.4979162  67.9528046 187.0440521   7.7193151
  67.6970978 186.7563629   9.4844875  66.7304535 185.0343475   6.7841496
  66.7752151 185.8236389   6.2395082  64.7425995 184.1123047   9.2086716
  63.9046631 184.8623047   9.7096395  64.3522873 182.8408203   8.8822498
  65.1181641 182.2189941   8.6657591  62.9997520 182.2977448   8.7437954
  62.3646507 183.1668243   8.9154110  62.8758240 181.6479950   7.3114390
  63.4795265 182.2183228   6.6054797  63.3048248 180.6470337   7.3576298
  61.4699593 181.6817780   6.7918448  60.8289986 182.7127228   6.8049126
  60.9240417 180.5347443   6.3493743  60.1045074 180.7911072   5.8176389
  61.5427780 179.7797699   6.0900006  62.6917534 181.3493805   9.8810110
  63.4611969 180.3897552  10.0818768  61.6378174 181.5364838  10.7289963
  60.5967255 182.5591736  10.6209097  60.3068619 182.7546844   9.5885048
  60.9895554 183.5128021  10.9736195  59.4348640 182.0166321  11.4904222
  58.8625488 181.2545776  10.9614296  58.8183289 182.8027039  11.9264059
  60.1964798 181.3336029  12.6071548  59.5939903 180.6565399  13.2126999
  60.5901718 182.1455994  13.2185163  61.4266396 180.7109985  11.9090614
  62.2529755 180.8428345  12.6075525  61.1450081 179.2599945  11.5708323
  61.6227036 178.4536133  12.3471642  60.5838432 178.9107056  10.3982525
  60.2688675 179.6483917   9.7844925  60.4155617 177.5164795   9.9044600
  59.8104324 176.9900208  10.6425447  59.6150551 177.5138397   8.5768633
  60.0509796 178.3067017   7.9690504  59.7019119 176.2938385   7.6658001
  59.6068382 175.3494263   8.2016640  58.9672813 176.2055359   6.8654127
  60.7047882 176.3981781   7.2517271  58.1214561 177.9747620   8.7856941
  57.4186401 177.2897186   8.3114939  57.9544182 177.9552917   9.8626432
  57.9969521 179.4486542   8.2435608  57.8025246 179.3877716   7.1727715
  57.1379356 179.9324951   8.7084188  58.8673286 180.0754089   8.4377613
  61.7996292 176.8228607   9.8213367  62.1260109 175.9096527  10.5899286
  62.6511955 177.3259888   8.9277639  62.2973557 178.0783386   8.3542948
  64.0388260 176.9436035   8.8586559  64.0484161 175.9212952   8.4806423
  64.7089844 177.8205261   7.7643604  64.7357483 178.8031311   8.2354012
  65.7573853 177.5622711   7.6151924  63.9838982 177.9849243   6.3774977
  62.7878990 178.3864746   6.3180838  64.6912003 177.6618958   5.3420029
  64.9415588 176.8999176  10.1025705  65.7462692 175.9289398  10.2469883
  64.7807465 177.8462372  11.0255079  64.2685089 178.6553345  10.7044621
  65.4891815 177.9586639  12.2527895  66.5639496 177.8319244  12.1227608
  65.2664490 179.3376617  12.8721085  65.5394211 180.0378113  12.0825720
  64.1912155 179.4187469  13.0315027  65.9209671 179.6197815  14.2582111
  65.2259979 179.1730652  15.4278355  64.2734756 178.6664276  15.3786421
  65.8165512 179.3281708  16.6675510  65.3828506 178.9668427  17.5882797
  67.0549622 179.9477844  16.7625046  67.6030197 180.0353699  17.6889839
  67.7487488 180.3619537  15.5764580  68.7544098 180.7296295  15.7173882
  67.2199020 180.1010590  14.3382483  67.8533936 180.1033936  13.4635553
  65.1503830 176.8287659  13.2086010  65.9634247 176.0389709  13.7025366
  63.8119049 176.7507172  13.4471350  63.1405525 177.4374390  13.1344290
  63.2603188 175.7057343  14.3664341  63.7515450 175.7453613  15.3386612
  61.7693329 175.8820343  14.6702242  61.4710922 175.2462158  15.5038166
  61.4642487 176.9167633  14.8263245  61.1479416 175.5277100  13.4197350
  61.3109474 176.1630249  12.7187309  63.6071968 174.3141327  13.9062605
  63.9885521 173.5097809  14.7368765  63.5704575 174.0498657  12.5669508
  63.1240997 174.6783752  11.9143867  64.0651093 172.7796936  11.9868784
  63.4582748 171.9936829  12.4363527  63.7282791 172.6739349  10.4897184
  64.0453491 173.6116333  10.0333290  64.4486237 171.9784241  10.0590687
  62.3710213 172.2655334  10.0151215  61.7513809 171.1047821  10.5242767
  62.3076706 170.5060577  11.2302952  60.5499916 170.6187592   9.9198790
  60.0256958 169.7354279  10.2533836  60.0425529 171.2924194   8.8409281
  58.8955154 170.8821564   8.2642851  58.7973976 171.1883087   7.3597188
  60.6497726 172.4557190   8.3517389  60.2180061 172.9411774   7.4889979
  61.7606049 172.9837036   8.9691105  62.3155327 173.8251190   8.5811996
  65.5037537 172.4675751  12.3496752  65.7762604 171.3174591  12.7290163
  66.4903641 173.3839264  12.2186089  66.2061234 174.2654724  11.8159094
  67.9137726 173.2194824  12.5955467  68.3067856 172.3477173  12.0724125
  68.7264099 174.5010529  12.2675762  68.4119034 174.8776855  11.2942648
  68.5041046 175.2265778  13.0500784  70.2430573 174.2102203  12.3669996
  70.8015823 175.1416473  12.4597340  70.5350723 173.6172943  13.2337570
  70.8157806 173.7140503  10.9786997  71.9011765 173.6413269  11.0474567
  70.3931656 172.7208862  10.8266010  70.4389267 174.6120453   9.8735800
  69.6116638 174.3277283   9.3687115  71.2012863 175.5129700   9.2963333
  72.3311386 176.0224915   9.8389559  72.5687103 175.7146912  10.7711153
  72.8361130 176.7490387   9.3518991  70.9160843 176.0073090   8.1202564
  70.0944672 175.6764679   7.6348748  71.5461502 176.6958466   7.7342114
  67.9718704 172.7771454  14.1182241  68.6281509 171.7841797  14.3993444
  67.1876831 173.4345398  14.9059744  66.5535126 174.0885468  14.4698610
  67.1803360 173.1734467  16.3640156  68.2197113 173.1299133  16.6894512
  66.5015182 174.2652283  17.1698704  65.5412750 174.4393005  16.6843376
  66.4381866 173.9432373  18.6968250  67.3801117 174.0133972  19.2408428
  65.8295898 174.7612457  19.0822639  66.0334091 172.9746094  18.9901009
  67.2611542 175.5921173  17.0229645  67.3728638 175.8155365  15.9619684
  66.7832489 176.4128571  17.5578308  68.2981644 175.5632324  17.3574295
  66.5739822 171.8070221  16.6568718  67.1778183 170.9741516  17.3713436
  65.3757172 171.3815155  16.0589294  64.8530426 172.0860138  15.5583439
  64.8478317 170.0317841  16.2612705  64.6610031 169.7620392  17.3007088
  63.5342941 170.0624847  15.4994144  63.7954865 170.2347565  14.4552813
  63.0334358 169.0970154  15.5709753  62.9241982 170.8955688  15.8484821
  65.7758102 168.8981781  15.7416277  65.9327164 167.8833313  16.4279575
  66.5499649 169.1253967  14.6732464  66.3976974 169.9789429  14.1551981
  67.6251144 168.2687836  14.2004604  67.1069260 167.3343658  13.9849281
  68.0869370 168.8588562  12.8761806  68.5788956 169.8236694  12.9995480
  68.8327103 168.1313019  12.5558920  67.3156433 168.9089508  12.1076097
  68.7453003 168.1405640  15.2378092  69.1278000 166.9726105  15.4932842
  69.3100128 169.2194824  15.8192167  68.9149323 170.1292877  15.6288376
  70.5327301 169.1810608  16.6139202  71.1667709 168.3643036  16.2689438
  71.3492203 170.4334106  16.4040489  72.3558655 170.3545990  16.8146095
  71.3952560 170.6773834  15.3426952  70.5230560 171.8260193  17.1185017
  69.4266586 171.6485443  16.3760071  70.3187408 168.9256439  18.1336937
  71.2998428 169.0110474  18.9020290  69.0241394 168.7366333  18.5570850
  68.2856064 168.8587952  17.8790398  68.6208496 168.5976715  19.8962421
  69.2444153 169.3169556  20.4271946  67.1597061 168.9414215  20.0986156
  66.6481781 168.8146362  19.1444836  66.7387161 168.2264404  20.8054867
  66.9066010 170.3608551  20.6211185  67.3343887 171.1675568  20.0258617
  65.3893127 170.5175934  20.7913113  65.0774765 169.8887024  21.6251869
  65.2498627 171.5461884  21.1239815  64.8566513 170.2766876  19.8713512
  67.5429459 170.5457001  21.9999313  68.5878067 170.8100128  21.8371315
  67.0984650 171.4122467  22.4894543  67.4597549 169.7104187  22.6952648
  68.8420105 167.1068115  20.4442997  68.3696442 166.2326202  19.7538700
  69.5001373 166.9027100  21.5892925  70.3792953 167.8817596  22.2141075
  69.8146744 168.7652130  22.5121212  71.1344452 168.1589050  21.4785538
  70.9355316 167.1820068  23.3976879  70.2607574 167.3448029  24.2380962
  71.8802414 167.6560211  23.6640434  71.0341721 165.6962585  23.0316257
  71.0039749 165.1053009  23.9470234  71.9658127 165.4962616  22.5023422
  69.7676468 165.5428314  22.1435051  70.0971222 164.8698578  21.3518944
  68.5543900 164.9756317  22.8542404  68.1774979 165.5106201  23.9091740
  67.9199142 163.9362030  22.3495655  68.2422180 163.4995422  21.4977722
  66.6765060 163.3567352  22.9230976  66.8356400 163.3317108  24.0011272
  65.3437805 164.1978302  22.6625404  64.7837143 163.5817413  21.9590778
  64.4655304 164.2146912  23.9442844  65.0241852 164.3399353  24.8718185
  63.6243896 164.8877411  23.7782021  64.0078430 163.2380219  24.1015759
  65.5334473 165.6403198  22.0532932  65.9862595 166.2970886  22.7960739
  66.1761551 165.4541931  21.1928349  64.2464066 166.3371124  21.5711079
  63.7926483 166.7330322  22.4796638  64.4668045 167.1165771  20.8417530
  63.5964661 165.6041565  21.0931435  66.4336548 161.9922791  22.4736271
  66.9719315 161.5826721  21.4305267  65.6229935 161.1817474  23.1937962
  65.1811523 161.4664917  24.0562344  65.1752625 159.8560486  22.6950817
  66.0009232 159.2869415  22.2678871  64.6272583 159.0837708  23.9419346
  64.3924789 158.0497742  23.6892872  65.3646088 158.9740143  24.7371426
  63.3273201 159.7365875  24.5050163  63.5092430 160.6999664  25.2792873
  62.2558937 159.1938782  24.1078777  64.0677185 159.9314575  21.6263371
  63.3568344 160.9326935  21.4576759  63.9706764 158.8499756  20.8805923
  64.5127411 158.0643311  21.2107868  63.3593292 158.7305450  19.5587444
  63.7849388 159.5150146  18.9329853  63.4346924 157.3937836  18.8020439
  63.1181679 156.6230164  19.5047798  62.7540207 157.4021912  17.9507408
  64.8318405 157.0018158  18.3462391  65.7705154 157.8432922  18.3237076
  65.0650558 155.7853394  18.0163174  61.8547935 159.0520477  19.7001400
  61.3691063 159.7617340  18.8604584  61.2023239 158.6809998  20.7900658
  61.7218323 158.3350372  21.5841179  59.7299080 158.8543396  20.9691811
  59.3105011 158.3948364  20.0741653  59.2423248 157.9646149  22.1857281
  59.6543846 158.2233734  23.1611042  58.1820869 158.1692810  22.3344383
  59.3248672 156.9042664  21.9471416  59.3499718 160.3380585  21.0116177
  58.3707428 160.8022156  20.3830566  60.1363525 161.1660767  21.6670799
  60.8945923 160.7782288  22.2099857  60.0378151 162.6255798  21.7953453
  59.0031471 162.8808899  22.0242043  60.8207932 163.0099335  23.0737114
  60.4714508 162.2906647  23.8144608  61.8684731 162.7709961  22.8910046
  60.6670799 164.4921722  23.5555820  61.4527817 165.0167542  23.0118961
  59.3316536 165.1861877  23.3332157  58.5678902 164.6407623  23.8875446
  59.2906418 166.2230530  23.6668758  59.1471634 165.1627960  22.2591953
  60.9640427 164.6327972  25.0562668  61.9609146 164.2610016  25.2931747
  60.9195518 165.6954956  25.2945595  60.2240372 164.0551300  25.6101608
  60.4335403 163.2767181  20.4940548  59.7618675 164.2660828  20.1273937
  61.4955101 162.7938080  19.8062305  61.8359642 161.9011536  20.1338730
  61.8867455 163.2665863  18.4258575  61.9887657 164.3506470  18.3758030
  63.2751198 162.6661072  18.0367069  63.2018433 161.6399994  18.3970451
  63.4891472 162.6204681  16.9689007  64.3647156 163.4776611  18.7172794
  64.3171158 164.5121765  18.3772526  64.0720215 163.4931793  19.7671299
  65.7884216 162.9097900  18.6658669  66.5400085 163.5305481  19.1535969
  65.8377380 162.0609741  19.3479061  66.4223633 162.6685028  17.3202286
  66.1751099 161.7985840  16.8705521  67.2651901 163.4778900  16.5969067
  67.6043701 164.6366425  17.0317745  67.2185364 164.9566650  17.9085999
  68.1330719 165.2716064  16.4509068  67.7959900 163.1837616  15.4349403
  67.5690079 162.2967529  15.0085697  68.6639633 163.6007233  15.1302071
  60.7574234 162.8690491  17.3882351  60.6263275 163.7033844  16.5121975
  59.8577728 161.8532410  17.5561962  60.1397324 161.1170654  18.1875820
  58.5850410 161.7420197  16.8003845  58.7672462 161.8461151  15.7307739
  58.1096191 160.2938385  17.0260944  57.9314461 160.2102051  18.0981789
  56.7771797 160.1719055  16.2738895  56.8375702 160.4364624  15.2182083
  56.4047928 159.1475067  16.2670727  55.9637718 160.7224121  16.7465553
  59.0359497 159.2294312  16.4091568  58.8688622 159.1999664  15.3324432
  60.0972939 159.3628540  16.6185589  58.6309891 157.8396912  16.9896793
  57.7495956 157.3944397  16.5281658  59.3330421 157.1396484  16.5367184
  58.6826973 157.7813110  18.0768852  57.6358719 162.8541718  17.2422619
  57.0630836 163.5912323  16.3836250  57.4433937 163.0620422  18.5598984
  57.9519463 162.4843903  19.2139530  56.5111656 164.0356293  19.0898228
  55.5475121 163.7115021  18.6968632  56.4148026 163.9977417  20.6512985
  57.3524590 164.3265991  21.0993595  55.6985283 164.7837830  20.8904266
  55.9480095 162.7160339  21.3496075  56.7883034 162.0240631  21.4059811
  55.8054237 162.8795319  22.4178047  54.7335129 161.8844452  20.8030224
  53.7837715 162.3630981  20.1537609  54.6267929 160.6177216  21.1440010
  53.8878822 160.0840302  20.7089252  55.2745171 160.2019958  21.7980061
  56.8733788 165.5307617  18.6585064  56.0415878 166.3912506  18.3749886
  58.2087517 165.7133179  18.4386082  58.8830261 165.1672668  18.9556026
  58.7700157 166.8811646  17.7479935  58.3113251 167.7263184  18.2612286
  60.2292480 167.0244141  18.0381660  60.3956413 166.7426147  19.0778809
  60.8539047 166.4501801  17.3539352  60.8282890 168.4895020  17.9126701
  60.6784935 168.7937775  16.8767796  60.0596466 169.3899536  18.8260479
  60.1728516 169.0456390  19.8540192  60.4957695 170.3887329  18.8085022
  59.0498428 169.6121216  18.4810200  62.3107529 168.5219421  18.2151260
  62.9196014 167.8215637  17.6434135  62.6788826 169.5390472  18.0805931
  62.4185066 168.3552399  19.2868977  58.4023323 166.8418274  16.2446365
  57.8279114 167.7310028  15.7543507  58.7837029 165.8005981  15.5022316
  59.2912865 165.1020355  16.0261230  58.6663208 165.7068329  14.0420237
  59.2545242 166.5010986  13.5823975  59.1997375 164.3142090  13.5593491
  60.1951180 164.0219269  13.8938398  58.6650391 163.6096649  14.1963940
  58.9270973 163.8086853  12.1106901  57.8739166 163.9172974  11.8516216
  59.7830505 164.6846161  11.2105999  60.8217125 164.3628540  11.1347542
  59.5210800 164.4580383  10.1770954  59.6751442 165.7473450  11.4275665
  59.1881218 162.3597565  11.8597555  58.6036835 161.7338715  12.5341530
  58.8846626 162.2435913  10.8193130  60.2287750 162.0632935  11.9910975
  57.1758041 165.8446655  13.6113205  56.8964653 166.2551727  12.4887791
  56.2771988 165.4204865  14.4767647  56.5643349 165.0753937  15.3815107
  54.7936478 165.5299530  14.3298712  54.5095062 165.1507111  13.3482704
  54.1183701 164.7243500  15.4786749  54.8094521 164.2969208  16.2051773
  53.5141830 165.3872070  16.0981007  53.2025185 163.5954285  14.9641581
  52.3034744 163.9981842  14.4976721  53.6592522 162.9073029  14.2528391
  52.7385826 162.8159027  16.2354851  53.6008224 162.3224640  16.6839924
  52.4029579 163.5184784  16.9982681  51.6517906 161.8720398  15.7366381
  50.8792686 162.4372253  15.2152233  52.1509476 161.1592407  15.0802402
  51.0195084 161.2494354  16.9002075  50.8081818 161.9770966  17.5679932
  50.1840744 160.7787018  16.5830784  51.6287537 160.6576385  17.4467506
  54.2062912 166.9727173  14.3166351  53.0877190 167.1131744  13.7834578
  54.8944244 167.9144287  14.9626045  55.7733688 167.6959686  15.4096336
  54.4673882 169.2862701  15.0881081  53.7229576 169.3366241  15.8827085
  55.6538696 170.1637726  15.6224842  56.4985580 170.0065308  14.9517565
  55.3030128 171.6769867  15.5348721  54.2836266 171.9204407  15.8343287
  55.9645500 172.1257782  16.2758522  55.6256065 172.1388550  14.6017561
  56.0767593 169.7709198  17.0818520  56.3068542 168.7056122  17.0981808
  57.0093956 170.2904510  17.3018284  55.0266571 170.1038208  18.1319695
  54.2008591 169.3937988  18.0869770  55.5450897 169.9940186  19.0844765
  54.7142792 171.1393127  17.9966602  53.9085388 169.8543091  13.7566261
  54.4678345 169.7143402  12.6965380  52.8195610 170.6509247  13.8428965
  52.4284744 170.8067169  14.7609835  52.2309914 171.3186035  12.7535906
  52.2469902 170.6269379  11.9113092  51.1821709 171.5233459  12.9684162
  52.9752655 172.5708160  12.4618340  53.3720169 172.7249756  11.3120031
  53.2167473 173.4888153  13.4083853  52.8841324 173.2611542  14.3344765
  53.8421288 174.7933197  13.0451288  54.1012650 174.7816772  11.9864445
  52.8091049 175.8818817  13.4643154  51.8640251 175.7612305  12.9348183
  52.6096039 175.7254944  14.5244312  53.3752289 177.2029877  13.2692413
  53.2495232 177.4321899  12.3455191  55.1576843 175.0910950  13.7821083
  55.2616425 174.6435089  14.9242926  56.0316658 176.0262604  13.2447367
  55.9396286 176.2359924  12.2610483  57.3030434 176.3640900  13.9026918
  57.8777313 175.4545746  14.0776548  58.1110535 177.2304230  12.9642086
  57.4619904 178.0775604  12.7424564  58.9666901 177.6926575  13.4564695
  58.3070869 176.6643066  12.0536089  57.0783691 177.0710144  15.2656384
  57.8660469 176.8843842  16.1702557  56.0397491 177.8252716  15.3756313
  55.4040298 177.8660889  14.5918598  55.5641785 178.4043884  16.6542034
  56.2517776 179.1627502  17.0286179  54.1919785 179.1503754  16.4370575
  53.5731735 178.4513245  15.8744631  53.5662155 179.4408875  17.8726120
  54.1835175 180.0423126  18.5399437  52.6023560 179.9448547  17.8011932
  53.4271278 178.5099182  18.4221954  54.4820366 180.4883423  15.7834768
  54.9901009 181.1543579  16.4808960  55.1368942 180.2718048  14.9394560
  53.2110519 181.1656647  15.2394505  52.5705223 181.5038757  16.0539722
  53.4729080 182.0836945  14.7133770  52.7063484 180.4807892  14.5580378
  55.5291252 177.3467712  17.7423439  56.2733612 177.4221191  18.7150879
  54.7364044 176.2744293  17.5169334  54.2363281 176.1767426  16.6448765
  54.7564049 175.1189117  18.4176903  54.6237946 175.3923187  19.4644775
  53.7543030 174.1099243  17.9754620  54.0707626 173.6633453  17.0328522
  53.8882408 173.2705688  18.6578312  52.2757339 174.4301147  17.9320602
  51.9199142 174.2694702  18.9497471  52.1741333 175.5053864  17.7851410
  51.5371056 173.7699280  16.7920265  51.9063110 172.8242493  16.1127262
  50.2396507 174.1384430  16.6883678  49.7412834 173.6437073  15.9624453
  49.9077263 175.0069580  17.0828495  56.0913887 174.4187775  18.4485130
  56.5087166 174.0081940  19.5281734  56.8408203 174.3115234  17.3391628
  56.3620567 174.5333862  16.4779682  58.0833778 173.5133972  17.4309769
  57.9561615 172.5371399  17.8987923  58.6607971 173.2181854  16.0244980
  57.8111496 172.8398132  15.4561424  59.0283928 174.1474152  15.5891705
  59.7487755 172.0946045  16.0094433  60.6809082 172.5623627  16.3263435
  59.5017204 171.3206635  16.7361374  60.0306549 171.4726562  14.6661034
  60.9952011 170.9688721  14.7290335  59.3055420 170.7279968  14.3377686
  60.2233658 172.5150909  13.5957499  61.0111046 173.1456909  13.6394529
  59.3958397 172.7497253  12.5983067  58.3089981 171.9981079  12.2825298
  58.1123543 171.0993652  12.6992941  57.8034477 172.3449860  11.4799166
  59.6094360 173.7480469  11.7779436  60.4263802 174.3346252  11.8707819
  58.9489708 173.9911804  11.0535307  59.0516205 174.1552124  18.3687153
  59.6469994 173.4858551  19.2659321  59.1594276 175.4781189  18.3258419
  58.5751114 175.9861755  17.6773300  59.9241180 176.3231964  19.2231197
  60.9116974 175.8898468  19.3812180  59.9084206 177.7453766  18.7157345
  58.8962326 177.8795776  18.3342037  60.0300369 178.4968567  19.4958401
  60.9573593 177.8774109  17.5756950  61.0941582 176.9807587  16.9712181
  60.4565468 179.0452271  16.6224155  60.3186874 179.9564209  17.2045155
  61.2467461 179.2267151  15.8938856  59.5164566 178.8718109  16.0987225
  62.2932396 178.3433228  18.1729813  62.5538406 177.5648651  18.8900509
  63.0164948 178.3927765  17.3590031  62.1976013 179.3544159  18.5687447
  59.4390640 176.2764893  20.6475677  60.2673836 176.1537476  21.5349731
  58.1188622 176.2970886  20.9011230  57.5419579 176.3187408  20.0723820
  57.6322174 176.0349274  22.2839184  58.0363541 176.7845764  22.9642086
  56.0808372 176.1886749  22.2160931  55.6224136 175.5699921  21.4446106
  55.7348595 175.8645325  23.1975861  55.6995735 177.6983795  22.1187630
  55.9965858 178.1777954  23.0515289  56.2582016 178.2484283  21.3614693
  54.1618996 177.9512634  21.9232216  53.9498215 179.0198517  21.8880138
  53.8705101 177.5992584  20.9336338  53.4042206 177.2187958  23.0508804
  52.9956741 176.3471985  22.7451248  53.2507706 177.5225067  24.3065853
  53.5684242 178.6829376  24.7693615  53.9481087 179.3670349  24.1306477
  53.2404671 178.9403534  25.6892986  52.7436066 176.6273956  25.1040268
  52.6724739 175.6919861  24.7297974  52.5641937 176.8271942  26.0776787
  58.1023521 174.7068329  22.8202515  58.6305008 174.6256866  23.9078255
  57.9551888 173.6565399  22.0471554  57.4039497 173.7402649  21.2050018
  58.2733459 172.3405762  22.5260544  57.7684555 172.1480865  23.4726982
  57.8473663 171.2783508  21.4502392  56.8087273 171.4015656  21.1434059
  58.5061531 171.4742432  20.6042328  58.2434387 169.6401215  22.0436058
  57.5873528 168.8932037  21.1511078  59.7737122 172.1867676  22.8197479
  60.1833801 171.5566711  23.8315144  60.5482788 172.7518005  21.9011993
  60.1377525 173.2370605  21.1162853  61.9718361 172.8816681  22.1232262
  62.4010315 171.8800201  22.0988598  62.6323128 173.6707611  21.0224991
  62.1462555 174.6367798  20.8858871  63.6489754 173.9189301  21.3273182
  62.6532784 172.9815979  19.6392975  63.3929253 172.1837463  19.7060814
  61.7345200 172.4229431  19.4607067  62.8717117 173.9722748  18.4612694
  63.3242378 175.1119843  18.6411686  62.4605446 173.5424194  17.3177242
  62.3231316 173.4815826  23.4796810  63.2293320 172.9682617  24.1572342
  61.6631851 174.6223907  23.8540039  60.9399452 174.9956055  23.2558956
  61.9179192 175.2742004  25.1399174  62.9935646 175.4396973  25.2008018
  61.2870865 176.6661072  25.1614780  60.2242508 176.6166382  24.9247684
  61.2798920 177.1273804  26.1490421  61.8745918 177.6746368  24.1362839
  62.0667572 177.2161713  23.1662445  60.9170341 178.8217926  23.9092712
  60.7157707 179.3530884  24.8394985  61.4397430 179.4792480  23.2145481
  59.9805031 178.5726776  23.4103241  63.2346306 178.1916962  24.5127335
  63.9440002 177.3780823  24.6641693  63.7477646 178.9057007  23.8685436
  63.0312347 178.7933502  25.3985939  61.4998436 174.5363770  26.3753223
  62.1573563 174.5972595  27.4055653  60.4274178 173.7295990  26.2490921
  60.0232620 173.6718140  25.3252850  59.9113197 172.7373199  27.1858521
  59.7706566 173.2693024  28.1267605  58.5432777 172.2190857  26.6041298
  57.9016647 173.0722351  26.3837490  58.6174889 171.6587219  25.6721458
  57.6727524 171.3705139  27.5434093  58.1429520 170.9668884  28.6178532
  56.4579964 171.2098846  27.2270451  60.9482498 171.6316528  27.5030251
  61.1513519 171.4078979  28.6780434  61.6463737 171.1303101  26.4636383
  61.2563133 171.4233856  25.5792961  62.8052597 170.2402649  26.4951515
  62.4719200 169.4766693  27.1979313  63.1045952 169.5564270  25.0993042
  63.3325615 170.3336639  24.3699055  64.3515701 168.6895905  25.2569790
  64.1595764 167.9135895  25.9979763  64.4250717 168.0996552  24.3433723
  65.2537994 169.2751160  25.4337234  62.0046921 168.5599060  24.5538940
  62.2732430 167.5153656  24.7118111  61.0035210 168.7238922  24.9524689
  61.9220009 168.7646179  22.9999695  62.8713341 168.8168793  22.4669304
  61.3311882 167.9981384  22.4984035  61.3858337 169.6787872  22.7452202
  63.9442520 171.0327759  27.1391869  64.4971771 170.6238556  28.1610870
  64.3855362 172.1720886  26.5873528  63.8908615 172.4466553  25.7506866
  65.5840530 172.9282379  27.0264530  66.4598694 172.2823029  26.9647446
  65.8323898 174.1431885  26.0714283  64.9875412 174.8200836  25.9443340
  66.6647568 174.7595367  26.4111156  66.3400726 173.6457062  24.7206459
  67.2146759 173.0230560  24.9090214  65.5511703 172.9603119  24.4108696
  66.4701385 175.0121613  23.5143776  67.2436981 174.2753143  22.1451263
  66.6151199 173.4392853  21.8385124  67.5766525 175.0241089  21.4264069
  68.1449432 173.7765045  22.5015678  65.4246521 173.3567657  28.4545765
  66.4752808 173.4021606  29.0447540  64.2626724 173.6408234  28.9791183
  63.4154739 173.7814484  28.4475307  64.1780624 174.0198822  30.4071941
  64.8726654 174.8344879  30.6122417  62.7453690 174.5774689  30.6729927
  62.0169449 173.8524017  30.3099670  62.6760712 174.7419739  31.7482777
  62.4776726 175.9769135  30.0339851  63.3816986 176.6680756  29.5532570
  61.2105598 176.4115906  30.0609741  60.9861221 177.3460693  29.7503586
  60.5501709 175.8002167  30.5194454  64.4791870 172.8558960  31.3659725
  65.0814438 172.9438171  32.4569664  63.9410286 171.6820221  30.9642277
  63.4905891 171.7021027  30.0604572  63.8239326 170.4428558  31.7691555
  63.8646851 170.6800690  32.8322487  62.4555054 169.8216095  31.4655704
  62.4268150 169.7980194  30.3762035  62.4125252 168.7987671  31.8398132
  61.3230019 170.7131500  32.1013145  61.4084663 170.5521851  33.1759720
  61.4535370 171.7851562  31.9534054  59.9301453 170.2962189  31.6240311
  59.9513283 169.9741058  30.5829296  59.6669121 169.4320068  32.2339058
  58.8328934 171.3928680  31.8153343  58.8254051 171.7181244  32.8556442
  59.0724297 172.2658081  31.2081242  57.4754143 170.8750916  31.4528198
  57.1799278 170.0644836  31.9779053  56.8028526 171.5776367  31.7251911
  57.4254951 170.7972260  30.4470615  64.9616241 169.4476471  31.5207272
  65.0579910 168.4158783  32.2655106  65.7750854 169.6400604  30.4779015
  65.6189117 170.4083099  29.8410988  66.9453201 168.9386292  30.1601257
  66.8365707 167.8605042  30.2780857  67.3500137 169.4265747  28.7567539
  66.5071182 169.3759460  28.0675087  67.5992355 170.4839478  28.8460484
  68.7757950 168.6217651  28.0359955  68.3148270 167.4058685  27.7293606
  68.0795746 169.2239380  31.2540646  68.4281540 170.3756866  31.5184002
  68.7359314 168.1743927  31.7463875  68.5850143 167.2478027  31.3738956
  69.7481232 168.3523712  32.8250160  70.2338104 169.3097076  32.6359711
  69.1605835 168.4140320  34.2650108  70.0317230 168.5736237  34.9004288
  68.2317047 169.6309967  34.5915298  67.2575836 169.3370819  34.2006187
  68.2555695 169.7639465  35.6731300  68.6602249 170.5307007  34.1499405
  68.4778214 167.2400360  34.5469437  67.8514557 167.0929108  33.8344688
  70.9172821 167.3804626  32.7033997  71.7523270 167.4885712  31.8318615
  70.9274292 166.3044891  33.5205460  70.2201233 166.2622986  34.2402954
  71.6937790 165.0990448  33.3625107  72.7443314 165.3539276  33.5020523
  71.4055634 164.1304932  34.4908295  71.6938171 164.5931244  35.4347534
  70.3430405 163.8948059  34.4308243  72.2237167 162.9480133  34.4589920
  72.1031113 162.5362091  35.3177567  71.4591522 164.3949738  31.9635048
  70.2971268 164.2123413  31.4950962  72.4959335 163.8230133  31.3913765
  73.4143753 163.9169769  31.8009357  72.3539124 162.7835541  30.3127537
  71.2805099 162.6012268  30.2610054  72.6949997 163.3853149  28.9069824
  73.7839584 163.4192810  28.9403954  72.5615082 162.6528015  28.1109314
  72.0519943 164.7501678  28.4184551  71.9872971 165.4722900  29.2323685
  72.7234879 165.4851227  27.2729073  72.9957504 164.8300629  26.4453373
  72.1671677 166.3277893  26.8623791  73.6892471 165.7602081  27.6968822
  70.6454010 164.4024963  27.9338531  70.0885162 163.8396912  28.6830044
  70.0554352 165.2423096  27.5667686  70.8057480 163.6827087  27.1311741
  73.1285095 161.4650116  30.6391678  74.3560028 161.3220062  30.9085808
  72.3903732 160.3288879  30.5694752  71.4192429 160.4591064  30.3244133
  72.8368912 159.0287628  31.1469936  73.8306351 159.0676270  31.5931568
  71.8287811 158.6180115  32.2000847  70.9363022 158.3232422  31.6480961
  72.0892868 157.6542969  32.6376839  71.5788116 159.8777161  33.4731979
  70.9342880 159.1984711  34.4261436  72.9243622 157.9101715  30.0258980
  72.4204407 158.0341187  28.9190159  73.6462555 156.8181000  30.3580704
  74.0897217 156.7452545  31.2625771  73.6172256 155.6143494  29.5191021
  73.8137741 155.8975983  28.4850636  74.7817993 154.6842651  29.8771610
  75.6658707 155.1776733  29.4733391  74.8025513 154.5631256  30.9602108
  74.7075882 152.9888611  29.1087227  73.8122787 152.4506989  29.9416122
  72.2281036 155.0227661  29.6047020  71.7774582 154.7677002  30.7289200
  71.6522293 154.6267853  28.4627800  72.1771927 154.8341522  27.6252193
  70.2202454 154.1696320  28.4100800  69.5418930 154.8575592  28.9147587
  69.7638092 154.0423889  26.9504585  70.0191879 154.9294739  26.3708324
  70.3037109 153.2303009  26.4635086  68.2580032 153.7930756  26.7762527
  68.1320496 152.7821655  27.1639194  67.7393646 154.4749298  27.4501896
  67.8383713 153.8329620  25.3331680  68.5848541 153.2462921  24.7977409
  66.8498230 153.3808136  25.2529182  67.9592743 155.2756042  24.8441582
  67.2902832 155.8279419  25.5040646  68.9871674 155.6328888  24.9064426
  67.3999481 155.4542542  23.4161377  66.4739685 155.0778351  23.2713356
  67.3419113 156.4110565  23.0979366  67.9895935 155.0601501  22.6970367
  70.1054535 152.8125153  29.1405048  69.1180954 152.6008606  29.8992577
  71.0343857 151.8687592  28.9254665  71.8575668 152.1490479  28.4117393
  70.8900681 150.5432892  29.5502853  69.9500961 150.1157837  29.2012901
  72.0078125 149.6640472  28.9055042  71.8988419 149.7447662  27.8239746
  72.9713287 150.0624237  29.2233486  72.0313797 148.1522217  29.2597847
  72.4248199 148.1204834  30.2758064  71.0512009 147.6764679  29.2917233
  72.8000107 147.2804871  28.2663860  73.4432526 147.7812653  27.2721710
  72.8760834 145.9949646  28.4340591  73.3255768 145.5034485  27.6748047
  72.5615234 145.4786987  29.2431450  70.8367767 150.5587158  31.1088848
  70.2032623 149.6967621  31.7019119  71.5575409 151.4842987  31.8177452
  72.2424850 152.0011292  31.2849655  71.4479294 151.7739410  33.2590599
  71.3098679 150.8704224  33.8529510  72.7343674 152.4706879  33.6864433
  72.7486877 153.4919891  33.3058395  72.7787018 152.5050507  34.7750015
  74.2748108 151.6050110  33.2905464  74.9871826 152.1633759  34.2732277
  70.2036591 152.6325073  33.6083679  69.6678009 152.5583191  34.7187996
  69.7962799 153.4459229  32.6140480  70.2979889 153.2700806  31.7552853
  69.0208893 154.7393646  32.7633781  68.9334106 155.1562805  31.7600670
  67.5590286 154.3293457  33.1157188  67.6390228 153.7712555  34.0485878
  66.9433899 155.2153473  33.2709656  66.9002457 153.3730621  32.0855865
  67.1349792 153.6490173  31.0575562  67.2750702 152.4020538  32.4092445
  65.3978348 153.3246460  32.2307930  64.7425842 154.2689056  32.7100220
  64.7462921 152.3357849  31.7417355  63.7468338 152.4721680  31.7926064
  65.1724701 151.4850311  31.4030647  69.5503769 155.7711945  33.7706718
  69.3152695 156.9565735  33.4870224  70.2408676 155.3837433  34.8101158
  70.1692963 154.4120026  35.0760193  70.6630707 156.2804108  35.8841248
  70.0306091 157.1676178  35.8534698  70.2696991 155.6702576  37.2653885
  70.5108261 156.3908844  38.0468330  69.1971512 155.4832611  37.3179550
  71.1122284 154.4431610  37.7233391  71.9175110 153.9707794  36.9230270
  70.8872910 153.8656769  38.7996063  72.1490860 156.7525787  35.9439735
  72.4578552 157.7676239  36.5523643  73.0997391 156.0640717  35.2862740
  72.7932358 155.2952728  34.7074013  74.4989319 156.4546661  35.2986603
  74.8018951 156.6096039  36.3341827  75.4522324 155.3752441  34.7979851
  75.2999802 155.3946533  33.7188416  76.8838272 155.6186066  35.2155342
  77.0252609 155.5269012  36.2924232  77.3732147 154.8136444  34.6672287
  77.2660828 156.5939026  34.9142532  75.2121887 154.0404816  35.2132301
  74.8840408 154.1025238  36.1132660  74.7020569 157.7217865  34.3999023
  74.7612228 157.6144714  33.1879234  74.9367142 158.9091949  35.0124626
  74.7313614 158.9282532  36.0011826  75.3251266 160.1247406  34.3533249
  74.5595474 160.3393402  33.6077194  75.5354767 161.1757202  35.4408646
  74.6321182 161.3479309  36.0259972  76.3873978 160.8725891  36.0495071
  75.8910294 162.6249390  34.8905602  76.7362061 162.6454620  34.2025452
  75.0620346 163.0072327  34.2949753  76.3113861 163.6097565  36.0339928
  76.3677292 163.2109222  37.1946335  76.6170120 164.7903290  35.7421570
  76.6410370 159.9521790  33.5375977  77.6299057 159.5287170  34.0367088
  76.6211319 160.4907990  32.2869720  75.7864685 160.8369141  31.8357124
  77.8280334 160.5847778  31.4597874  78.6760406 160.0757751  31.9179497
  77.6238174 159.6577759  30.2278271  76.5628128 159.5475616  30.0037308
  78.3648529 160.1897430  28.9449196  79.3819962 160.4280548  29.2559376
  78.3746948 159.5202637  28.0848045  77.9154587 161.1558380  28.7151413
  78.1386108 158.2249298  30.4225368  77.9950790 157.6286926  29.5214291
  79.1896515 158.3311615  30.6911182  77.4438553 157.3227234  31.4142666
  76.3795090 157.1731110  31.2329063  77.9932632 156.3944550  31.5710258
  77.3468399 157.8796844  32.3461914  78.2369690 161.9949799  31.2300129
  79.4133224 162.2577057  31.1468258  77.2298813 162.8234253  30.9358978
  76.2795715 162.5328217  31.1163559  77.3818130 164.2695770  30.9005623
  78.1042175 164.5836334  31.6539536  77.9516068 164.6768799  29.5207539
  78.8542175 164.1498108  29.2115536  76.9121246 164.7107544  28.3658276
  76.1924286 165.5293427  28.3723183  77.4138718 164.6935272  27.3983269
  76.2942505 163.8232880  28.5027256  78.4420242 166.0516510  29.5750160
  79.3916321 166.0009918  29.7064648  76.1535797 165.0434113  31.3936825
  75.1046600 164.5202332  31.8426514  76.1916962 166.3805847  31.4021492
  77.0545654 166.8135986  31.1054134  75.1518707 167.3539886  31.8223381
  74.1542892 166.9234467  31.7354202  75.3827133 167.6456909  33.2817154
  75.2616882 166.7470703  33.8866272  76.6232071 168.2845306  33.7512321
  76.6754761 169.2955322  33.3472214  76.7606430 168.2670746  34.8323936
  77.5172119 167.7955322  33.3642807  74.3950500 168.4940338  33.8394470
  74.7889862 168.9652557  34.5772552  75.0482407 168.5929260  30.8884735
  76.0452423 168.9875183  30.2699680  73.9548645 169.3340454  30.9538269
  73.2421341 168.9356079  31.5482655  73.6082153 170.4443207  30.0723457
  73.4159164 169.9989319  29.0962620  72.3172531 171.0482635  30.6852589
  71.4693069 170.3647919  30.7295074  72.5083160 171.3322296  31.7201309
  71.9187546 172.2740631  29.8866367  72.7082748 173.0162048  30.0048218
  71.9056091 171.9768524  28.8380184  70.5693054 172.8827820  30.2710533
  69.8995895 172.0446014  30.0785980  70.6761475 173.1671448  31.3178654
  70.2423248 174.0951538  29.3784294  71.0813522 174.7816620  29.4917622
  70.1335449 173.7991943  28.3350353  69.0409241 174.8158569  29.7679501
  68.9799271 175.0146179  30.7563190  68.9600830 175.7173462  29.3197498
  68.1782150 174.3280792  29.5732517  74.8218460 171.4255524  29.8871880
  75.1305161 171.7461395  28.7475662  75.4294586 171.9516296  30.9617271
  75.0061417 171.7036438  31.8445663  76.3700104 172.9991913  30.9083729
  75.9559784 173.8080292  30.3063297  76.5649490 173.4771271  32.3350449
  77.0248337 172.7216949  32.9721527  77.2789993 174.2963562  32.2507515
  75.3133698 174.1015472  32.9782333  74.4425659 174.7691650  32.3645859
  75.0207901 173.8041840  34.1924744  74.2490768 174.2320404  34.6838989
  75.7238541 173.3300018  34.7410736  77.7269211 172.5985107  30.1561317
  78.4701996 173.4686127  29.7406693  77.8693466 171.2813263  29.9807644
  77.2307739 170.5667267  30.2996197  79.0067215 170.7988586  29.2079353
  79.8688202 171.4084930  29.4785309  79.3602142 169.3211975  29.5738106
  78.5222702 168.6697540  29.3256760  80.1868286 168.9499664  28.9680119
  79.7950668 169.1916199  31.0029984  78.9263840 169.2548065  31.6583576
  80.1638870 168.1679230  31.0671902  80.9640121 170.0880585  31.5767612
  81.7245712 170.7911835  30.8441410  81.2308731 169.9506226  32.7923927
  78.7684021 170.8160248  27.6478252  79.7047729 170.6243286  26.8332424
  77.5124588 170.8370972  27.2169037  76.7440033 170.8803864  27.8708954
  77.0868835 170.9703064  25.8253155  77.5599060 170.1542358  25.2790833
  75.5029602 170.8618164  25.6214008  75.1194077 171.7847748  26.0563107
  75.3116531 170.9530182  24.1054401  75.9452972 170.2009583  23.6353207
  74.3040390 170.7026367  23.7736149  75.5006104 171.9538879  23.7173042
  74.7825851 169.6058502  26.1509266  75.0974579 168.7445984  25.5616970
  75.1636429 169.4456024  27.1595001  73.2509384 169.8191833  26.2248974
  72.7880478 169.8358307  25.2382069  72.8018036 169.0029602  26.7907104
  73.0771332 170.8078766  26.6495972  77.7186432 172.2260132  25.1393661
  77.5035858 173.4051666  25.5216942  78.5049057 171.9588776  24.0501461
  78.5576859 170.9908752  23.7667675  79.1205902 172.8782501  23.1652470
  78.6125870 173.8382568  23.2570171  80.6042252 173.1588745  23.5498848
  80.8796692 174.2060547  23.4247322  80.6763535 173.0480194  24.6318321
  81.6065903 172.2793121  22.8735466  81.9504700 171.0374603  23.4171162
  81.3583832 170.6603088  24.2378502  82.9089737 170.2158356  22.7886162
  83.2176285 169.2937317  23.2585716  83.6505432 170.7324829  21.7339420
  84.4520493 170.1775513  21.2691326  83.2814941 171.9418793  21.1282730
  83.8163300 172.2548828  20.2437477  82.2192764 172.7104187  21.7035255
  81.9595261 173.6971436  21.3495712  78.8852463 172.4806213  21.7097836
  78.4691391 171.3560791  21.4007664  79.0788956 173.5097046  20.8223057
  79.2666855 174.4003143  21.2600880  78.9452057 173.4539642  19.3764458
  78.3650513 172.5856323  19.0641365  78.1581650 174.7050171  19.0175228
  78.5193710 175.6520386  19.4184875  78.0806580 174.7073517  17.9302845
  76.8247299 174.4930267  19.3587513  76.3317032 175.2960968  19.1754036
  80.3193359 173.4052582  18.6100788  81.0348587 174.3825836  18.4004364
  80.6898956 172.1846161  18.3102512  80.2285995 171.3684082  18.6859112
  81.8661804 171.9201050  17.4332314  82.6721420 172.6164551  17.6647930
  82.3978577 170.5362549  17.6437531  82.3928452 170.3387604  18.7157001
  81.6416321 169.9300079  17.1450768  83.8074265 170.2480927  17.0891819
  83.8004608 170.4097748  16.0112629  84.9419250 171.1427612  17.6739750
  85.1271439 170.8814240  18.7158489  85.8571243 170.9351959  17.1195202
  84.7761459 172.2196808  17.6441803  84.1341324 168.7701874  17.2987270
  83.3409271 168.1020050  16.9633865  85.0292053 168.5023193  16.7373161
  84.2621765 168.6106873  18.3693638  81.5197144 172.2200775  15.9188166
  82.3678818 172.6527863  15.1530647  80.2002716 171.9979706  15.5874147
  79.6675491 171.5968018  16.3459511  79.6879807 172.1759186  14.2471571
  80.5168533 172.1701202  13.5393181  78.7374954 171.0108948  13.9031935
  79.2354431 170.0516663  14.0446758  77.8426208 171.1849213  14.5006952
  78.3991852 171.0879211  12.5687494  78.2143784 170.2513580  12.1356211
  78.8899536 173.4944763  14.0796709  78.3965073 174.0505829  15.0616083
  78.6924515 173.9606171  12.8314714  79.2414322 173.4453888  12.1582184
  77.6911392 174.8471985  12.3580379  77.6839981 175.7880402  12.9083652
  78.1350937 175.1990204  10.9376535  78.2444839 174.3191071  10.3037090
  77.2322769 175.5277557  10.4229107  79.3295746 176.1819916  10.7069292
  80.2139206 175.6866760  11.1077900  79.4109726 176.4484711   9.1671486
  78.5545502 177.0056305   8.7874002  80.2311630 177.0849762   8.8351088
  79.4184647 175.5225525   8.5920439  79.1367264 177.5183258  11.4244032
  79.1555862 177.3902740  12.5066919  79.9739151 178.1721344  11.1799612
  78.1750031 177.9958801  11.2370253  76.2679825 174.2604523  12.3265285
  75.2918472 175.0089722  12.4005947  76.0622711 172.9308167  12.4591112
  76.8838348 172.3433380  12.4600706  74.8374100 172.2451324  12.8316441
  73.9259033 172.6919250  12.4346199  74.8557358 170.7909851  12.3457937
  75.7752609 170.2931671  12.6535959  73.9884644 170.2848206  12.7697601
  74.5962067 170.8428040  10.5056915  74.6584015 169.5106354  10.4261360
  74.4830017 172.4329681  14.2960825  73.4658890 171.9069977  14.7720652
  75.2645187 173.1972198  15.1158085  76.0681458 173.6685944  14.7258291
  75.1482391 173.1948242  16.5663071  75.5062866 174.1534576  16.9416809
  74.0991669 173.2431946  16.8582096  75.8149338 172.0338593  17.2817879
  76.7422943 171.4971771  16.7280903  75.3971634 171.6501923  18.4646320
  74.2194443 172.1063843  19.2716274  73.3795395 172.1516876  18.5783749
  74.3906708 173.0794983  19.7318974  74.0197220 171.0910339  20.3728428
  73.5214310 170.1888275  20.0181389  73.3723755 171.5630188  21.1119480
  75.4512253 170.7992401  20.7297230  75.4723816 169.8745880  21.3064957
  75.8644943 171.6323242  21.2983017  76.0907059 170.6221466  19.3194962
  77.1271973 170.9214630  19.4750710  76.0651779 169.1959991  18.8248310
  76.6172791 168.3290558  19.5235939  75.3486633 168.8081207  17.7363758
  74.8786240 169.5817566  17.2884235  75.0498581 167.4377594  17.3585262
  76.0084305 166.9481506  17.5303402  73.9286118 166.8775482  18.2486229
  74.1281433 167.0795135  19.3010025  73.0200500 167.4064178  17.9606686
  73.6079025 165.3720703  18.1099091  73.3711395 165.0879822  17.0845623
  74.4126587 164.7229767  18.4550800  72.1507721 164.9717102  18.9626961
  70.9060516 165.3780823  17.6825657  70.9121399 164.5936890  16.9257374
  69.9181900 165.2504883  18.1252213  70.9516830 166.3761749  17.2468758
  74.7219696 167.3616028  15.8683233  73.9307556 168.2443390  15.4136515
  75.2954636 166.3773346  15.1749897  75.9386597 165.7826996  15.6777878
  74.9897156 166.1109314  13.7384529  73.9654312 166.4006958  13.5039682
  75.9817734 166.9342804  12.9633207  76.9737091 166.5768890  13.2397594
  75.7209625 166.8209686  11.9110670  76.0027466 167.9612885  13.3279343
  75.1789322 164.5969543  13.4539490  75.5667572 163.8441010  14.3318157
  74.7894516 164.2192993  12.2496185  74.3681641 164.9364471  11.6766214
  74.9827423 162.8036804  11.7489653  74.9893646 162.1690369  12.6351252
  73.7305069 162.4605865  10.8856945  73.6480942 163.1725464  10.0644627
  73.8552322 161.5090179  10.3689194  72.8338394 162.3680725  11.4984999
  76.2874908 162.5892181  10.9169121  76.6736984 163.4747314  10.1606598
  76.8710556 161.3952789  11.0506916  76.5967789 160.8185730  11.8331718
  78.0697708 160.9346313  10.4047432  78.2541504 161.4883118   9.4841223
  79.2851181 161.3296814  11.2659769  79.2415466 160.6864777  12.1448946
  80.1908035 161.1713409  10.6805058  79.3230896 162.7941132  11.8922424
  79.7815781 163.9394226  11.1617441  80.1287537 163.8808746  10.1407452
  79.9435425 165.2120056  11.7080269  80.2980118 166.0003204  11.0604792
  79.5082550 165.3997345  12.9978342  79.4947510 166.6933746  13.4644175
  79.8182755 167.3311615  12.8239822  79.0272751 164.3466797  13.8035555
  78.7217484 164.4923096  14.8291540  78.8657913 163.0522156  13.1992979
  78.3703690 162.3020935  13.7978630  78.0159149 159.4215851  10.1623974
  77.0810394 158.7504120  10.5452127  79.0336761 158.8225098   9.5185623
  79.8908005 159.3339691   9.3640928  79.1137848 157.3747253   9.2487440
  78.5039444 156.7800598   9.9288683  78.5335999 156.9649200   7.8667192
  78.8054962 155.9268646   7.6753783  77.0475464 157.0417023   7.7961011
  76.6464767 158.0172424   8.0710115  76.6391907 156.8321228   6.8074532
  76.6506042 156.2729187   8.4590502  78.9906616 157.8337555   6.7556586
  80.0804901 157.8472290   6.7691493  78.6623611 157.4213257   5.8016076
  78.5912323 158.8317108   6.9363494  80.4638290 156.6626282   9.3288212
  81.4641266 157.1398468   8.8437080  80.4429703 155.3690186   9.8030758
  79.5921783 155.0387115  10.2356825  81.5768356 154.4115753   9.6441174
  82.4938812 154.9809723   9.7954845  81.4836731 153.3021393  10.7600574
  82.3585968 152.6558685  10.6898785  81.4689941 153.8234253  11.7172194
  80.2970276 152.4155579  10.7152119  79.5588150 152.3848877   9.7499094
  80.1267929 151.5600891  11.6496325  79.4211578 150.8379059  11.6747150
  80.9094315 151.4987030  12.2850876  81.7913971 153.8681946   8.1899223
  80.8751831 154.0531616   7.3716254  82.8760834 153.1177216   7.7983108
  84.1159439 152.9763489   8.5461340  84.1897202 152.1583405   9.2627411
  84.3015747 153.8584747   9.1588993  85.1539917 152.7181854   7.4330549
  86.0091476 152.1282043   7.7627983  85.5439835 153.5921173   6.9112787
  84.4189911 151.8178711   6.5438080  84.4190063 150.8227844   6.9886613
  84.8681335 151.7308350   5.5544643  83.0466232 152.5281982   6.5146971
  83.1611710 153.3401031   5.7965102  81.9328232 151.5660858   6.0896373
  81.4715576 151.5501099   4.9569340  81.4001465 150.7924957   7.0220685
  81.8694611 150.9601898   7.9005480  80.2587814 149.8467102   6.9969029
  80.3569260 149.1699371   6.1481066  80.3370667 149.0272827   8.2631102
  80.0667114 149.7298126   9.0514431  79.7056732 148.1425171   8.1816778
  81.7642212 148.5314789   8.5931911  82.8165970 149.2662048   9.2132196
  83.8347549 148.4249115   9.3239708  84.7261581 148.6099243   9.9049788
  83.5426407 147.2664185   8.7445192  84.1158142 146.4519806   8.9126081
  82.2156143 147.2391052   8.4046326  81.7033386 146.4228821   7.9170432
  78.8571930 150.5595093   6.9515891  77.8341370 149.9216461   7.1800256
  78.8604202 151.8598022   6.7515202  79.7388992 152.3581238   6.7443881
  77.6617050 152.6684570   6.4542727  78.0199051 153.6067810   6.0307684
  77.0298843 152.1624908   5.7242761  76.7160187 152.9779816   7.6121058
  75.8903961 153.8588257   7.3836966  76.7777100 152.3323822   8.8099279
  77.6633530 151.8748779   8.9724722  76.0245132 152.6912384  10.0191040
  74.9612503 152.4980164   9.8768587  76.5602875 151.9019470  11.2402611
  76.8338470 150.9288177  10.8324709  77.5122223 152.3674622  11.4956322
  75.5513611 151.8692322  12.3744307  74.4732285 150.9647827  12.2851629
  74.5547943 150.1376648  11.5955000  73.3774872 150.9961548  13.1723137
  72.5431442 150.3146667  13.0958052  73.3703766 151.9792786  14.1638670
  72.2266769 152.0110626  14.8771868  71.5802994 151.3235779  14.7006254
  74.4770966 152.8889008  14.3077040  74.4344254 153.5983734  15.1208572
  75.4790573 152.8869629  13.3354626  76.3016434 153.5867767  13.3319273
  76.0639877 154.2036133  10.4098063  77.1511078 154.8289642  10.4485216
  74.8891983 154.7644196  10.7291088  74.0829926 154.1560669  10.7348261
  74.7091904 156.1993866  10.9619236  75.5426102 156.6646271  10.4355688
  73.4141083 156.7760010  10.3608866  72.5495453 156.3182831  10.8416500
  73.4289780 158.2542877  10.8038101  74.3266830 158.7075195  10.3833284
  72.6038132 158.7782288  10.3214302  73.3595505 158.4101257  11.8803768
  73.3840103 156.5775604   8.8233490  73.5722504 157.4538879   8.2031059
  74.2181473 155.9467163   8.5161572  72.1552811 155.8270721   8.3142395
  71.3226089 156.5282898   8.3694696  72.3320084 155.5733795   7.2690096
  72.0094681 154.9439392   8.9362698  74.8955002 156.4280548  12.4735832
  74.1006317 155.9915924  13.2766256  75.7965622 157.3511047  12.7515192
  76.4745178 157.5321960  12.0251045  76.2343216 157.7685852  14.0869236
  75.6618118 157.1694183  14.7949648  77.7518768 157.4551697  14.3057117
  78.3373871 157.8920898  13.4967680  78.0751266 157.9786377  15.2054853
  78.0050812 155.9739227  14.4417362  77.4460526 155.1350555  15.4368334
  77.9986191 153.9552612  15.1947060  77.6540909 153.0709991  15.7102489
  78.8714523 153.9873657  14.1938934  79.4265213 153.1909790  13.9150248
  78.9007416 155.2892914  13.6914597  79.4255447 155.6533051  12.8205576
  75.9079742 159.2147522  14.2298164  76.4290390 160.0422058  13.4718552
  75.0265198 159.5339050  15.1344166  74.6721420 158.8347626  15.7713757
  74.6172409 160.9221954  15.4861078  74.9303894 161.6719055  14.7594957
  73.1332932 161.0913391  15.7116251  72.6632919 160.2571564  16.2325115
  73.0212402 161.9603424  16.3599987  72.2767944 161.4290466  14.4459152
  72.8291702 162.2509613  13.9904633  72.2323532 160.5845490  13.7582159
  70.8290939 161.8470612  14.8450966  70.2371750 161.3147583  15.7596321
  70.2900009 162.7509918  14.1364670  75.3189621 161.2397614  16.8001766
  74.8892746 160.6972656  17.8317719  76.3643265 162.1516418  16.8558502
  76.6736679 162.6656494  16.0433273  77.1912994 162.2650452  18.0486469
  76.8668137 161.6007843  18.8496284  78.7359619 161.9207916  17.8622112
  79.3275146 162.4062500  18.6384182  78.9530945 160.4052277  17.7132320
  78.4475174 160.0144653  16.8301697  80.0115738 160.1673126  17.6078072
  78.5647125 159.8979950  18.5964031  79.2022247 162.5735168  16.7460098
  80.1346130 162.3771973  16.6289101  77.0244064 163.6423645  18.6487331
  77.1794434 164.6306915  17.9193745  76.7631760 163.7487030  19.9404125
  76.6719055 162.8919525  20.4674282  76.6076355 164.9947968  20.6422291
  76.2446518 165.8760376  20.1132965  75.6789322 164.7525940  21.8383694
  74.6494980 164.7082825  21.4828491  75.9578476 163.8093262  22.3080063
  75.7158966 165.7996521  22.9337616  76.7798920 165.9478607  23.1183262
  75.0587463 167.0609131  22.4394417  74.0216293 166.8663635  22.1662579
  75.2613220 167.8885345  23.1192265  75.5768509 167.3932648  21.5398808
  75.0627975 165.4253235  24.2569885  75.5963135 164.5807800  24.6931133
  75.1894455 166.2347717  24.9758987  74.0303421 165.1305237  24.0692844
  78.0215225 165.3271942  21.1603050  78.7177963 164.4285889  21.6664963
  78.3923950 166.5826263  21.0220165  77.7484360 167.2542114  20.6291027
  79.7439880 167.0592041  21.4428902  80.3461456 166.1513519  21.4790974
  80.4158707 167.9501953  20.3621254  81.3917236 168.3721313  20.6024780
  80.6912918 167.1288300  19.0731506  79.6847610 166.8928375  18.7277489
  81.0953140 167.8443298  18.3569736  81.3742218 166.2814331  19.1336250
  79.5359497 168.9470062  19.9516373  79.5417404 169.6873474  20.5627499
  79.7642822 167.7411194  22.7943935  78.9868469 168.6805420  23.0805397
  80.5960693 167.2860565  23.7339211  81.1787567 166.4710236  23.6062222
  80.7538300 167.7993011  25.1213169  80.3544312 168.8128204  25.1583176
  79.9668427 167.0380249  26.2052860  80.1927567 167.4622192  27.1836128
  78.4244614 167.2157288  25.9792366  78.1481705 166.5975952  25.1250324
  77.8340530 166.8307343  26.8106785  78.1868896 168.2461395  25.7148380
  80.3556900 165.5396118  26.2781506  81.4278183 165.4318390  26.4425507
  79.9239044 165.0810699  27.1677608  79.8851700 165.0543671  25.4230194
  82.3074112 167.9144440  25.4067822  83.0284500 167.0251770  25.0319805
  82.7794571 168.9114685  26.1499290  82.1837692 169.6128693  26.5662289
  84.1742477 169.0127563  26.7059803  84.8899460 168.9183350  25.8892956
  84.2650299 170.4120636  27.4031353  83.5136108 170.4873505  28.1891422
  85.2220917 170.5023499  27.9169331  84.0951004 171.5746765  26.4985275
  84.9264221 171.7257843  25.3848381  85.6160278 170.9254608  25.1604271
  84.8338089 172.8979034  24.5940399  85.4770966 173.0982666  23.7499752
  83.8564529 173.8334808  24.9119568  83.7900009 175.0149078  24.2195473
  84.5014343 175.0123749  23.5749855  83.0149841 173.6844330  26.0605755
  82.3575134 174.5081482  26.2964211  83.1692963 172.5526428  26.8967705
  82.6048508 172.4530640  27.8121338  84.5174866 167.9416504  27.7000313
  85.6898117 167.5723267  27.8265610  83.5218277 167.4912109  28.5149727
  82.5923080 167.8739471  28.4169426  83.8124313 166.5655975  29.6349964
  84.7419434 166.0134583  29.4962578  83.9953537 167.4978790  30.9042320
  84.7934265 168.2138214  30.7077808  83.1204147 168.1470795  30.9378281
  84.1655655 166.8334198  32.2635765  83.3011169 166.2157593  32.5071640
  85.0645218 166.2241669  32.1697769  84.3820724 167.8788910  33.3030701
  85.2170486 168.5155182  33.0104294  83.5221024 168.5385590  33.1872787
  84.6648254 167.2440948  34.6875229  84.6083145 167.9952087  35.4753952
  83.8802490 166.5324554  34.9446487  86.0783920 166.7152557  34.8177414
  86.8379211 167.3137665  34.5261841  86.3150635 166.4860687  35.7724953
  86.1254349 165.8800812  34.2517433  82.7491379 165.5056305  29.8271351
  81.5672073 165.7816772  29.7546368  83.2376022 164.2639923  30.0364132
  84.2204208 164.0802917  29.8934689  82.4396667 163.1261597  30.5190411
  81.4246902 163.4778442  30.7041264  82.3320084 162.0113983  29.4603481
  83.3344955 161.5845490  29.4907570  81.4510345 161.3770905  29.5585041
  82.2339325 162.5419617  28.5132542  82.9206161 162.5404968  31.8664742
  84.1188049 162.3625488  32.0616112  81.9748230 162.1285248  32.7550278
  80.9874725 162.2426910  32.5755768  82.3028564 161.7062531  34.0945244
  83.2816391 162.1327667  34.3140106  81.2832947 162.2759705  35.1392555
  80.2863846 161.8613892  34.9896355  81.6378479 162.0366669  36.1418152
  81.2013855 164.1442871  34.9746552  82.4708099 164.4287567  35.2788544
  82.4647141 160.2206421  34.1615143  83.5811005 159.8441315  34.5285988
  81.3737106 159.4535370  33.9345245  80.5121155 159.9458313  33.7463722
  81.4125061 158.0204926  34.0633202  82.2960510 157.7612762  34.6466331
  80.1872864 157.5867004  34.8852272  79.2408752 157.8231964  34.3989296
  80.2068863 156.5070038  35.0334206  80.2154617 158.1374817  36.3360023
  80.9602661 157.6705017  37.1896439  79.4145203 159.1235962  36.6201668
  79.3138885 159.4092865  37.5836792  78.7608414 159.3780670  35.8934898
  81.4798126 157.2205963  32.7608871  80.6487732 156.3018341  32.5297737
  82.5542679 157.4763184  31.9673100  83.1393890 158.2896423  32.0946732
  82.9774551 156.6247559  30.8528290  82.2067566 155.8919220  30.6138744
  83.1825790 157.3837433  29.5590153  84.0033951 158.0862274  29.7035103
  83.4493179 156.6566467  28.7920132  81.9328079 158.0290527  29.0150146
  81.4184952 158.5696411  29.8095913  82.1417770 159.0301361  27.9568119
  82.2252350 158.5237579  26.9951859  81.2147522 159.5641174  27.7480583
  83.0350571 159.6212769  28.1585007  80.9237671 157.0225525  28.4884167
  80.6250000 156.2755280  29.2237988  79.9887161 157.5472412  28.2922707
  81.2405930 156.5321960  27.5679359  84.3444901 156.0136261  31.1391048
  85.2015381 156.6102142  31.7777901  84.6106033 154.7682037  30.6352386
  83.8558655 154.5188599  30.0120983  85.9408188 154.2209473  30.4639702
  86.7521210 154.7946930  30.9119740  86.0236435 152.8244781  31.0628262
  85.2596970 152.1873016  30.6173115  86.9869614 152.4164734  30.7568054
  85.8993835 152.8262329  32.5997009  85.8950195 153.8618164  33.2282104
  85.7426071 151.6139679  33.1247597  85.5909195 151.5883636  34.1229744
  85.8401260 150.8453217  32.4768639  86.3230972 154.2161560  28.9610672
  85.5162964 154.4931183  28.0728455  87.6013870 153.9409027  28.7782059
  88.0863571 153.5835724  29.5889015  88.3249359 153.9488373  27.5120983
  87.7091980 154.3110962  26.6888523  89.4712830 154.9649200  27.5244312
  90.0179062 154.4967499  28.3430405  89.9549713 155.0100861  26.5486736
  89.2054443 156.4038391  27.9128590  88.7826385 156.4267883  28.9172554
  90.4955826 157.1695862  27.8375168  90.9926453 157.0641785  26.8731918
  90.4082184 158.2372131  28.0391407  91.2646027 156.7577972  28.4910812
  88.3085403 157.0006714  26.8434219  87.3448181 156.4916229  26.8577862
  88.1088638 158.0582123  27.0161705  88.8347092 156.9615936  25.8896275
  88.7905731 152.5167084  27.2215595  89.3430481 151.8915100  28.1490498
  88.6969833 152.0791931  25.9545040  88.1316833 152.6224213  25.3177624
  89.5323868 151.0174561  25.3618984  90.2982330 150.7522736  26.0907707
  88.7098846 149.7176666  25.1872196  89.3126221 148.8500977  24.9186592
  88.2645798 149.5716858  26.1713409  87.7136688 149.9725647  24.2189713
  86.9389572 149.4841003  24.5067730  90.2078247 151.3944397  24.0230484
  89.8956070 152.4176636  23.3496971  91.1554947 150.5303345  23.6227913
  91.3861771 149.7124939  24.1687202  91.9018250 150.7036591  22.3793812
  92.3324585 149.7326660  22.1347504  91.2423477 151.0354004  21.5774174
  93.1102829 151.6363983  22.5630283  93.6800537 151.8221436  23.6309452
  93.4807358 152.2198181  21.4325218  92.9168701 152.0718689  20.6077404
  94.4098129 153.4082794  21.3187351  94.4958344 153.8674316  22.3035622
  95.8306580 153.0141144  20.7712612  95.7756729 152.6683807  19.7390079
  96.5676575 153.8120575  20.6805305  96.5764694 151.9919739  21.6316166
  95.8980408 151.1398926  21.6737595  97.5046539 151.7546234  21.1117668
  96.8699493 152.4120941  23.1039581  97.4382935 153.3416748  23.1349220
  95.9527359 152.5675812  23.6719894  97.5187912 151.2691498  23.7886639
  98.4924240 151.1292877  23.5593567  96.9452972 150.2228851  24.4074879
  95.7499161 150.2297516  24.8270760  95.1891937 151.0516510  24.6533031
  95.2563782 149.4538879  25.2448711  97.6064072 149.1574097  24.7548733
  98.5502930 148.9936218  24.4349480  97.2098770 148.4876099  25.3984871
  93.8824692 154.4362640  20.3135929  92.8545151 154.1816254  19.7180386
  94.4398041 155.6937866  20.2822056  95.5007858 156.2250824  21.1859722
  96.5352478 156.0179443  20.9119625  95.3659744 155.7674408  22.1660233
  95.2805939 157.7029419  21.2602177  96.1972046 158.2927551  21.2672310
  94.6321487 157.9828949  22.0904255  94.5267410 158.0091705  19.8917198
  95.2816162 158.2061615  19.1304951  93.8195190 158.8262024  20.0345039
  93.8953629 156.7209930  19.4567394  92.8257980 156.7704926  19.6609020
  94.0886002 156.3982849  17.9056568  95.1280289 155.8079529  17.4808121
  93.1985779 156.7853394  17.0459023  92.2833023 157.0913696  17.3437672
  93.4287186 156.7282257  15.5617685  94.4704742 156.9822998  15.3660975
  93.1583252 155.2956696  15.0232086  93.6121597 154.5426941  15.6675415
  92.0810242 155.1467285  14.9500942  93.6689453 155.2174225  13.6760521
  93.7008133 154.3068695  13.3735905  92.6437073 157.7238464  14.7986145
  91.6416626 158.1913452  15.3714790  93.1787109 158.2394562  13.6420555
  94.1350555 158.0186462  13.4038525  92.5741882 159.2667542  12.7708244
  91.8963547 159.8793182  13.3653049  93.6451492 160.1824188  12.0955496
  93.1532288 160.8850403  11.4229069  94.3899918 161.0833435  13.0581903
  95.0018005 160.4285736  13.6787186  95.1037827 161.6571503  12.4671373
  93.7671051 161.7774200  13.6224308  94.6069107 159.3504791  11.5032110
  95.1936188 159.9175873  10.9974785  91.8536911 158.5417633  11.6338558
  91.1460648 159.2970123  10.9135303  92.0064392 157.2406769  11.4186697
  92.5682373 156.6853333  12.0480242  91.3418655 156.6154022  10.2290239
  91.8053284 157.0645294   9.3506250  91.4726715 155.0842590  10.2675724
  91.0490036 154.6956024  11.1936092  90.8723907 154.6717377   9.4566498
  92.9134674 154.4194946  10.2000761  93.4121323 154.4500580  11.1688366
  92.6579132 153.3789368   9.9999895  93.8426514 154.8020325   9.0780191
  93.4617081 154.8064728   7.8885303  95.0516891 154.9765930   9.3782511
  89.8428574 156.9837646  10.1828194  89.1422806 156.7423859  11.2286158
  89.4007492 157.5537567   9.0785465  90.0775909 157.5861511   8.3295889
  88.0200958 158.0330658   8.8590345  87.8864746 158.5153198   7.8906970
  87.2577133 156.6262817   8.7182055  87.9656448 155.8392792   8.4582682
  86.7923279 156.3937683   9.6760445  86.1977234 156.6518555   7.7085667
  84.8934479 156.4571075   8.0784864  84.1584625 156.3827209   6.9626374
  83.0848923 156.3082733   6.8715143  84.9905624 156.4926453   5.9032803
  84.7460938 156.4598846   4.9238601  86.2687225 156.6145325   6.3606095
  87.2152710 156.5726624   5.8422542  87.4210205 158.9386902   9.9534502
  86.1791000 159.0312958  10.0249901  88.2069626 159.5712433  10.8159733
  89.1720505 159.2748260  10.7868242  87.6530457 160.5349274  11.8121166
  87.0861511 160.0018311  12.5753622  88.8642578 161.2149811  12.5116119
  89.4574585 160.4705811  13.0427380  89.4640350 161.8885040  11.8994684
  88.2460709 161.9960327  13.5684366  88.8746338 162.5845642  13.9928837
  86.7247772 161.6019440  11.2493553  87.0512314 162.3264618  10.3235006
  85.5841141 161.8590546  11.9141645  85.4862213 161.4810791  12.8456402
  84.5711288 162.8015594  11.3944893  84.5411682 162.6261444  10.3191099
  83.2349319 162.3467712  12.1023731  83.3248672 162.5421295  13.1709442
  82.4269333 162.9658661  11.7125721  82.8056641 160.9264221  11.8666801
  82.7630539 160.3157196  10.6882515  83.1654129 160.7855682   9.8029537
  82.3678894 158.9662018  10.8580513  82.3783569 158.2906036  10.1073389
  81.9856186 158.7032471  12.1701908  81.6148453 157.5963287  12.8823309
  81.4798126 156.6335754  12.4119387  81.4232483 157.6692352  14.2698059
  81.3240128 156.7959137  14.8973875  81.5861969 158.9318695  14.9156504
  81.3886108 159.0951080  15.9648008  82.0514908 159.9976044  14.1716785
  82.2823410 160.8947601  14.7268486  82.2896881 159.9332428  12.8192043
  84.9678421 164.2641296  11.6967812  84.2494659 165.1651459  11.2754259
  86.0911713 164.4974823  12.4349756  86.6242676 163.6652679  12.6431370
  86.7071075 165.7983246  13.0166969  86.1836166 166.6582642  12.5989094
  86.3292236 165.8354645  14.5354805  86.8983307 165.0601959  15.0484743
  86.6152649 166.8062286  14.9403372  84.8829575 165.6484375  14.8055058
  84.0178223 166.6826019  14.4026308  84.3461609 167.6204681  13.9795446
  82.6461182 166.5797729  14.6492853  81.9888382 167.3464508  14.2664204
  82.1393661 165.5036621  15.3779755  81.0735016 165.4579468  15.5460453
  82.9691391 164.4673920  15.7764359  82.5822220 163.5973358  16.2860279
  84.3228073 164.5862274  15.5204496  84.9478836 163.7991638  15.9156713
  88.2019424 165.9240570  12.6277561  89.0880585 165.3702240  13.2818651
  88.5839233 166.5929718  11.4569731  87.6946106 166.9905243  10.4339762
  87.3452606 168.0129852  10.5775957  86.8456192 166.3652802  10.1575775
  88.5484314 167.0673065   9.1161366  88.1803131 167.7966461   8.3945656
  88.4981689 166.0771942   8.6630831  89.9131546 167.4675903   9.7292442
  90.1278687 168.5239716   9.8906794  90.6909790 167.1741791   9.0242634
  89.9732590 166.7224731  11.0491562  90.3119125 165.7068024  10.8446283
  90.8902969 167.3269653  12.0480423  90.6793518 168.4266052  12.5508699
  91.9672852 166.6669312  12.3920860  91.9744949 165.6819458  12.1688042
  92.9443054 167.0495148  13.3685417  93.9174805 166.6264648  13.1193962
  93.0746536 168.1237488  13.4994011  92.6366196 166.5345306  14.7812519
  93.3371658 166.9452820  15.7083282  91.6641388 165.6449432  14.9843473
  91.0100098 165.5018616  14.2282057  91.3772888 164.8557434  16.1299686
  92.1040344 165.1318054  16.8939953  90.0134201 165.4206238  16.6219120
  89.3405228 165.3075409  15.7718964  89.5617218 164.8138733  17.4067249
  90.0376282 166.8358002  17.1260796  90.5032043 167.0341644  18.4341183
  90.5733643 166.1515503  19.0525684  90.5965729 168.3010254  18.9242821
  90.8557281 168.4216156  19.9657726  90.3042221 169.3955078  18.1285629
  90.5528641 170.6612854  18.5142422  90.7109451 170.6541901  19.4611111
  89.7545853 169.2239227  16.8040657  89.4238815 170.1590729  16.3768139
  89.6604309 167.9143829  16.2897205  89.3055344 167.7689056  15.2801256
  91.4449615 163.3909912  15.8762941  90.8166656 162.9314270  14.9209070
  92.0421295 162.6100311  16.8260937  92.5276566 163.0948944  17.5672188
  92.1268311 161.1710358  16.9225349  91.9789124 160.8047485  15.9066362
  93.4601898 160.7312775  17.4039745  93.5166931 161.1956482  18.3884888
  93.4484100 159.6458282  17.5027962  94.2426834 161.1160278  16.7499409
  91.0366058 160.6726379  17.8554134  90.8539886 161.2727966  18.8947525
  90.2239304 159.6685791  17.3936920  90.3576508 159.2200317  16.4986877
  89.2454300 159.0524139  18.2134953  88.8827591 159.8426819  18.8707905
  88.1118317 158.6163330  17.2533607  87.3121033 158.1418457  17.8220406
  87.7050095 159.5711670  16.9203568  88.4217224 157.8702087  16.0071812
  88.4532852 158.3572083  14.7547998  88.1029358 159.3587494  14.5534105
  88.7916336 157.4124603  13.8280888  88.8190002 157.5200806  12.8242102
  89.1250153 156.2014923  14.4830208  89.4981461 154.9472198  14.0273657
  89.6569214 154.6943512  12.9894590  89.7783203 153.9439850  14.9839153
  90.1263580 153.0154419  14.5560532  89.5311890 154.1766357  16.3457699
  89.7249298 153.4657440  17.1354008  89.1166763 155.4360504  16.7772655
  89.0128937 155.6283112  17.8349342  88.9128494 156.4749146  15.8592548
  89.8229065 157.9106445  19.0876350  90.7706146 157.2108002  18.7799473
  89.1366119 157.6231232  20.2021713  88.5837479 158.3936157  20.5497036
  89.4326019 156.4320679  21.0718899  89.7577133 155.5997620  20.4476471
  90.5783386 156.6719055  22.0765724  91.4720459 156.7317963  21.4554367
  90.4577103 157.9276733  22.9141064  89.6922989 157.8386688  23.6850281
  91.3926620 158.0755920  23.4545574  90.2124405 158.8032684  22.3130360
  90.6548157 155.6424561  22.9847012  91.0898819 154.9419403  22.4931965
  88.0779037 155.9790955  21.6921310  87.2413101 156.7532654  22.1004238
  87.8436813 154.6036682  21.6764889  88.6480408 154.0157928  21.5106163
  86.4724045 154.0922546  21.9436951  85.8177872 154.6316071  21.2590866
  86.4339676 152.5865173  21.7903118  87.2439423 152.1029816  22.3364334
  85.1580429 151.9409027  22.3694744  84.3036728 152.4606171  21.9358177
  85.1009827 150.8861694  22.1004372  85.1921310 152.0987854  23.4474449
  86.5880737 152.2502594  20.2628059  86.1067276 151.3160400  19.9735775
  86.0437088 152.9514313  19.6302624  88.0315475 152.1440582  19.7457619
  88.6429138 151.5502167  20.4252415  88.0396500 151.6196442  18.7902336
  88.4715576 153.1336365  19.6224632  86.1107712 154.4218597  23.3964272
  86.7552490 154.0038452  24.3825035  84.9782028 155.0856018  23.5477848
  84.4700546 155.3619843  22.7198353  84.2209625 155.3513641  24.8316402
  84.9272232 155.2567291  25.6564713  83.7292938 156.7696533  24.8616314
  83.0899506 156.9351349  23.9944839  83.1992493 157.0163727  25.7815647
  84.4993515 157.5307770  24.7359848  83.1143341 154.2979126  25.0908298
  82.2037354 154.0094299  24.2844639  83.0591049 153.8213043  26.3367519
  83.7213898 154.2147217  26.9899750  81.9378128 153.0229187  26.8834248
  81.1109924 153.2247620  26.2024517  82.4298477 151.5149384  26.8496208
  83.4025803 151.5085144  27.3413963  81.8243942 150.8975677  27.5132389
  82.6427383 150.8855896  25.4264679  81.6305771 150.7019501  25.0660419
  83.1047363 151.6217194  24.7686119  83.5739822 149.6477661  25.5398483
  84.7544327 149.6660156  25.2668915  83.0466232 148.5613556  26.0240307
  83.6756058 147.8194733  26.2962284  82.0682449 148.4474945  26.2474346
  81.5585022 153.4710083  28.2467022  82.3909988 154.0495605  28.9459133
  80.3314362 153.1377106  28.6913223  79.7535172 152.6375732  28.0310326
  79.7673721 153.4331207  30.0487976  79.7394028 154.5064850  30.2364445
  78.3484421 152.8508301  30.1145420  77.6832275 153.3216400  29.3907146
  78.3496628 151.7893066  29.8670483  77.5855103 153.0608215  31.7733498
  76.3376617 152.6741180  31.4936733  80.7116852 152.8712616  31.1581535
  81.3293381 151.8385315  30.8912621  80.7499084 153.3416901  32.3985519
  80.4063339 154.2911530  32.4228668  81.6077805 152.8437958  33.5055046
  82.5049667 152.4302063  33.0449562  81.9894638 154.0874634  34.3061638
  82.4715042 154.8619843  33.7096138  81.0722198 154.5588531  34.6590919
  82.8686829 153.6711121  35.4228210  82.3906174 152.9356079  36.0698013
  83.7056580 153.1075897  35.0105019  83.3859863 154.9464417  36.0524368
  82.5996399 155.6152039  36.4024696  83.8950348 154.5981293  36.9511261
  84.3439255 155.6495514  35.2563248  84.8892975 155.1222076  34.5895538
  84.8133163 156.9012756  35.4601936  84.4137115 157.6794586  36.4481049
  83.6570969 157.3998413  37.0559273  84.7822113 158.6194763  36.4741325
  85.8045654 157.3834991  34.7532349  86.1967163 156.7402344  34.0805359
  86.3441620 158.2190857  34.9285355  81.0089340 151.6641083  34.2203293
  81.6454163 150.6649017  34.5777550  79.6604233 151.7869415  34.3714180
  79.2482224 152.6391602  34.0194054  78.8350677 150.8511047  35.1742630
  79.4592819 150.5718079  36.0230522  77.6464005 151.5731812  35.8784714
  77.0292664 152.0872803  35.1416283  76.7522583 150.5724487  36.6414757
  77.3829498 150.0020752  37.3233795  75.9772110 151.1141357  37.1836739
  76.2324142 149.8506470  36.0115013  78.1331100 152.7756805  36.8398094
  78.4632721 153.6374359  36.2597580  77.2022858 153.0816193  37.3173790
  79.2284622 152.4551697  37.7881126  80.1840820 152.2944489  37.2890549
  79.2831039 153.3211823  38.4477654  78.9828491 151.6224365  38.4471512
  78.5711136 149.5234833  34.4364433  78.5486755 148.4788818  35.0710526
  78.3523026 149.5398407  33.1253891  78.3439178 150.4246979  32.6384964
  77.9902649 148.3875885  32.3545876  77.9999084 147.5110931  33.0024719
  76.5330505 148.5246887  31.8422699  76.1022110 147.5685425  31.5451927
  75.9348526 148.8840942  32.6795883  76.3618011 149.6997375  30.5621777
  75.2688217 150.3059998  31.0341320  78.9240723 148.0232544  31.2174721
  78.7654037 146.9338074  30.6428165  79.8161163 148.9001770  30.7029514
  79.9966125 149.7429962  31.2294197  80.5347061 148.5764313  29.4800816
  81.4696884 149.1325226  29.4116707  80.6995544 147.4989777  29.4833508
  79.8522720 148.7845306  28.1373463  80.4398575 148.4830627  27.0994034
  78.6139755 149.2613068  28.0852623  78.1495590 149.5309296  28.9406719
  77.9559784 149.5328217  26.7382355  78.0164566 148.6161194  26.1516361
  76.5241165 149.9211578  27.0339890  76.0964508 149.0773773  27.5755177
  76.5144272 150.8583832  27.5904274  75.8278885 150.1655273  25.7315941
  75.8864899 149.3597412  24.8419552  75.2048187 151.3540955  25.5789471
  75.0671005 151.7238464  24.6492043  75.2251358 152.0329895  26.3264618
  78.7430954 150.5989838  25.9487514  79.3632050 151.5293884  26.4711781
  78.8072968 150.4658661  24.6380939  78.3739395 149.6421967  24.2458019
  79.3218765 151.4737701  23.6791840  80.3323441 151.7497253  23.9806843
  79.3882980 150.9344940  22.2031860  79.9100418 149.9778748  22.2308140
  78.3842316 150.7432098  21.8245468  80.0099182 151.9709473  21.3022842
  79.2774277 152.7696381  20.4202690  80.1627121 153.5283508  19.8056221
  79.8626022 154.2147827  19.0277081  81.4330597 153.2659149  20.1690331
  82.2501602 153.6817322  19.7453022  81.3468704 152.2579956  21.0795803
  82.2369080 151.8652344  21.5486164  78.4829788 152.8072968  23.7357635
  77.2662582 152.7910919  23.6153793  79.1704102 153.9470520  23.9490051
  80.1718445 153.8738708  24.0579777  78.7122955 155.3367767  24.0836258
  77.6447601 155.3101959  23.8651066  79.0800552 155.8273468  25.4967880
  80.1625061 155.8576050  25.6212559  78.7491226 156.8427124  25.7150249
  78.5656357 155.0363464  26.7042561  78.9729538 154.0257416  26.7336903
  78.8331909 155.6217194  27.5839500  76.7085342 154.9002380  26.6910667
  76.0795822 156.6087341  26.6646099  76.2698593 157.0696259  25.6953468
  75.0221252 156.5018463  26.9064064  76.6472778 157.2029724  27.3806324
  79.2965240 156.3116455  23.0388260  79.0477600 157.4890747  23.0774193
  80.1667328 155.8050079  22.1227303  80.2483749 154.7983093  22.1219292
  80.8480606 156.5955048  21.1658440  80.5926437 156.1903229  20.1867199
  80.5160065 157.6300964  21.0793324  82.3401642 156.7230530  21.2840710
  83.0271530 155.7203674  21.4799824  82.9112473 157.9481964  21.1102924
  82.2153320 158.6666870  20.9703465  84.3837585 158.2236023  21.1692886
  84.9556732 157.4134979  21.6217823  84.9255753 158.3141632  19.7315731
  84.5529633 159.1672668  19.1645851  86.0023575 158.4602203  19.8170490
  84.5733490 157.1426086  18.8975315  85.3789749 156.0294037  18.6686840
  86.4114304 155.9580688  18.9774647  84.6972275 155.0231476  18.0774746
  85.1117706 154.1440277  17.8028641  83.3983612 155.4040222  17.8495770
  82.2602158 154.7254639  17.3772106  82.3048172 153.6603851  17.2039471
  81.0461273 155.4839172  17.1373444  80.1758194 154.9716797  16.7544823
  80.9721832 156.8249359  17.4398403  79.9818420 157.2444916  17.3418274
  82.0876312 157.4880981  18.0220375  82.0245209 158.5287628  18.3038731
  83.3434830 156.7941589  18.1976738  84.7039490 159.4432373  21.9965668
  84.0167618 160.4330750  21.8374214  85.8252258 159.3108826  22.7339363
  86.3117676 158.4528351  22.9510326  86.6339722 160.4212036  23.1422272
  86.0620956 161.3007355  23.4380264  87.5457458 160.0720978  24.3211212
  86.9599152 159.6020508  25.1110401  88.3296127 159.3859711  24.0003548
  88.1929169 161.2793274  24.9287853  88.6798019 161.9092865  24.1843395
  87.4144363 161.8921356  25.3832512  89.2672806 160.9932404  26.0708885
  88.9717178 160.1521454  26.6980286  90.1977997 160.8338470  25.5260658
  89.3887329 162.2658691  26.9868164  89.7848663 163.0741119  26.3720589
  88.3911514 162.5649872  27.3084526  90.3551025 162.1882782  28.1194611
  91.2121201 161.7004700  27.9011326  90.7545776 163.0695496  28.4090919
  89.9422989 161.6392822  28.8599300  87.4295197 160.8223267  21.8629837
  87.9116135 159.9552765  21.1454582  87.6145706 162.1295471  21.6670895
  87.0360718 162.8204193  22.1233120  88.5521698 162.7670135  20.7738953
  89.0780869 161.9601593  20.2634964  87.7414322 163.7080994  19.8769417
  87.2607193 164.4240112  20.5436268  88.3752670 164.2881622  19.2062149
  86.8506470 162.9018860  18.9958305  87.3435745 162.5609894  17.7053585
  88.3360672 162.8253937  17.3715076  86.5099640 161.9340057  16.7702179
  86.9108124 161.8061218  15.7755499  85.1873169 161.5847931  17.0883808
  84.5486984 161.0764465  16.3811665  84.6970520 161.9454041  18.3798599
  83.6791916 161.7494812  18.6831322  85.5204010 162.5503235  19.3356075
  85.0933228 162.7813416  20.3003025  89.7409668 163.4552002  21.5107899
  89.5674362 163.9798431  22.6164532  90.9567566 163.4257812  20.9392338
  91.0809555 162.9450531  20.0596981  92.2023468 164.0886078  21.4126301
  91.8587418 164.8989410  22.0555935  93.1448212 163.1846619  22.2337532
  94.0861206 163.6889648  22.4522552  92.4982605 162.7760315  23.5447750
  91.6040649 162.1814728  23.3576603  93.1924896 162.1946564  24.1515350
  92.2217484 163.7160034  24.0223579  93.4552002 161.9596558  21.4674110
  94.0741501 162.1736145  20.7654667  92.8857346 164.6542816  20.1548557
  92.9515305 164.0290985  19.1011906  93.3982620 165.8342590  20.2928047
  93.3953400 166.3240509  21.1760941  94.0335541 166.5347748  19.2155552
  93.3514709 166.5599518  18.3657055  94.1750259 168.0218964  19.5707722
  95.0484314 168.1560364  20.2089462  94.2885513 168.5511475  18.6246719
  93.2203217 168.4214783  19.9127884  95.3568497 165.8557129  18.8353786
  96.1111984 165.3692017  19.7087688  95.7340317 165.8169098  17.5416946
  95.0081558 166.1208496  16.9085941  97.1214447 165.5359497  17.0553913
  97.5235901 164.7683105  17.7165318  97.1526337 164.8701172  15.6894131
  98.1091232 164.3827972  15.5003672  96.1323242 163.6970978  15.5688019
  95.1341782 164.0437622  15.3011799  96.4683533 163.0523376  14.7567196
  96.1862335 163.2141113  16.5444679  96.8221436 165.8327179  14.7262640
  97.3132401 165.6768951  13.9162350  98.0815964 166.7274170  17.0815182
  99.2769394 166.5456390  17.3366127  97.5877838 167.9863892  16.9628429
  96.5836029 168.0852203  16.9186344  98.3437958 169.2498169  16.8520966
  99.4002151 168.9929199  16.7741241  97.8907471 169.8519745  15.5062752
  96.8124695 169.7447662  15.3882513  98.1508789 170.9080048  15.5787563
  98.7672882 169.3986969  14.3245087  99.8224487 169.5299835  14.5642910
  98.6412277 168.3596802  14.0201139  98.4241028 170.2757263  13.1030474
  98.3232193 171.2938538  13.4790068  99.2237015 170.0824738  12.3879347
  97.0821609 169.7735291  12.4882317  97.0519104 168.6839600  12.4920397
  96.2384796 170.1042633  13.0939741  96.8692474 170.1924286  11.0738688
  97.4855652 169.7966614  10.3784285  95.9665756 169.8658600  10.7597971
  96.8668823 171.2009430  11.0191822  98.2533646 170.0728760  18.1268921
  97.1291428 170.2500610  18.6882591  99.3841095 170.5966797  18.5841217
 100.1630020 170.3613892  17.9857426  99.6269531 171.2216949  19.8756580
  99.3380280 170.4374695  20.5753860 101.0943756 171.3710632  20.1529121
 101.2744064 171.6491241  21.1913548 101.6280212 170.4692993  19.8526535
 101.7503204 172.5661316  19.4032192 101.6220551 172.4675140  18.3252964
 101.4121475 173.5253143  19.7952862 103.2312698 172.5509033  19.6821842
 103.4110489 172.6070404  20.7557888 103.7136612 171.6338348  19.3439407
 103.9909134 173.7327728  19.0651131 103.4166031 174.6525726  19.1757622
 104.9192581 173.8845825  19.6157703 104.2987747 173.5135193  17.6297188
 103.4535599 173.1187897  17.2425461 104.6108704 174.2436676  17.0055618
 104.9843597 172.7834930  17.4988289  98.8989258 172.5211029  20.1649742
  98.9494247 172.8867493  21.3425808  98.3204575 173.1576996  19.1615181
  98.4069366 172.7216644  18.2545986  97.7897797 174.5433197  19.2361660
  97.9435043 174.9209747  20.2470245  98.6265869 175.4451599  18.2640057
  98.1675415 176.4262543  18.1421871  99.5709381 175.6887054  18.7508316
  98.9058609 174.9566040  16.8202610  98.3782196 173.8625183  16.4805584
  99.5018845 175.7328644  16.0158825  96.3433609 174.6930389  18.9061146
  95.7035828 175.7469177  19.0532303  95.7214127 173.6215210  18.4114475
  96.2587738 172.8132324  18.1321526  94.2679749 173.5460815  18.1874561
  94.0169830 174.3992004  17.5571423  93.7940521 172.2114258  17.5173969
  94.0231476 171.3876495  18.1934166  92.7416687 172.2422333  17.2351761
  94.5516586 172.0566864  16.2176170  94.5989304 172.9401703  15.5809717
  95.5406418 171.8193817  16.6096725  93.9474564 170.6607666  15.1635981
  92.3172607 171.2007294  14.4808455  92.3754807 172.1746216  13.9947710
  91.9637909 170.5311737  13.6967182  91.6664047 171.2003326  15.3551950
  93.5190201 173.7067566  19.4990807  94.0078278 173.0504303  20.4310665
  92.3807678 174.3523712  19.5966320  92.0302658 174.9064636  18.8283577
  91.5827560 174.4806824  20.8385067  92.0674973 173.9077301  21.6289806
  91.6150589 176.0086060  21.2443295  92.6281509 176.1903076  21.6031265
  91.4638138 176.5519867  20.3116093  90.6144409 176.3956604  22.2222748
  91.0575714 176.8614960  22.9351749  90.1306000 174.0195160  20.5457611
  89.5510788 174.4826355  19.5568829  89.4681702 173.1963654  21.4102402
  88.0761871 172.7952118  21.2567425  87.8845520 172.3850403  20.2652054
  87.5074692 173.6505280  21.6215572  87.8290634 171.6828308  22.2991371
  88.1066132 170.6959076  21.9289417  86.8032227 171.6947479  22.6674099
  88.8078537 172.1007233  23.4059963  89.0983963 171.3130798  24.1011829
  88.2989273 172.9149170  23.9219398  90.0393906 172.6223450  22.6290092
  90.5268250 173.4352417  23.1672440  90.9892120 171.4380646  22.4386730
  90.9052582 170.8485565  21.3738499  91.8001633 171.0943756  23.4406281
  91.7173080 171.6639862  24.2705517  92.7964630 169.9101105  23.3676167
  93.3443451 170.1100311  22.4467640  93.7779236 169.9734650  24.6262627
  94.2211075 170.9615326  24.5021935  93.1250000 169.9489136  25.4987221
  94.8435745 168.9432373  24.6925049  95.3392410 169.0540466  25.6569424
  94.4337311 167.9335632  24.6664791  95.9236450 169.0448303  23.6186581
  95.8142929 169.6894379  22.5807610  97.0682068 168.3844757  23.8575077
  97.8017883 168.4677277  23.1682835  97.1577301 167.7638550  24.6492767
  92.1062851 168.5512848  23.3040161  92.6999817 167.5474701  22.9200726
  90.8709641 168.4813080  23.8415108  90.3756104 169.3417053  24.0270538
  90.0697861 167.2908173  24.2555389  90.2845230 166.4631042  23.5796223
  90.4570847 166.9286041  25.7062626  89.7784729 166.1392212  26.0294380
  91.5106506 166.6535645  25.6566296  90.3514404 168.0431213  26.7533760
  90.8217697 168.9674225  26.4178448  89.2918243 168.2922058  26.8106499
  90.6857758 167.5552063  28.1931973  90.2846069 168.2489166  28.9320641
  90.3044586 166.5451508  28.3431778  92.1729279 167.5092468  28.4164181
  92.5652390 166.8439026  27.6473198  92.6239777 168.4966583  28.3181190
  92.5377502 166.7924500  29.7090015  92.1820831 165.8517609  29.8023949
  93.5382614 166.8710022  29.8226452  92.2198257 167.3755646  30.4699230
  88.5815277 167.5750732  24.1608448  88.0556030 168.6516571  24.5278549
  87.8585815 166.5284576  23.7530518  88.3434219 165.6924438  23.4595928
  86.3929977 166.4608307  23.8317013  86.0550690 166.8055573  24.8089790
  85.7071686 167.4313507  22.8144588  84.6626587 167.5937500  23.0804138
  86.2024231 168.3932190  22.9473019  85.7608109 167.0817413  21.3691311
  86.8429489 167.6100922  20.6093864  87.5050659 168.3743591  20.9887333
  87.0085220 167.2803192  19.2882042  87.7693710 167.6710358  18.6287689
  86.0964584 166.3888855  18.6892529  86.3511200 166.0677948  17.6900311
  84.9322968 166.0221100  19.3723907  84.1603470 165.4405212  18.8904686
  84.7694626 166.3983002  20.6937294  83.8599167 166.1180267  21.2041874
  85.8513565 165.0673523  23.7379494  86.6035385 164.1376038  23.4848499
  84.5721970 164.8844452  23.8293133  84.0950546 165.7295532  24.1090031
  83.8810883 163.6466827  23.6326237  84.5875015 162.9544067  23.1745510
  83.4052811 163.0082397  24.9512424  82.4827881 163.4843597  25.2835274
  83.1230011 161.9697418  24.7781506  84.3509827 163.0184479  26.0830345
  84.7228546 164.1249390  26.7881069  84.2907333 165.0959930  26.5965233
  85.6353760 163.8258362  27.7374744  86.1021042 164.4532623  28.3766975
  85.7792664 162.4254303  27.8200493  86.5210190 161.6121368  28.6780815
  87.0640259 162.1181030  29.4626484  86.5368195 160.1700134  28.4541302
  87.0394897 159.5068970  29.1426125  85.8448410 159.6846313  27.3321800
  85.8104553 158.6424103  27.0511131  85.1457977 160.5589294  26.4675808
  84.6235199 160.1128540  25.6341286  85.0835342 161.9501801  26.6953640
  82.7410202 163.8115845  22.6194668  82.0102158 164.8119202  22.6854000
  82.6940842 162.9202271  21.6699486  83.2991180 162.1121674  21.7029476
  81.5806732 162.7719574  20.6613541  80.9274750 163.6262665  20.8390999
  81.8733673 162.7608032  19.6114426  80.7555161 161.5198975  20.9544086
  81.1009140 160.4049530  20.6663189  79.6593628 161.7140350  21.6862679
  79.3762970 162.6793213  21.7768517  78.8341446 160.7183533  22.3172073
  79.3644257 159.7790680  22.4741611  78.3972473 161.2445374  23.6828556
  77.7281570 162.0989685  23.5811138  77.8388824 160.5015717  24.2523594
  79.4937592 161.7253265  24.6407852  80.1273651 162.4824677  24.1788654
  78.8892288 162.3222656  25.9248600  78.3769989 161.5501862  26.4990025
  79.6947098 162.6820068  26.5650845  78.1832352 163.1015625  25.6378803
  80.4079742 160.5743408  25.1266632  80.8835983 160.1163940  24.2593899
  81.1779785 160.9807587  25.7824173  79.7787628 159.8914185  25.6974754
  77.4973450 160.3555298  21.5830460  76.9292679 161.3610229  21.2023907
  77.1144867 159.1106720  21.2833557  77.6132126 158.3582458  21.7363892
  76.0028534 158.7505951  20.4370747  76.0522995 159.3437042  19.5238991
  76.0780334 157.2458344  19.9803009  75.0808105 157.0523071  19.5850830
  77.0313263 157.0296631  18.8907547  78.0348511 157.4113770  19.0787392
  77.0544586 155.9943390  18.5506516  76.6955795 157.6194611  18.0378189
  76.4205093 156.4347839  21.1081791  75.8286285 155.6789703  21.1039829
  74.7311554 158.9837036  21.1774921  74.5003586 158.5855865  22.3020191
  73.8840714 159.8169250  20.5180817  74.1744843 160.0522003  19.5797825
  72.6503983 160.3964233  21.0364532  72.8863678 160.6001434  22.0809212
  72.3532028 161.7490540  20.2815418  71.7329025 162.3916931  20.9063072
  73.3251877 162.2190399  20.1317024  71.6525955 161.5686493  18.9428768
  72.2565994 162.1432648  18.2406731  71.6052475 160.5212860  18.6447430
  70.1864700 162.0883636  18.9241352  69.9954071 163.0579376  19.3840618
  69.8661804 162.3846283  17.9252605  69.2142487 161.1476593  19.4185238
  69.1290207 161.1482849  20.4249210  68.5409241 160.1696167  18.7749653
  68.7045059 159.8521881  17.5498562  69.3569870 160.3704987  16.9791374
  68.0436478 159.1811981  17.1849785  67.6149292 159.5053711  19.4982109
  67.2984238 159.7934113  20.4130611  66.9561234 158.9073486  19.0202370
  71.4579163 159.3902283  21.0910969  70.5056610 159.4775238  21.7996635
  71.6622314 158.2476654  20.3513088  72.4558716 158.2738190  19.7271709
  70.9300919 156.9608612  20.4193592  69.8462372 157.0758667  20.4076424
  71.3204422 156.0900726  19.2385216  70.8703461 155.0973816  19.2298641
  70.9305344 156.6095428  18.3631763  72.7222061 155.9154663  19.3226643
  73.0975189 155.3760376  18.6228294  71.1628036 156.2073364  21.7700577
  70.2411880 155.7405548  22.3477936  72.4157486 156.2396088  22.3270893
  73.0938492 156.7003784  21.7371941  72.7777023 155.6232605  23.6559048
  72.1092224 154.7908630  23.8758221  74.2246399 155.0627594  23.5383072
  74.8883514 155.9067078  23.3502750  74.5636673 154.6646118  24.4946766
  74.3345032 154.3490601  22.7218075  72.5472565 156.5831604  24.8967018
  72.5084229 156.0755920  25.9931450  72.3168869 157.8268890  24.7161770
  72.4931717 158.2418671  23.8123932  71.9465637 158.7297516  25.8359756
  72.5298996 158.4141388  26.7009640  72.4431839 160.2365417  25.5164146
  71.9172211 160.5043945  24.6000519  72.1212692 160.8512573  26.3570042
  73.9964600 160.3943481  25.3924923  74.4004211 159.6452332  24.7115078
  74.2814560 161.8248291  24.8574677  73.8149338 162.5090790  25.5661755
  75.3642044 161.9485779  24.8787251  73.8392105 161.9517212  23.8693275
  74.6345978 160.2505188  26.7315788  74.5597000 159.2545471  27.1680946
  75.6885529 160.4937897  26.5970383  74.1834412 160.9594421  27.4258270
  70.4427490 158.7520752  26.2331448  69.5931320 158.6132050  25.4065762
  70.2262115 159.0111084  27.5415115  71.0166550 158.9480896  28.1670742
  68.8726501 159.2294159  28.1840744  68.1567993 159.3150177  27.3665562
  68.4552765 157.9589233  28.9185867  68.5072403 157.1035156  28.2450237
  69.1840897 157.8435516  29.7208481  67.0613022 157.9295807  29.5248260
  67.0336838 158.8426208  30.1195641  65.9289474 157.8786316  28.4992924
  65.9797897 156.9909973  27.8687096  64.8945465 157.9613190  28.8328781
  66.1439056 158.6549683  27.7649994  66.7829971 156.8053436  30.4654140
  67.3947906 156.8604126  31.3658428  65.7410583 156.8851929  30.7753963
  66.8605576 155.8179779  30.0102253  68.8487320 160.4728088  29.1146145
  69.6396484 160.5352020  30.0982494  67.8559723 161.4041290  29.0454025
  67.0790558 161.7088013  27.8842278  66.0905685 161.2711639  28.0237007
  67.5101700 161.2170868  27.0121841  67.0392532 163.2369232  27.7359409
  66.0590210 163.4649963  27.3173351  67.8428268 163.6423492  27.1211281
  67.1531372 163.8087311  29.1137409  66.1484070 164.1635590  29.3433533
  67.8587570 164.6343842  29.2059631  67.6875381 162.6192780  29.9358864
  68.6486359 162.9549866  30.3253593  66.8373032 162.2859802  31.1575603
  65.9011536 162.9976044  31.4413204  67.2148285 161.2886505  31.9814034
  68.0989914 160.8356018  31.7994556  66.5348358 160.9248810  33.2563438
  65.4633408 160.8142548  33.0897369  67.0370865 159.5482025  33.8508530
  67.0026779 158.8194580  33.0410080  68.0972290 159.7167816  34.0400352
  66.1994247 159.2372131  35.1326714  66.3279495 160.0555573  35.8411217
  65.1414032 159.2554169  34.8711777  66.5761414 158.0149689  35.8621025
  67.6592865 157.8948669  35.8836517  66.1613770 158.0630951  36.8689575
  65.9280090 156.8157654  35.2523384  65.6536560 156.8044281  34.2803802
  65.6482849 155.7586823  35.9717522  65.8634186 155.7105255  37.2244568
  66.1338043 156.5119629  37.7764244  65.7239914 154.8665619  37.7614746
  65.1690750 154.6789093  35.4085236  64.8507996 154.7267609  34.4511795
  64.6849899 154.0187378  36.0000801  66.7752151 162.0279694  34.3064804
  65.7756500 162.5575256  34.8046455  67.9578552 162.3683167  34.6226578
