Cpptraj Generated Restart                                                       
 6225  4.0000001E-01
  90.2499084 180.8041840  24.0861053  91.2335510 180.7588654  23.8613739
  89.9616241 179.8746643  24.3562298  90.0701141 181.4320984  24.8564968
  89.3307114 180.9457703  22.8864822  88.3029633 180.7972870  23.2178307
  89.4694290 182.2672882  22.1146851  90.4798737 182.2097168  21.7099762
  88.7605133 182.2200470  21.2880611  89.2861328 183.5585175  22.9533195
  88.4878922 183.3982544  23.6780434  90.1606064 183.6134033  23.6016922
  89.1936340 185.1584473  22.1506195  87.4205551 185.2933197  21.6459293
  86.8471375 185.3182678  22.5725708  87.3294220 186.2754059  21.1819344
  87.1421356 184.5219727  20.9278812  89.4214935 179.8148499  21.8933296
  90.4827728 179.3008423  21.5297070  88.3561707 179.4585419  21.1967869
  87.4839554 179.8825836  21.4787960  88.2986221 178.4266510  20.1224003
  88.9267426 177.5804138  20.4007015  86.8950577 177.7417908  20.0185509
  86.1997528 178.5304871  19.7311478  86.8714676 176.6150665  18.9529934
  87.3844681 175.7233124  19.3131447  85.8548889 176.2532043  18.7989559
  87.2854996 176.9503937  18.0020752  86.4363174 177.2576447  21.4064159
  85.8162842 176.3751984  21.2484665  87.3303757 176.9014587  21.9181633
  85.6123734 178.2683411  22.2237091  84.6962509 178.5420990  21.7003765
  85.3208847 177.7721252  23.1494026  86.1346893 179.1964264  22.4559612
  88.8774261 179.0185699  18.8434830  88.7783737 180.1574707  18.4797916
  89.6900330 178.1736145  18.1656342  89.7987518 177.2315369  18.5131569
  90.3657532 178.3971252  16.8932114  89.9038086 179.2804260  16.4522133
  91.8387909 178.6623077  16.9921989  92.2632217 178.8588257  16.0076466
  91.9113388 179.5847931  17.5682774  92.6637421 177.5499725  17.6977997
  92.3639221 176.3323212  17.6456795  93.6635361 177.8102264  18.4627991
  94.1469803 177.0681763  18.9483109  94.1089401 178.7159271  18.4247799
  89.9343262 177.3945160  15.8088198  90.2233047 177.5643921  14.6260967
  89.2089005 176.3665314  16.2323360  89.0830994 176.2706146  17.2298679
  88.8054886 175.2290039  15.4155560  89.5862808 174.7904358  14.7941608
  88.2300644 174.0878754  16.2652454  89.0115891 173.5717316  16.8228455
  87.3694000 174.4645691  16.8179111  87.6179199 173.0110626  15.4223175
  88.4518738 172.2086945  14.6572847  89.5183029 172.3789673  14.6454144
  87.9391861 171.2444611  13.7771873  88.6266174 170.5983124  13.2515202
  86.5246277 171.0925598  13.7013121  86.0669250 170.4018250  13.0086403
  85.7126846 171.9685516  14.4477158  84.6460190 171.8865814  14.2996759
  86.1979370 172.9320679  15.3426762  85.5945053 173.5747986  15.9665079
  87.8230057 175.8316193  14.3758898  86.8864975 176.5909119  14.6282244
  88.0702820 175.4901886  13.0950222  88.8225327 174.8602448  12.8554325
  87.1811829 175.9814453  11.9991503  86.8830566 177.0221100  12.1266060
  87.8653030 175.9418488  10.6660252  88.7353210 176.5956726  10.7266045
  88.1638794 174.9258270  10.4078169  87.0379639 176.4698486   9.4771280
  86.0797958 177.2240601   9.7475309  87.3462143 176.2245789   8.2843399
  85.9004822 175.1069489  11.9226036  85.7392273 174.0067291  11.3778372
  84.8566589 175.6875458  12.5353985  85.0865860 176.6002808  12.9016638
  83.5217133 175.0550690  12.8281336  83.6433792 174.1693268  13.4516525
  82.6305008 176.0645599  13.6400928  81.5794754 175.7789154  13.5970936
  83.0455170 176.0787659  15.1029997  84.0840378 176.3984833  15.1886826
  82.3978500 176.6692352  15.7510567  83.0803680 175.0312347  15.4022474
  82.6067505 177.3752899  13.1070290  82.0658417 177.9435120  13.6603251
  82.6893387 174.5650940  11.5950737  81.7399902 173.8157654  11.6997919
  83.1237335 175.0111694  10.4152536  83.9585495 175.5752869  10.3448715
  82.6179352 174.4968109   9.1633358  81.5896454 174.1648254   9.3065348
  82.6279678 175.5950775   8.1599360  81.8743362 175.4133759   7.3936963
  82.3922501 176.5947113   8.5249977  83.8681183 175.7050781   7.5728903
  84.5302429 175.7294006   8.2675791  83.2712479 173.1343842   8.7279406
  82.7168274 172.5064392   7.8355694  84.3099976 172.6696014   9.4301777
  84.8070984 173.1893311  10.1393118  84.9724655 171.4058685   9.0368509
  85.0863037 171.4968719   7.9566336  86.2782516 171.2518616   9.7608261
  86.1245728 171.4707642  10.8175049  86.6751709 170.2367401   9.7517862
  87.3892593 172.1994324   9.1918783  87.0927963 173.2319641   9.3765411
  88.7248764 172.0421600   9.9419794  89.2823029 171.1200867   9.7772398
  89.3665771 172.8996277   9.7393055  88.4650345 171.9974365  10.9996099
  87.6085052 171.8892822   7.7079406  86.7641373 172.2471161   7.1187868
  88.5075760 172.4187775   7.3926334  87.8268051 170.8282623   7.5868087
  84.1199036 170.1342163   9.1383972  84.2435455 169.2516785   8.2656717
  83.2413177 169.9462128  10.1490688  83.1105423 170.6477509  11.4118433
  82.3716507 171.4430237  11.3134880  84.0357437 171.0905151  11.7807198
  82.5771790 169.5561066  12.4070997  82.1838226 170.0520325  13.2944670
  83.3785858 168.8512878  12.6286449  81.5673752 168.8143158  11.4918127
  80.5766602 169.2606049  11.4058428  81.5467529 167.7778015  11.8284645
  82.1726303 168.8974762  10.0954628  82.7580872 167.9824524  10.0055571
  81.1093903 169.0124817   8.9584579  80.7267075 168.0118713   8.4428558
  80.6609344 170.2216644   8.6515074  81.1933289 171.0116425   8.9870529
  79.5159683 170.5467377   7.7722845  78.7350769 169.8214722   8.0010357
  78.8895187 171.9165344   7.9955606  78.2269516 172.1756592   7.1697450
  77.9259796 171.8929138   9.2165451  78.5946884 171.8152924  10.0738153
  77.2517776 172.7302704   9.0366411  77.3010406 171.0004883   9.1827488
  79.8019104 173.0092010   8.1940432  80.4306412 172.9523315   7.4708080
  79.8317108 170.3639069   6.2610455  79.0020065 170.0910797   5.4195137
  81.1831818 170.3291931   5.9261742  81.9181747 170.4931030   6.5992427
  81.6781769 169.8831482   4.6419592  80.9014359 170.1680145   3.9322860
  82.9145432 170.6049805   4.1533451  83.2769165 170.2066040   3.2056739
  82.6191406 171.6367493   3.9628108  83.9218903 170.5361176   5.1349859
  84.5439987 171.2417297   4.9434857  81.9288330 168.3719330   4.5780640
  82.1818237 167.9009857   3.4223893  81.8304901 167.6161804   5.6866131
  81.5499268 168.1111298   6.5211267  81.9248123 166.1360626   5.6883898
  82.0299225 165.8768921   6.7419000  80.5978088 165.4739990   5.2581639
  80.3636856 165.8361664   4.2571058  80.7815933 164.4005432   5.2129807
  79.5284500 165.7676392   6.3256502  79.4509277 165.0774384   7.4900141
  78.4539261 165.6233215   8.1195183  78.0339050 165.1970215   9.0185432
  77.9123917 166.6771851   7.4960413  77.1402893 167.2380066   7.8268600
  78.5890808 166.7782288   6.2910280  78.2625275 167.3578186   5.4402456
  83.2151566 165.5537262   5.0713096  83.2198563 164.4729462   4.4812303
  84.3879395 166.2311401   5.1914783  84.4468689 167.0559235   5.7714567
  85.6728516 165.8941498   4.4761343  85.5006104 166.1964417   3.4431496
  86.8324890 166.7057190   5.0165668  86.8931732 166.5668793   6.0959830
  87.7260361 166.2341003   4.6076136  86.7516403 168.1740417   4.6842599
  86.7043915 168.2569427   3.5984440  85.7947464 168.4950714   5.0958457
  87.9967346 169.3084106   5.3536887  89.4712601 168.5614166   4.6121535
  89.3267822 168.4485779   3.5376785  90.3079987 169.2532349   4.7089014
  89.6432495 167.6104584   5.1163249  86.0267868 164.4191132   4.5581679
  86.5134735 163.8957977   3.5182092  85.8043900 163.7636261   5.7108951
  85.1408463 164.2275696   6.3146868  86.1131363 162.3444366   5.8872623
  87.1967087 162.2309418   5.8540587  85.7095108 161.9148712   7.2880096
  86.1496048 160.9456482   7.5225353  86.1043396 162.6656189   7.9725499
  84.1572800 161.9166412   7.3969321  83.5168076 163.1486969   7.7551150
  84.1024094 164.0436554   7.9051385  82.1206741 163.1089172   7.8511114
  81.6516495 163.9873505   8.2691727  81.3402786 161.9579010   7.5452027
  80.0142288 161.8541107   7.7209940  79.6141357 162.7107391   7.5544953
  82.0499878 160.7503967   7.3231888  81.5261612 159.8067932   7.2826457
  83.4318161 160.7097931   7.1428561  83.9915085 159.8093719   6.9370427
  85.4763565 161.4260864   4.8435926  86.0329361 160.3404999   4.6537824
  84.3984222 161.7622986   4.1347017  84.0139542 162.6874390   4.2627182
  83.7122650 160.9478149   3.1776192  83.7833405 159.8898773   3.4302175
  82.2422485 161.3548584   3.2514987  81.9532166 161.3690186   4.3023844
  82.1767502 162.3713379   2.8634489  81.1868591 160.4434509   2.5168586
  81.4877319 160.1760406   1.5039090  80.8440628 159.1445312   3.2857189
  80.0625992 159.3769684   4.0091829  80.3108215 158.4811249   2.6047914
  81.7611694 158.7442322   3.7179000  79.8379822 161.2070770   2.3614936
  80.0516434 162.0481110   1.7018406  79.1157455 160.5484619   1.8791112
  79.4426727 161.6063690   3.2955134  84.2882004 161.0647736   1.7297395
  84.1039200 160.1563568   0.8997210  84.9671631 162.1671906   1.4496804
  85.2751846 162.7694397   2.1996927  85.6607971 162.3381195   0.1279728
  86.6786194 161.9481659   0.1195580  85.1280670 161.7954865  -0.6529527
  85.7005005 163.7958832  -0.3782423  84.6470032 164.4553833  -0.3612071
  86.8408661 164.2786255  -0.8706259  87.6627045 163.6924744  -0.8374895
  86.9337234 165.4995117  -1.7359029  86.2696609 166.2555542  -1.3169442
  88.3695374 166.0274658  -1.5247020  88.4679718 166.9810638  -2.0434203
  88.6122818 166.1858978  -0.4739529  89.2117615 165.0387726  -2.1150112
  90.0125122 165.4571838  -2.4395571  86.6575775 165.2129059  -3.2432427
  86.6501617 164.0386505  -3.6643529  86.3432541 166.2125397  -4.0309229
  86.4455414 167.1582184  -3.6913497  85.9095840 165.9880524  -5.3837047
  85.5418777 166.9531097  -5.7323465  87.1432800 165.5161743  -6.2365146
  87.9649811 166.1279755  -5.8642044  87.4375458 164.4880981  -6.0253911
  87.1080856 165.8024445  -7.7835565  86.2164154 166.4653625  -8.3263969
  88.0083466 165.2192230  -8.4543095  84.6566620 165.0441437  -5.5870233
  84.7919083 163.9955139  -6.2258205  83.4520035 165.4013214  -5.0470467
  83.3388901 166.2010803  -4.4406714  82.1852493 164.7276306  -5.3723345
  82.3544464 163.7719421  -5.8684525  81.3731842 164.5278931  -4.0572605
  81.3105011 165.4976044  -3.5634451  80.3704224 164.1746826  -4.2977114
  82.1048737 163.4516754  -3.2055962  82.2291718 162.5391083  -3.7885914
  83.0868149 163.8666382  -2.9782114  81.4288864 163.0592499  -1.5880992
  79.9697418 162.1266479  -1.9803888  80.2332840 161.4034119  -2.7521248
  79.5966949 161.6646576  -1.0663319  79.1662674 162.7776489  -2.3249750
  81.4325027 165.6014252  -6.4016395  81.6043777 166.7935944  -6.5418248
  80.5350952 165.0310669  -7.1885896  80.1956100 164.0914154  -7.0405755
  79.6771545 165.8365173  -8.1049347  80.2665024 166.6323853  -8.5603209
  79.1758118 164.8507690  -9.2246399  80.0126801 164.3749237  -9.7358322
  78.7171249 164.0002289  -8.7203712  78.2061844 165.3137360 -10.3174715
  77.2772217 165.6381073  -9.8485250  78.5844803 166.2085876 -10.8116550
  77.9329758 164.1924133 -11.3287163  77.6284180 163.0381470 -10.9116631
  77.9585266 164.4856873 -12.5618019  78.5008698 166.5137177  -7.3945432
  77.5522232 165.8092346  -7.0798988  78.5018845 167.8786011  -7.2281227
  79.3152008 168.3292999  -7.6224537  77.4138260 168.6116486  -6.6448069
  76.9552994 168.1291809  -5.7816300  77.8575363 170.0038300  -6.2461381
  78.3325882 170.5128632  -7.0847788  76.9963150 170.6176605  -5.9822984
  78.9137344 170.0209808  -5.0565081  78.4784088 169.5409241  -4.1800718
  79.8570709 169.5996399  -5.4039278  79.1913147 171.5001831  -4.6011486
  78.6256485 172.4703064  -5.2620378  79.9560776 171.7530212  -3.6211455
  76.3243332 168.8282318  -7.6526837  76.5624847 169.0116119  -8.8481522
  75.0469208 168.7930298  -7.2414742  75.0694199 168.7078552  -6.2353239
  73.7635956 169.1056366  -7.9243402  73.9088211 169.1407776  -9.0040541
  72.7204056 167.9909363  -7.5437069  72.6557999 167.9517822  -6.4563270
  71.7783585 168.3325195  -7.9726319  73.0688782 166.6482239  -8.1964512
  72.8773499 166.4118042  -9.5888357  72.5353851 167.1781006 -10.2687235
  73.0749283 165.0946198 -10.1198406  72.8402176 164.8928986 -11.1545477
  73.5289612 164.1050568  -9.2764139  73.7201462 163.0958405  -9.6100769
  73.6157379 164.3216248  -7.8770995  73.8620605 163.5249786  -7.1907601
  73.4255219 165.6012878  -7.3438015  73.4060059 165.6805115  -6.2668891
  73.3113708 170.5084686  -7.4668736  73.7744522 171.1029053  -6.4751887
  72.2978897 171.0558472  -8.1132240  71.9517441 170.5761108  -8.9318419
  71.7770157 172.4867859  -7.9416409  72.0022888 172.8532562  -6.9401107
  72.3962021 173.4652710  -8.9798298  72.0127869 174.4731140  -8.8206415
  73.4509201 173.5567932  -8.7204237  72.4178772 172.9805756 -10.4285622
  73.2192459 171.9176483 -10.8796444  73.0411377 171.8739471 -12.2094193
  73.4526062 171.0950165 -12.8342142  72.2213058 172.8370972 -12.6195822
  71.9128494 172.9188843 -13.5778437  71.8427353 173.6065063 -11.5240784
  71.2372742 174.5000916 -11.4875402  70.2244568 172.5756989  -7.9994493
  69.5770416 173.1668854  -7.0936399  69.6122971 171.9812469  -9.0005703
  70.1329193 171.5478821  -9.7497330  68.1314392 171.9872131  -9.2148457
  67.7539139 173.0006256  -9.3511333  67.9374390 171.4907684 -10.1656389
  67.3868027 171.2855530  -8.1023817  67.8954010 170.2742462  -7.5885863
  66.2241516 171.7795410  -7.6293921  65.7601089 172.5890198  -8.0160961
  65.4874420 171.1926880  -6.4395914  66.1064911 170.4844513  -5.8888726
  65.1821365 172.3534851  -5.4338789  64.5016861 173.0735626  -5.8883791
  64.7926865 171.9259491  -4.5099516  66.3965378 173.1883240  -5.0021305
  66.8126221 173.5536041  -5.9410367  66.1241913 174.0049896  -4.3335624
  67.4941254 172.3133087  -4.2907448  67.0262680 171.7730103  -3.4677684
  67.8703842 171.6317596  -5.0536408  68.6638184 173.0802002  -3.8536649
  69.5287857 172.8565979  -4.3247743  68.6549988 173.9507446  -2.8467219
  67.6969223 174.2975464  -2.0486090  66.7422638 174.0164642  -2.2210109
  67.8369522 174.9667969  -1.3052417  69.7643814 174.6241760  -2.5972242
  70.5873413 174.5898895  -3.1817431  69.8929977 175.2336731  -1.8021934
  64.1270447 170.4752197  -6.6929669  63.3492966 170.9050140  -7.5013552
  63.7983170 169.4217987  -5.9463215  64.4235077 169.1257019  -5.2104106
  62.4936180 168.7680817  -5.8835864  61.9204445 168.9669189  -6.7891483
  62.6724281 167.2123413  -5.9157968  63.2912865 166.8450775  -5.0971227
  61.3738976 166.4363708  -5.8232903  60.7754936 166.4363098  -6.7343402
  61.6433144 165.4276123  -5.5103621  60.7801857 166.7840424  -4.9778738
  63.2193756 166.8519440  -7.1662602  62.7904663 166.0007935  -7.2811217
  61.7390289 169.2062988  -4.5823627  62.1603394 168.7846527  -3.4986928
  60.5999260 169.9308167  -4.7709198  60.3750725 170.2838440  -5.6901126
  59.5572281 170.0755615  -3.7660246  59.7890091 169.3804932  -2.9590185
  59.6712837 171.4474182  -3.0736020  59.6379852 172.1576233  -3.8997929
  58.7469330 171.7245331  -2.5667593  60.8352242 171.7003479  -2.2278776
  61.7206154 171.5210419  -2.8378203  60.8748817 173.1783142  -1.8059299
  60.0131493 173.3329773  -1.1566261  61.7915955 173.2838745  -1.2257591
  60.8344727 173.9468079  -2.5778542  60.9971619 170.8577881  -0.9441924
  61.1759567 169.8410492  -1.2940370  61.8367348 171.2610779  -0.3779949
  60.1068764 170.9190521  -0.3183016  58.1804466 169.8354492  -4.4419127
  57.7930222 170.7044678  -5.2608604  57.6449089 168.6699829  -4.1638393
  58.1246986 168.1658478  -3.4318874  56.2375374 168.2061615  -4.4182982
  56.1186905 168.1811523  -5.5015111  56.0905914 166.8095551  -3.8121033
  56.0792999 166.8126831  -2.7221663  55.1145248 166.4386292  -4.1248550
  57.0301895 165.7662048  -4.3119011  58.1848030 165.4553223  -3.6141078
  58.8242760 164.4998932  -4.3628445  59.7168770 163.9830627  -4.0426040
  58.1834641 164.3117676  -5.5293093  58.3799706 163.5308075  -6.1388974
  57.0580406 165.1907654  -5.5203948  56.3174095 165.1873016  -6.3064308
  55.2861099 169.1613159  -3.7934301  55.5116119 169.8252563  -2.7314472
  54.0512352 169.2097473  -4.3646417  53.8417778 168.6000519  -5.1421351
  52.9479942 169.9635315  -3.9096181  53.2375717 171.0140686  -3.8848679
  51.6881866 169.8505096  -4.8240805  51.5069084 168.8081055  -5.0860200
  50.8126411 170.2092743  -4.2829638  51.9553795 170.7269745  -6.0512104
  51.8790207 171.9840240  -5.9089751  52.0896378 170.1637421  -7.1822133
  52.5420036 169.6345215  -2.4482167  52.4771347 168.4736023  -2.0203555
  52.1162262 170.6510315  -1.6622450  52.0887260 171.5499268  -2.1219342
  51.5692215 170.3565216  -0.3908592  52.3143311 169.8187103   0.1953757
  51.3734818 171.6592407   0.3591874  50.5948792 172.2374420  -0.1383765
  50.9554138 171.4107666   1.3346779  52.7264137 172.3730621   0.6192006
  53.6542778 171.7791443   1.2275589  52.8049583 173.5391541   0.2227460
  50.2419281 169.5464935  -0.4350423  49.4026680 169.7232361  -1.3322779
  50.1828880 168.6221619   0.5160906  50.9496689 168.5707245   1.1714553
  49.3040619 167.4630280   0.6196108  49.6855202 166.8220367   1.4144251
  47.8318901 167.9779358   0.9243044  47.5697060 168.6748047   0.1282417
  47.0478134 167.2208710   0.9375255  47.7361526 168.6887207   2.2932606
  48.4064140 168.2391815   3.2689359  47.0160103 169.7194366   2.3469841
  49.2414932 166.5101776  -0.6065146  48.3577766 165.6820831  -0.7270920
  50.1331482 166.7098389  -1.5797830  50.8355675 167.4355164  -1.5696621
  50.1010361 165.7706451  -2.6887181  49.0810280 165.7404938  -3.0718281
  50.9273071 166.2644958  -3.8921015  50.6844101 165.5996857  -4.7210369
  50.6110764 167.2545929  -4.2204161  52.3372650 166.1007385  -3.8148947
  52.7533531 166.7200165  -3.2107561  50.5256958 164.2977448  -2.2871060
  51.3948517 164.1640930  -1.4134016  49.9461632 163.2644501  -2.8786528
  49.2381058 163.3920746  -3.5874984  50.1487389 161.8728180  -2.5462563
  50.5058250 161.8707275  -1.5164098  48.7994804 161.0459747  -2.7514260
  48.0419502 161.5033875  -2.1150048  48.4401817 160.9304352  -3.7739980
  48.9440346 159.3222504  -2.0626619  48.1055870 158.6864319  -2.8858466
  51.2081451 161.2531738  -3.4383135  51.0905952 161.3561249  -4.6402864
  52.2762566 160.6889343  -2.8569381  52.2419853 160.7456970  -1.8491173
  53.5039330 160.2762299  -3.5338423  53.2882843 160.1359863  -4.5930552
  54.5834274 161.3209076  -3.2391872  54.8062897 161.2337189  -2.1757834
  55.4779701 160.9690704  -3.7530835  54.3131943 162.8112640  -3.5682113
  53.3984680 163.1667938  -3.0938890  55.0455475 163.5171967  -3.1765223
  54.0834656 162.9946899  -5.0820451  54.2668419 162.1781769  -5.9544554
  53.5409622 164.1268463  -5.5832376  53.3926620 164.2830963  -6.5700006
  53.2463875 164.8790131  -4.9769516  53.8548393 158.8740997  -3.0966034
  53.4296837 158.4523468  -2.0496426  54.7740707 158.1854553  -3.8546941
  54.9878120 158.6157379  -4.7431035  55.4291763 156.9533691  -3.4722030
  55.2060165 156.8205872  -2.4135866  54.8269043 155.6610718  -4.1652508
  53.7606964 155.6070404  -3.9452927  54.9165916 155.8612061  -5.7198710
  55.9483337 156.0237122  -6.0316319  54.5008163 154.9981995  -6.2399130
  54.2748566 156.7178650  -5.9257998  55.4639587 154.2949066  -3.8878045
  55.1871910 153.9209442  -2.9020767  55.1744881 153.4518585  -4.5151596
  56.5451126 154.3169708  -4.0246258  56.9468918 157.0344543  -3.6607068
  57.4729424 157.5295410  -4.6608481  57.6897545 156.5832367  -2.6423092
  57.2804718 156.1800690  -1.8116182  59.1132317 156.9020996  -2.4580076
  59.5306854 157.0830536  -3.4485066  59.2697220 158.2326202  -1.6528617
  59.1366081 157.9597168  -0.6060088  60.7083397 158.9045715  -1.6307863
  60.9795380 159.3649597  -2.5808313  60.8128281 159.7135925  -0.9078175
  61.4475670 158.1293945  -1.4289421  58.2824173 159.3742371  -2.0946875
  58.4023323 159.4819946  -3.1726985  57.2640266 159.1171417  -1.8033237
  58.3374290 160.8366547  -1.4786894  59.0516090 161.4322052  -2.0473490
  57.3741112 161.3264465  -1.6208717  58.5100060 160.8347778  -0.4024395
  59.9593849 155.8011475  -1.8175845  59.6221275 155.1747131  -0.7964194
  61.1289253 155.4868774  -2.4070230  61.7267227 156.0448303  -3.6348288
  61.8627586 157.1252441  -3.5867727  61.0347137 155.7644348  -4.4289346
  63.0769157 155.3752289  -3.8375473  63.8777390 155.9600983  -3.3850920
  63.2682457 155.0202942  -4.8502231  62.9957619 154.1174469  -2.9998517
  63.9439621 153.7771149  -2.5836842  62.5865288 153.3326416  -3.6360269
  61.9941025 154.4600067  -1.8701577  61.2690773 153.6695709  -1.6761435
  62.7692947 154.9761963  -0.6064568  63.1230621 156.1278229  -0.4879071
  62.9825287 154.0231781   0.2705893  62.5787735 153.1182098   0.0753882
  63.7466164 154.0808716   1.5029883  64.1298141 155.0973663   1.5923798
  62.7828178 153.7580414   2.7008116  62.5140038 152.7017059   2.6980803
  63.5233307 153.8489380   4.0824647  63.7148170 154.9006500   4.2953634
  62.8554916 153.5128784   4.8756590  64.4645538 153.2992554   4.0750813
  61.5681534 154.6005096   2.9045241  60.9049149 154.4736786   2.0488787
  61.0384674 154.2171021   3.7766135  61.8773346 155.6349030   3.0546081
  64.8655701 153.0420685   1.3629098  64.5794067 151.8731689   1.0413907
  66.0976715 153.4540710   1.6726073  66.3201065 154.4181671   1.8754053
  67.1696320 152.4952240   1.7884091  67.2140350 151.9146729   0.8669486
  68.4781494 153.2066803   1.8633704  68.3733749 153.9442749   2.6590269
  69.2112656 152.4191284   2.0377007  68.9540405 153.9777679   0.6126986
  68.1194382 154.5182648   0.1661546  69.9692154 155.0519257   0.9859786
  70.8581390 154.7402649   1.5344061  70.2277374 155.5534058   0.0533541
  69.4505768 155.7102509   1.6829137  69.7422104 153.0147705  -0.3096732
  69.1458893 152.1098175  -0.4262058  70.0161667 153.4733734  -1.2597860
  70.6645203 152.6944275   0.1749192  66.8792801 151.6618805   3.0950956
  66.7488861 152.2199707   4.2104325  66.7992172 150.3215485   2.9580958
  66.9384537 149.5316010   1.7886111  67.9502411 149.6762543   1.4098399
  66.0936813 149.7388458   1.1317238  66.9501572 148.0759888   2.2240086
  67.9298172 147.6299286   2.3954515  66.3929214 147.5682678   1.4367273
  66.1695251 148.1166077   3.5513625  66.5424271 147.3395386   4.2186041
  65.1029739 148.0128021   3.3518944  66.5137634 149.4795532   4.1087337
  65.5868607 149.8734283   4.5256300  67.5996246 149.5201263   5.2458286
  67.1845016 149.2988892   6.3610907  68.8801880 149.7279053   4.9794936
  69.2340775 149.7248535   4.0335250  69.8747101 149.9206238   6.0863338
  69.5226440 149.3224792   6.9267921  71.2407150 149.4671936   5.6493468
  71.6330261 150.1299438   4.8780069  71.9898224 149.5775757   6.4334106
  71.3376846 148.0116272   5.2234969  70.8538513 147.4821472   4.0273142
  71.2133484 146.1491547   4.0531201  71.0908737 145.4181061   3.2676473
  71.7329941 145.9136505   5.2644730  71.9445877 144.9889069   5.6111417
  71.9071045 147.0396729   5.9651093  72.4512787 147.1714935   6.8886375
  69.8311081 151.2904663   6.7869563  70.7262192 151.4781799   7.6443934
  68.9207230 152.2639160   6.5458417  68.2305756 152.0944519   5.8281512
  68.8490067 153.5538788   7.2279959  69.8067703 153.9215851   7.5962229
  68.4311447 154.6190491   6.2008471  67.5194626 154.3086700   5.6903644
  68.1696472 155.9719696   6.8869362  69.1531982 156.2274017   7.2812753
  67.9868622 156.7625580   6.1591454  67.3707123 155.8790131   7.6225734
  69.4798584 154.7874603   5.0897436  69.5307922 153.8923035   4.4699016
  69.2585373 155.6175079   4.4188318  70.4794006 154.8866730   5.5130405
  67.8848572 153.4169312   8.4319935  66.7488480 153.2171478   8.2324095
  68.3908310 153.5372772   9.6811514  69.3886871 153.4933319   9.8309774
  67.5857697 153.3193359  10.8600140  66.6388092 152.8510590  10.5915289
  68.3149414 152.2624664  11.8265715  69.2983093 152.6456451  12.0990829
  67.7681961 152.1741791  12.7653866  68.4535599 150.9385986  11.0744734
  67.4538422 150.5410309  10.8995476  68.8899841 151.1880798  10.1073151
  69.4170532 149.5929718  11.8399897  69.8025360 148.7739868  10.2943354
  70.4137192 149.4277344   9.6721048  70.4271011 147.9163666  10.5443678
  68.8689194 148.4140472   9.8620090  67.2339554 154.5866852  11.6786766
  66.3137283 154.5533295  12.4995871  68.0294647 155.6436157  11.4491158
  68.6638489 155.6298065  10.6633234  67.8406296 156.9531250  12.1008139
  67.6078644 156.7586212  13.1477575  69.1304855 157.8209076  12.0638018
  68.8883362 158.7173920  12.6345673  70.3107605 157.2284698  12.9465199
  70.7348938 156.2890167  12.5920553  71.2170868 157.8267670  13.0398855
  69.9589081 156.9206238  13.9311695  69.5475464 158.1698456  10.6418476
  68.6671143 158.4275970  10.0532093  70.2502213 159.0028687  10.6627884
  69.9823990 157.2533112  10.2431536  66.6389694 157.7674561  11.5662422
  66.0927963 157.4761047  10.4945536  66.1631699 158.6772461  12.3460875
  66.6044235 158.6705780  13.2545786  65.1773834 159.6671753  11.9836273
  64.4559402 159.1456604  11.3546343  64.3995438 160.0213776  13.2650824
  64.0084305 159.0598450  13.5975990  65.0438232 160.4570923  14.0287342
  63.1280403 160.8805237  12.9017181  63.3941689 161.7253571  12.2664766
  62.4637947 160.2934570  12.2674990  62.1753693 161.4864655  14.3111382
  62.3425369 160.1316681  15.4812889  63.3970985 160.0188599  15.7328224
  61.8049622 160.4086609  16.3881435  61.8676109 159.2606049  15.0298424
  65.8202057 160.9349670  11.4340162  66.8289871 161.3361969  12.0405512
  65.3924026 161.4319153  10.2885637  64.5766907 161.0501556   9.8314333
  65.8864746 162.6560974   9.7347660  66.8721313 162.8780670  10.1438007
  66.1672592 162.5315704   8.1648111  66.5962601 161.5634155   7.9064789
  65.2227554 162.4994507   7.6216774  67.0364914 163.6169128   7.5380921
  66.5868607 164.5866089   7.7516613  68.4376526 163.5048523   8.0023909
  68.8219757 162.4929657   7.8740177  69.0294571 164.2936859   7.5380492
  68.4404068 163.5993652   9.0882864  67.0306854 163.4363098   6.0549922
  66.0342484 163.6482239   5.6672864  67.6958542 164.1559296   5.5776968
  67.2672958 162.3941345   5.8405442  64.9210281 163.8255463  10.0302420
  63.7277946 163.6904602   9.6505308  65.3414993 165.0078430  10.4871330
  66.3172302 165.1220856  10.7216702  64.5077896 166.2576904  10.5856628
  63.4625702 165.9504852  10.6210737  64.7836838 167.0095215  11.9006405
  65.8377914 167.2858429  11.9254417  63.9531021 168.3198090  12.0379095
  62.9661942 168.0874786  11.6377363  63.7998352 168.5966949  13.0809574
  64.4872360 169.1201477  11.5257797  64.4488983 166.0960083  13.0626259
  65.1469727 165.2607269  13.1180897  64.5810089 166.6050262  14.0173807
  63.0662117 165.5033875  13.2065735  62.8716736 164.6453705  12.5630884
  63.0085945 165.1306152  14.2292280  62.2305069 166.1869965  13.0570087
  64.7669678 167.1185760   9.3753090  65.8820877 167.0547485   8.8305216
  63.7802925 167.7793121   8.8009443  62.3537674 167.6604004   8.9005613
  62.0495300 168.0390167   9.8763618  62.0328522 166.6188202   8.8859577
  61.7467728 168.3454742   7.6552687  60.7932434 168.8397827   7.8411565
  61.4997101 167.5436554   6.9594612  62.7873993 169.3090515   7.2146273
  62.7147713 170.2713623   7.7213674  62.6909485 169.4967194   6.1452446
  64.1052322 168.6580505   7.5976129  64.3970413 168.0118713   6.7697163
  65.1876068 169.6072998   7.9217401  65.4284134 169.9644623   9.1032515
  65.9661789 170.0222626   6.9322009  65.8107529 169.6763458   5.9960995
  67.1448898 170.8876648   7.1889958  67.2887726 171.5836487   6.3625546
  66.7964935 171.5115051   8.0121260  68.4085388 170.1989136   7.6111121
  69.5071793 170.6767120   7.2802682  68.2741241 168.9831543   8.1709585
  67.3193207 168.7025299   8.3432732  69.3504486 168.1436157   8.7083883
  70.0153275 168.7973328   9.2729120  68.7814407 167.0664673   9.6992893
  68.1793823 167.6254730  10.4156218  68.1659470 166.3441620   9.1630487
  69.9344788 166.3831940  10.4303188  70.4976654 165.7962189   9.7047987
  70.6546631 167.1055145  10.8146391  69.3669205 165.4611816  11.5180168
  68.1476288 165.2175446  11.6745729  70.2419128 164.7832336  12.2807064
  70.1093674 163.9491272  12.8345900  71.1977005 164.8140717  11.9557266
  70.0731354 167.5826721   7.4958816  69.4706116 166.9768982   6.6043854
  71.4060211 167.5679626   7.5657983  71.8114700 168.0780945   8.3374691
  72.3490219 166.9998932   6.5515523  71.7755737 167.1410217   5.6354008
  73.7377472 167.7410736   6.4730878  74.1237106 167.6150665   7.4846482
  74.7686081 167.2301178   5.4479251  74.2311096 167.1333771   4.5046072
  75.6156082 167.9139252   5.3922057  75.1700134 166.2513733   5.7106447
  73.5791245 169.1505585   6.2638597  74.4037323 169.6408081   6.2997088
  72.4670944 165.5090485   6.8558993  72.3906403 165.1243134   8.0240746
  72.7356567 164.5772858   5.8965816  72.5458603 164.8812256   4.9522834
  72.8424988 163.1429443   6.0257854  73.0461349 163.0253296   7.0901179
  71.4187927 162.6047211   5.7426229  70.6608353 163.0299835   6.4004550
  71.1348953 162.8683472   4.7237973  71.3502045 161.0601196   5.8151751
  72.0683289 160.6391144   5.1115003  71.8021774 160.4816284   7.1600432
  71.2600632 160.9864197   7.9596782  71.5220184 159.4321442   7.2504697
  72.8805008 160.5621185   7.2972741  69.9420624 160.5594635   5.4325089
  69.5800934 161.0241241   4.5153537  69.9318542 159.4884186   5.2303247
  69.2151413 160.8947754   6.1722703  73.9661713 162.5593414   5.0228505
  73.7015533 162.4407501   3.8143854  75.1159897 162.2949371   5.4862967
  75.5435791 162.6370544   6.8457885  74.9681091 162.1741333   7.6474409
  75.4960861 163.7234497   6.9203691  77.0641708 162.2071381   6.9447827
  77.1891098 161.2725830   7.4916849  77.6714706 162.9751587   7.4237633
  77.5262985 162.0471039   5.5366979  78.2628479 161.2661438   5.3477960
  77.8885422 162.9541016   5.0527191  76.2118301 161.6554260   4.7736144
  76.2892075 161.9707336   3.7330852  75.9540787 160.1684875   4.7760606
  75.5042877 159.6288757   5.7850513  76.1869507 159.4584808   3.7009673
  76.5149841 159.8888245   2.8481488  76.1289139 157.9752045   3.6416075
  76.1511688 157.5339508   4.6380520  74.6760178 157.5857544   3.1608627
  74.7349091 158.0457306   2.1744292  74.5828552 156.5033112   3.0729828
  73.3970566 158.0773315   3.8831482  73.4881363 159.1560059   4.0107636
  72.1392288 157.7658386   3.0364332  72.1611862 156.7293549   2.6997895
  71.3162079 157.9336700   3.7311077  72.0653763 158.4320068   2.1768639
  73.2536926 157.2436218   5.1636977  74.0696182 157.4828339   5.8457146
  72.2840195 157.4219208   5.6285129  73.3296890 156.1836853   4.9210820
  77.1771240 157.3713531   2.7387865  77.6603546 157.9845123   1.7606758
  77.5710831 156.0951996   3.0387211  77.3093033 155.8168488   3.9736490
  78.3379211 155.2160797   2.1550858  78.3756714 155.6685486   1.1641589
  79.7585831 155.0638275   2.7714288  80.2524567 156.0349731   2.7390261
  79.5863419 154.7043610   3.7859399  80.7055359 154.0706329   2.0772476
  80.2232971 153.0931396   2.0853233  80.8465500 154.3564301   1.0348752
  82.1168747 154.0338898   2.6042631  82.6032104 155.0680542   3.0739882
  82.8184433 152.9113922   2.4637234  83.8036957 152.9257355   2.6854863
  82.3462372 152.0369263   2.2836165  77.5171509 153.9284973   1.9434179
  77.1698837 153.2297516   2.9031460  77.2305145 153.5464325   0.6668208
  77.5463333 154.1481628  -0.0803584  76.3509750 152.4833527   0.3502340
  75.9923630 151.9410553   1.2251130  75.0822678 152.9501495  -0.4240808
  75.3412018 153.1950684  -1.4541630  74.4567184 152.0614624  -0.5080258
  74.2566605 154.1666718   0.0699097  74.9224319 155.0294495   0.0483839
  73.0931396 154.5505524  -0.8901991  72.3862000 153.7555695  -1.1275542
  72.5368271 155.4006348  -0.4952492  73.6246185 154.7978058  -1.8091623
  73.6458435 153.9552460   1.4560845  74.5047684 153.6988678   2.0762630
  73.2796707 154.8943634   1.8709233  73.0625000 153.0358887   1.5069727
  77.1960220 151.5025787  -0.4869336  77.6087036 151.8040771  -1.6223143
  77.4624481 150.2983246   0.0920109  77.2552032 150.2227936   1.0776358
  78.2693558 149.2068024  -0.4601780  78.7471848 149.5308533  -1.3847167
  79.3546448 148.8274994   0.6097492  79.9669113 147.9751434   0.3152735
  80.0678024 149.6256561   0.8157719  78.7797852 148.4456940   2.0513232
  78.4047852 149.4443054   2.9596312  78.5973892 150.4691925   2.6787026
  77.6514664 149.0735931   4.1140041  77.2533264 149.8798370   4.7122173
  77.5277405 147.7423096   4.4586196  77.0508270 147.4366455   5.3781462
  77.9600601 146.7489471   3.5669625  77.6012268 145.7634125   3.8246088
  78.4826126 147.1255035   2.3464668  78.6691818 146.3226471   1.6486067
  77.3923645 147.9113464  -0.8561172  77.8911362 147.0863342  -1.6169747
  76.1800613 147.7781525  -0.3157496  75.9173508 148.3818970   0.4501330
  75.2492905 146.6722870  -0.6135111  75.8174744 145.7509613  -0.4853891
  74.1709976 146.5026550   0.4895855  73.7602158 147.4785767   0.7482918
  73.3299942 145.9349365   0.0914463  74.7255173 145.7488708   1.6776580
  74.9335938 144.3369293   1.5605900  75.0822372 143.9221649   2.8448479
  75.3443451 142.9071350   3.1045101  75.0571442 144.9996490   3.6799669
  75.1590118 145.0565338   4.6832042  74.6418686 146.1032867   2.9699233
  74.2265930 147.0208740   3.3597441  74.6624222 146.7630920  -2.0777488
  74.3854904 147.9074097  -2.4710081  74.5639191 145.6084137  -2.8594968
  74.5977478 144.2276764  -2.3748159  74.1607590 144.0682678  -1.3890525
  75.6374359 143.9005890  -2.3620720  73.8752289 143.3404083  -3.4372549
  72.8307419 143.2291260  -3.1461265  74.5003662 142.4476929  -3.4183240
  73.9811630 144.2100372  -4.7174649  73.1485748 144.1179810  -5.4149022
  74.8507843 143.9166260  -5.3054948  74.1797638 145.6882782  -4.2841654
  74.9502029 146.0825043  -4.9468155  72.9242935 146.5150146  -4.4956889
  72.8497238 147.4142609  -5.3651652  71.8428192 146.2741394  -3.7592373
  71.9089279 145.5062103  -3.1065278  70.4816132 146.8927765  -3.8831489
  70.2972260 146.8200531  -4.9549761  69.3796616 146.0775299  -3.0620666
  68.3972168 146.3831482  -3.4219096  69.4390259 145.0387726  -3.3869610
  69.3150330 146.0990753  -1.5362805  69.5628891 147.1325073  -1.2940245
  68.3348618 145.8059082  -1.1602055  70.3819504 145.2001953  -0.8482725
  71.4673843 144.9608459  -1.3146993  70.0173111 144.6557465   0.3004927
  70.6438675 143.9998169   0.7446579  69.0686493 144.8104706   0.6106681
  70.6100540 148.3533936  -3.5210097  69.9661484 149.1859283  -4.1437173
  71.4016495 148.7381897  -2.4931810  71.9795456 148.0925293  -1.9742719
  71.5537033 150.1547089  -2.1254842  70.5835724 150.6343842  -1.9956466
  72.3213501 150.3324585  -0.8284618  73.3251877 149.9101562  -0.8739101
  72.3481445 151.4152527  -0.7061468  71.5986176 149.8267975   0.4408627
  70.5481720 150.1142426   0.4860146  71.6052551 148.7373047   0.4085006
  72.3229675 150.2872314   1.7109324  73.5048904 149.9447479   1.8628459
  71.6992493 150.9763641   2.5375469  72.2519455 150.9776764  -3.2074740
  71.8709564 152.0861359  -3.4513903  73.2341385 150.4007721  -3.8907516
  73.6098557 149.5260773  -3.5533516  73.9072189 150.9519348  -5.0855641
  74.3324127 151.9241943  -4.8365440  75.0420380 150.0166473  -5.6137304
  74.7473526 148.9679565  -5.6525145  75.5975800 150.4955902  -6.9598503
  75.7685852 151.5720825  -6.9534822  76.5421600 150.0160217  -7.2165332
  74.9246140 150.2729340  -7.7878833  76.1797943 150.1815033  -4.4632764
  75.9202118 149.7702942  -3.4877670  77.0973053 149.6885223  -4.7845907
  76.4329681 151.2290802  -4.3001866  72.8380356 151.1574402  -6.2290826
  72.6441956 152.2720184  -6.6639123  72.1441040 150.0914307  -6.6441131
  72.3380127 149.2218781  -6.1683140  71.1513977 150.0253601  -7.7128811
  71.6480255 150.3353424  -8.6323223  70.5901566 148.6266937  -7.9099512
  71.4469910 147.9567108  -7.9810004  70.1258926 148.2680511  -6.9912868
  69.8917694 148.5511169  -9.1574574  69.2822647 147.8102570  -9.1923075
  70.0702362 151.0841064  -7.5536356  69.8723526 151.9529572  -8.3982725
  69.3969193 151.1203613  -6.4055343  69.5833054 150.4281616  -5.6940417
  68.3380280 152.0824127  -6.1665220  67.5220032 151.9575348  -6.8782892
  67.7777328 151.8282776  -4.7920017  67.5912094 150.7543488  -4.7912350
  68.4478760 152.1195068  -3.9831796  66.3755341 152.4459991  -4.5092721
  65.6752777 152.0394135  -5.2389555  66.0842896 152.0717468  -3.5278397
  66.2703400 154.2438049  -4.5194130  67.1398163 154.6874237  -3.0716949
  68.1809845 154.3649139  -3.0647130  67.0615692 155.7659607  -2.9348543
  66.6197662 154.1564026  -2.2744067  68.8288193 153.5594635  -6.3013086
  68.2981873 154.3452911  -7.0852385  69.8978195 154.0006409  -5.6156168
  70.4340363 153.3091125  -5.1112862  70.3852234 155.3621521  -5.8209972
  69.4917984 155.9712830  -5.6837010  71.4522018 155.8051605  -4.8309498
  71.7440186 156.8395996  -5.0122757  70.9773254 155.7444916  -3.4035914
  70.8253708 154.6917877  -3.1652055  71.6298752 156.3104401  -2.7387733
  69.9842148 156.1927185  -3.3732407  72.7388687 154.9826050  -5.0256486
  73.1458130 155.1714325  -6.0190449  73.4808350 155.2546997  -4.2749486
  72.5948029 153.9094238  -4.9006648  70.8335648 155.6879425  -7.2398739
  70.6814423 156.8571472  -7.6705160  71.4023895 154.7261047  -7.9572692
  71.4666748 153.8026733  -7.5532346  71.8792343 154.9014587  -9.3946037
  72.4700012 155.8152313  -9.4588346  72.6983871 153.6815033  -9.9071541
  73.5064621 153.5556488  -9.1865406  72.0350113 152.8227234 -10.0097475
  73.3917465 153.9660950 -11.2032757  72.8048172 154.4278717 -11.9972410
  74.1519852 154.7202301 -10.9997520  74.1394577 152.7449036 -11.7897911
  73.4207993 151.9281006 -11.8566370  74.4153366 152.9835663 -12.8169374
  75.3823700 152.4412689 -11.0008106  75.9134674 153.2141113 -10.6256361
  76.0291519 151.2744141 -10.9106264  75.6304474 150.2068024 -11.5194988
  74.8001862 150.3537445 -12.0755339  76.3057938 149.4623108 -11.6182575
  77.1358337 151.1816101 -10.2563705  77.5616226 152.0497742  -9.9646788
  77.4878998 150.2413177 -10.1468496  70.6178513 155.2399750 -10.2482119
  70.5616837 156.2947693 -10.8789053  69.5868912 154.4496613 -10.0895882
  69.7521591 153.6925812  -9.4418087  68.3438110 154.3896027 -10.8510704
  68.4709625 154.4263916 -11.9330034  67.5965805 152.9906158 -10.5022373
  67.3427887 153.0339813  -9.4430799  66.6362762 152.9313202 -11.0144968
  68.3776245 151.6969299 -10.8574486  69.3941422 151.6421814 -11.5436268
  67.9588623 150.5089417 -10.3965921  68.5630951 149.7174225 -10.5653887
  67.1336517 150.4096222  -9.8227749  67.3794785 155.5348358 -10.5552282
  66.5501099 155.8715668 -11.4392776  67.5136948 156.1650391  -9.3817396
  68.0832672 155.6952362  -8.6925573  66.8574905 157.4430389  -8.9983397
  65.8300476 157.4853363  -9.3598070  66.6644669 157.4137573  -7.4470401
  66.0388641 156.5536346  -7.2084808  67.6425552 157.2847595  -6.9835725
  66.1131821 158.6074829  -6.7009425  66.7828598 159.4408112  -6.9135408
  64.7321777 159.0179443  -7.2565956  64.0614243 158.1698151  -7.1192188
  64.2757568 159.8510742  -6.7221203  64.9200058 159.2958984  -8.2936897
  66.0807571 158.2980957  -5.2244544  67.0781631 158.3266449  -4.7857327
  65.5530090 159.0830078  -4.6826963  65.5041428 157.3934021  -5.0317435
  67.6455460 158.6651764  -9.5441322  66.9696426 159.6204529  -9.9339981
  69.0071793 158.6962280  -9.5361948  69.4374695 157.8596649  -9.1686325
  69.8596191 159.8952332  -9.7478256  69.4895096 160.6690826  -9.0753231
  71.3395538 159.6286926  -9.3221426  71.3920822 158.8196564  -8.5935745
  72.3438416 159.2709961 -10.4785166  72.3902588 160.1767731 -11.0830736
  73.3277206 159.0984955 -10.0422564  71.9314804 158.4564514 -11.0739927
  72.0731430 160.7355042  -8.5057936  73.1335220 160.4949188  -8.4294968
  71.9692001 161.7159119  -8.9706392  71.5851135 160.7931976  -7.0741282
  72.0595093 160.0644226  -6.4169021  71.9509888 161.7662048  -6.7462726
  70.5058746 160.6444702  -7.0392852  69.7865448 160.4592743 -11.1768923
  69.9805222 161.6612854 -11.3338985  69.4416275 159.6864319 -12.1791677
  69.5076752 158.6914825 -12.0184402  69.1591568 160.1807556 -13.5464268
  69.9859848 160.8429260 -13.8033085  69.1807861 158.9989929 -14.5542927
  68.7404022 158.1455536 -14.0387411  68.5057907 159.2114563 -15.3833561
  70.5310364 158.6727142 -15.1638489  70.3553467 157.8298798 -15.8323298
  70.7733078 159.5057220 -15.8237848  71.6512146 158.5031281 -14.1636190
  72.5161209 159.3467712 -13.9682655  71.7354126 157.4304199 -13.4658451
  72.4901886 157.3883057 -12.7960320  71.1269684 156.6714783 -13.7377090
  67.7965088 160.9642639 -13.6062326  67.5152435 161.7136383 -14.5567827
  66.9671707 160.7599487 -12.5675325  67.3824158 160.1991425 -11.8373423
  65.6554031 161.3888855 -12.2847586  65.4974213 162.1167297 -13.0806141
  64.4245148 160.5187073 -12.5861483  63.5632896 161.1690521 -12.4330826
  64.4615326 160.2202148 -13.6338301  64.4056396 159.2108307 -11.7269335
  65.2574615 158.6028900 -12.0317316  64.5041275 159.5524902 -10.6965599
  63.0511703 158.5249634 -11.9109411  62.8625603 157.8526154 -11.0739899
  62.2086525 159.2162323 -11.8906403  62.9138985 157.6983185 -13.2240696
  62.6260948 158.2868652 -14.0952120  63.8475533 157.1469421 -13.3353233
  61.7703819 156.6820679 -13.0908384  60.8811188 157.1601562 -13.1181135
  61.8117371 156.0472717 -13.8753262  61.8406448 156.0784302 -12.2841291
  65.5711212 162.3013763 -11.0422201  66.4525223 163.1698914 -10.9344120
  64.5586319 162.1566925 -10.2316771  63.9889412 161.3494568 -10.4413013
  64.1506577 162.9859772  -9.0814867  64.0862045 163.9863434  -9.5095072
  62.8160095 162.5279846  -8.4961901  62.4446640 161.7207489  -9.1275148
  63.0100594 162.0998383  -7.5127592  61.6921539 163.5800018  -8.4666023
  61.9601784 164.7274933  -8.3307667  60.5152016 163.2673950  -8.6436892
  65.1434250 163.1142426  -7.8955703  64.9305725 164.0373383  -7.0608163
  66.1662521 162.2548523  -7.7202539  66.3192978 161.5975800  -8.4716969
  67.0802231 162.2648468  -6.5775261  67.7399979 161.4015503  -6.6641293
  68.0470810 163.4592590  -6.4966025  67.4856110 164.3935089  -6.5027533
  68.5828247 163.4498749  -5.5473971  68.9672546 163.3436279  -7.7726293
  69.5389328 162.4158478  -7.7501984  68.3894043 163.3140717  -8.6963863
  70.0353470 164.3885651  -7.9675508  70.6953049 164.4272766  -7.1009159
  70.6903534 164.0088348  -8.7516956  69.4219284 165.7073975  -8.3784246
  69.4397049 165.8473969  -9.3785172  68.9569473 166.5783844  -7.5817542
  69.1445923 166.6219482  -6.2620087  69.6725464 165.9506836  -5.7227831
  68.7054520 167.3742828  -5.7508683  68.2240143 167.5619812  -8.0794506
  67.9870529 167.5681763  -9.0612440  67.9569855 168.3440857  -7.4988446
  66.4534760 162.1088257  -5.1160707  67.1900635 161.7990570  -4.1717629
  65.1704254 162.4100189  -4.8609571  64.7582626 162.8910217  -5.6476297
  64.4906311 162.2350311  -3.5773375  65.1761017 162.6553650  -2.8414292
  63.1994934 163.0919037  -3.4373744  62.6026726 162.7741699  -2.5824091
  63.4407959 164.5782623  -3.3742704  63.7700119 164.9417725  -4.3477058
  62.4065094 164.9189911  -3.3266938  64.0193863 164.8503723  -2.4915016
  62.3827438 162.8829346  -4.5722651  62.0371399 161.9920349  -4.6640873
  64.2504730 160.7528381  -3.2016001  63.4469490 160.0231476  -3.7737937
  64.8801727 160.2937469  -2.1057067  65.5166397 160.9579468  -1.6887671
  64.4428711 159.0928040  -1.3669746  63.6813354 158.5121307  -1.8875322
  65.7149582 158.1979828  -1.3169943  65.3941727 157.2106171  -0.9848654
  66.1597977 158.0810852  -2.3052013  66.6666870 158.5680542  -0.2179857
  67.8135223 159.4093475  -0.5038110  67.8077850 159.8076324  -1.5076702
  68.8082352 159.6104126   0.4220222  69.7185974 160.0889282   0.0923735
  68.7208557 159.0287170   1.7389367  69.5392609 159.0815430   2.4416561
  67.5697250 158.2478180   2.0506277  67.5886841 157.6479797   2.9485452
  66.6101379 157.9751129   1.0714972  65.8504639 157.2659302   1.3653759
  63.7517014 159.5370483  -0.0963024  63.4855003 160.7120819   0.1236410
  63.3128891 158.5607910   0.7308482  63.5176315 157.6217041   0.4205056
  62.8216324 158.8527527   2.0624819  63.0318298 159.8890839   2.3269279
  61.2866516 158.6734772   2.0950251  61.1040497 157.7485962   1.5478864
  60.8025703 158.5068054   3.0573087  60.8382759 159.5110321   1.5606636
  63.6075554 158.1132050   3.2000601  64.1406708 157.0479126   3.0922856
  63.4297638 158.7490234   4.3847995  62.9792023 159.6438293   4.5129099
  63.8462410 158.1419525   5.6890965  64.3081970 157.1996002   5.3947105
  64.9616852 159.0209503   6.3761430  64.5371628 160.0168152   6.5031500
  65.3017883 158.3006897   7.7539496  65.2137985 157.2145538   7.7284217
  66.3091965 158.5502014   8.0870895  64.6134109 158.6596832   8.5190344
  66.2063293 159.0753021   5.4712701  66.0298386 159.8426666   4.7175527
  67.0846100 159.4859161   5.9693785  66.4389648 158.0985107   5.0471659
  62.6085167 158.0570984   6.5664530  61.9979095 159.0840454   6.8313546
  62.1942101 156.8471985   7.0393033  62.7216568 156.0518188   6.7087555
  61.0528946 156.7056732   7.9823337  60.2791634 157.4558716   7.8190846
  60.3974037 155.3155212   7.8422594  61.1076851 154.5527649   8.1613512
  59.5837822 155.2949982   8.5673122  59.8851051 154.8594971   6.4254956
  60.6014671 155.0365601   5.6232681  59.4707642 153.3578339   6.4351549
  58.7717400 153.0246887   7.2022786  59.0964088 153.0529327   5.4579148
  60.3311272 152.6997375   6.5568299  58.6885834 155.6571655   5.9767256
  59.0057755 156.5834656   5.4976954  58.0957489 155.1149292   5.2401023
  57.9702988 155.7530060   6.7909675  61.4067726 156.9710999   9.4757462
  62.5367889 156.6825714   9.8787813  60.4866867 157.4766235  10.2602978
  59.5563240 157.6974640   9.9351034  60.6323700 157.6118774  11.6943865
  61.6836891 157.7171631  11.9622402  59.8750114 158.8054504  12.2356081
  58.7933846 158.6916046  12.1632957  60.2093697 158.8337555  13.2726736
  60.2001762 159.7239685  11.7470446  60.1971245 156.2879639  12.3069983
  59.0222893 156.0266113  12.6181259  61.1841965 155.3887939  12.3285494
  62.1458549 155.6455078  12.1570568  60.9376183 154.0355072  12.9090519
  60.1124039 153.6603088  12.3037853  62.1246338 153.1330872  12.6526966
  62.9846573 153.5759583  13.1550150  61.9508171 152.1948547  13.1795778
  62.3564262 152.7896118  11.2001305  61.4143639 151.9480896  10.4677343
  60.5729752 151.5695343  11.0291262  61.4758720 151.6789246   9.0855932
  60.7253075 151.1426392   8.5239449  62.5575294 152.2186127   8.4092312
  62.7119141 152.0122986   7.0381522  62.6144791 151.0806122   6.8282456
  63.5187836 152.9784546   9.0564146  64.3585739 153.3490143   8.4873495
  63.4364319 153.2935486  10.4634752  64.1610184 153.9383698  10.9384270
  60.5211067 154.0458374  14.3850298  61.4096756 154.1251068  15.2665005
  59.2235527 154.0194244  14.7217960  58.5489273 153.9759827  13.9714003
  58.6219864 154.0919037  16.0763359  59.1540222 154.8546906  16.6448364
  57.1444206 154.3688507  15.9530792  56.6027718 154.2179871  16.8868656
  56.9868584 155.3828430  15.5855227  56.6488914 153.4507751  14.9235792
  55.7230797 153.2107086  15.0062675  58.8530807 152.7528229  16.8372688
  58.9768829 152.7512054  18.0620804  59.0749969 151.6307220  16.1180210
  59.0013847 151.8004913  15.1251163  59.6640739 150.3409119  16.5686150
  60.2983131 150.5111694  17.4385910  58.4947128 149.5165710  17.1119690
  58.0779686 150.0165710  17.9862785  57.7380295 149.3539429  16.3444538
  58.9497871 148.1347656  17.4141121  59.7734375 147.4382935  16.7542839
  58.5222702 147.5334320  18.4647694  58.8630447 146.6031036  18.6608868
  57.7169380 147.9581909  18.9019470  60.6053963 149.8011932  15.4474115
  60.1134529 149.1981049  14.4882193  61.9002800 149.9878998  15.5982389
  62.2230530 150.2099609  16.5291557  62.8434677 149.6649933  14.5518179
  62.4464531 149.8824158  13.5602493  64.0454483 150.6409149  14.7399502
  63.6886902 151.6673126  14.8256884  64.8102570 150.2695770  16.0551472
  65.1180496 149.2243347  16.0261612  65.7246170 150.8515015  16.1709690
  64.1773834 150.4188080  16.9299622  65.0616150 150.5658264  13.5809364
  64.6557770 150.9598694  12.6492062  65.8280640 151.2779846  13.8866615
  65.5125809 149.5917816  13.3912506  63.1531601 148.1491699  14.4499083
  63.7777786 147.7491150  13.5173292  62.6980057 147.3438263  15.4439077
  62.0631828 147.7767792  16.0993843  62.8143578 145.8979950  15.4834585
  63.7386246 145.6572876  14.9582033  63.0028496 145.4927063  16.9445190
  63.7784576 146.1493378  17.3386688  62.1167679 145.6441193  17.5609913
  63.4867706 144.0398102  17.1027908  62.7128067 143.4740906  16.5841179
  64.5147552 143.9512482  16.7513523  63.5751305 143.6323090  18.6030216
  64.3175507 144.2865448  19.0600510  62.5800781 143.8573608  18.9868565
  63.8362007 142.1567383  18.8206959  64.7804794 141.8910522  19.0611858
  62.9723091 141.1578369  18.7137413  61.6960831 141.3273163  18.4894428
  61.2431908 142.2295837  18.5195427  61.0597420 140.5600739  18.3266201
  63.3606796 139.9184418  19.0303516  64.3012772 139.7097778  19.3333931
  62.6883926 139.1650696  19.0539646  61.6980209 145.1613159  14.6877842
  61.9478493 144.2181244  13.9471521  60.4368668 145.6090546  14.7528820
  60.2276421 146.2963104  15.4628191  59.3927155 145.3088226  13.7921391
  59.5616188 144.2855377  13.4567575  58.0026360 145.3081512  14.4597988
  57.9823761 146.2587891  14.9926701  57.2156296 145.3076782  13.7056618
  57.7669678 144.1949158  15.4856968  58.6583748 144.1755676  16.1126919
  56.8829041 144.2697754  16.1188831  57.6715355 142.8301086  14.7670317
  56.8012276 142.5777435  13.8658562  58.5232506 141.9222717  15.0237465
  59.3774223 146.1114807  12.4957952  58.7848091 145.7232361  11.5172806
  60.1194763 147.2449799  12.5021467  60.5783081 147.4110718  13.3864479
  60.1933784 148.3266754  11.5204849  60.8154335 149.1309052  11.9133759
  60.7642593 147.8035736  10.2164087  60.0314369 147.2565155   9.6232824
  61.0530090 148.6063995   9.5380259  61.9619064 146.8690033  10.3603344
  62.5308685 147.1282654  11.2531767  61.5675583 145.8593292  10.4749403
  62.8880043 146.9774475   9.1047983  63.5893784 146.1430969   9.1123400
  62.3021812 146.8947449   8.1893330  63.5853271 148.2676849   9.1028538
  63.2094421 148.9199982   9.7761297  64.6410828 148.5436096   8.2983208
  65.1892014 147.7077332   7.4854136  64.9444962 146.7340240   7.5953908
  65.8555603 147.9864349   6.7794471  65.2328949 149.7172546   8.3156996
  64.9555817 150.4895325   8.9045858  66.1063995 149.7110596   7.8087001
  58.8447151 149.0644989  11.2587624  58.3819618 149.2894135  10.1165018
  58.1108093 149.2755432  12.2728510  58.4758224 148.9787292  13.1665888
  56.9500008 150.1460876  12.3209839  56.3131752 149.8195648  11.4988327
  56.0825729 149.9841919  13.6417274  56.6360970 150.2915039  14.5290079
  55.2571564 150.6627960  13.4265785  55.5824318 148.5610657  13.9169159
  55.2797165 148.0894928  12.9819927  56.3684616 147.9336853  14.3372087
  54.4628639 148.5460815  14.9379368  54.7124138 148.8752899  16.1446114
  53.3287582 148.1402588  14.5018883  57.3775864 151.6000671  12.1182146
  58.3341331 152.0887146  12.7630539  56.5919495 152.3709717  11.2783661
  55.8211250 151.9505920  10.7791624  56.6449738 153.8722382  11.2963934
  56.8771896 154.3097382  12.2673569  57.7980995 154.2823181  10.3875380
  57.6544304 153.8912506   9.3803062  57.8766098 155.3679199  10.3292913
  58.7456360 153.9472351  10.8094234  55.3526878 154.5547485  10.8029976
  54.6300316 153.9757996  10.0117025  55.0047340 155.7001343  11.3359346
  55.5796471 156.1299896  12.0464191  53.7877808 156.3896790  10.9056444
  53.2157707 155.7598877  10.2242727  52.9365005 156.7337646  12.1523037
  53.5930176 157.3114624  12.8029613  51.9826698 157.2265167  11.9638739
  52.5638351 155.5074005  12.9870968  51.6381836 154.4799500  12.5516768
  51.6445656 153.5418091  13.5302076  51.1023560 152.6117096  13.4446545
  52.3058929 153.9643860  14.5693636  52.4454117 153.3936462  15.3908854
  52.8639565 155.1792603  14.2635708  53.4022713 155.8216553  14.9447145
  54.0408401 157.6370087  10.0152721  53.1835556 158.0385895   9.1979351
  55.2104492 158.3024750  10.1620560  55.7548943 158.1198120  10.9929123
  55.6705208 159.4631958   9.3839731  55.1067924 159.5057373   8.4520388
  55.4469223 160.7093048  10.2996197  56.1263046 160.6003723  11.1450052
  55.7234726 161.6680298   9.8609037  54.0238571 161.0067444  10.7941446
  53.2840919 162.0627441  10.1343441  53.6285820 162.5692139   9.2448406
  52.0205917 162.3818359  10.6753635  51.4643326 163.1871643  10.2188120
  51.5605965 161.8007507  11.8765316  50.5865898 161.9927826  12.3017788
  52.3278160 160.7576904  12.5061607  51.9363480 160.2650299  13.3839121
  53.5722122 160.4093628  11.9829102  54.2338715 159.7293091  12.4987936
  57.1513519 159.4224548   8.9814730  57.8584518 158.4471741   9.2397146
  57.6812057 160.4862671   8.3673038  57.0480118 161.2609253   8.2292595
  59.0734673 160.4988251   7.9867740  59.6990623 160.4940643   8.8793592
  59.3637848 159.6571503   7.3579564  59.4525490 161.7870026   7.2762718
  58.7054253 162.7645721   7.3045969  60.6123352 161.7510376   6.7556911
  61.0051880 160.8210449   6.7259374  61.3288918 162.8643494   6.0563951
  60.4837570 163.5339203   5.8966155  62.3387680 163.5361023   6.9823155
  62.9012871 162.7448883   7.4779501  63.3448830 164.4821777   6.2873363
  62.8791580 165.3698578   5.8592901  64.1412811 164.7337341   6.9877505
  63.7947006 163.9751129   5.4337277  61.6371651 164.3208160   7.9149489
  62.0389404 164.2023468   8.7787447  61.8505249 162.4130402   4.6344161
  62.5331001 161.4109802   4.4624529  61.5646591 163.1936035   3.5758874
  60.9757805 163.9887543   3.7785287  62.1831398 162.9647980   2.2067361
  62.3184357 161.8951721   2.0464003  61.3829803 163.5156708   0.9903731
  61.8980904 163.3597565   0.0425045  59.9984245 162.9002533   0.8223534
  59.3405075 163.4074860   1.5280237  59.6254082 162.9853821  -0.1982902
  60.0351982 161.8293915   1.0223649  61.2882080 164.9114685   1.1663481
  62.1681404 165.2922516   1.1180241  63.5866280 163.5483551   2.2106347
  63.8006477 164.7036438   2.5107443  64.6068420 162.7783966   1.7879734
  64.3952942 161.8026276   1.6355994  65.9764481 163.1648102   1.5843062
  66.1187592 164.1229858   2.0840511  66.9260483 162.1418610   2.2262208
  66.8322601 161.2144928   1.6611736  67.9761581 162.4012909   2.0917926
  66.6430130 162.0021057   3.2695136  66.2108841 163.4636230   0.0625712
  65.9873734 162.5284271  -0.7162820  66.6838684 164.6758881  -0.3406024
  66.9149704 165.4325104   0.2872538  67.1807404 164.8787079  -1.7390907
  66.7344894 164.0799561  -2.3315001  66.7194290 166.2739716  -2.3205016
  65.6442795 166.2600861  -2.4992714  66.8667679 167.0501404  -1.5695444
  67.4083939 166.7044525  -3.6628454  68.4714890 166.7783203  -3.4337702
  67.2449112 165.9372253  -4.4196477  66.9182816 168.0285034  -4.2388420
  65.7579575 168.4511108  -3.9761343  67.7118149 168.5373993  -5.0445132
  68.7100983 164.6889038  -1.6777632  69.3432922 165.0721436  -0.7255182
  69.2420120 163.9805450  -2.6820080  68.5781326 163.4913025  -3.2651033
  70.7134171 163.7599030  -2.8067472  71.1682281 163.8233337  -1.8181984
  71.1461182 162.4216461  -3.4124691  70.5613556 162.3581848  -4.3301435
  72.6889877 162.4578400  -3.7727618  73.2879562 162.5367737  -2.8655105
  72.9811783 161.5464935  -4.2944670  72.8946075 163.2482758  -4.4945812
  70.8528595 161.2506866  -2.5215631  71.4936523 161.2573700  -1.6398382
  69.8153381 161.2760468  -2.1883895  71.0621033 159.8361206  -3.1433847
  72.0818558 159.7021942  -3.5043337  70.9200211 159.0718689  -2.3792894
  70.3224564 159.7422180  -3.9385042  71.3209152 165.0121307  -3.4654641
  71.1085052 165.1848602  -4.7115607  72.1399078 165.8133392  -2.7132537
  72.2951813 165.7258301  -1.7191015  72.8418961 166.9991608  -3.2629406
  72.2924042 167.2812958  -4.1610265  72.8047791 168.3020020  -2.3840761
  73.0326920 169.1627350  -3.0127831  71.7751694 168.4197235  -2.0462089
  73.6750031 168.3003540  -1.1342710  74.8774567 169.0566101  -1.0260495
  75.1682892 169.7253723  -1.8226583  75.6733093 169.0025330   0.1506613
  76.5594482 169.6007538   0.3033115  75.2312317 168.1846008   1.1859981
  75.9644394 168.0992279   2.3031151  76.4375000 168.9100647   2.5040030
  74.0140839 167.4946442   1.0992627  73.6958771 166.8444366   1.9007409
  73.1894073 167.5720978  -0.0241977  72.2355728 167.0660858  -0.0479893
  74.2467041 166.7524414  -3.8213723  74.7706146 167.6455078  -4.5180984
  74.9113083 165.6186676  -3.4641721  74.4776001 165.1405792  -2.6873724
  76.2920074 165.2250977  -3.8899798  76.3424988 165.6268768  -4.9019694
  77.3814774 165.9875946  -3.0650930  77.3435593 165.8900757  -1.9801244
  78.3214493 165.5550385  -3.4078004  77.5156555 167.0441895  -3.2968338
  76.5329437 163.7175903  -4.0887904  76.1192703 162.8913422  -3.2604725
  77.2723923 163.2829590  -5.1302266  77.8342133 163.9559937  -5.6317124
  77.3525009 161.8974152  -5.5721941  77.1807251 161.2947998  -4.6803160
  76.1385422 161.6623993  -6.4740381  75.2848892 162.0587006  -5.9242129
  76.2500687 162.2503510  -7.3850656  75.8571930 160.2742615  -6.9298267
  74.8642883 159.4210663  -6.3145809  74.2706146 159.8227997  -5.5067611
  74.7308731 158.1139069  -6.8460975  73.9396133 157.4556885  -6.5188828
  75.5021896 157.6277008  -7.9267359  75.2176437 156.3818512  -8.4917507
  74.8419647 155.7939758  -7.8323154  76.3785629 158.5158386  -8.5044241
  76.9279633 158.1746368  -9.3693771  76.5641708 159.8139648  -8.0443916
  77.1782684 160.4494476  -8.6652260  78.7156067 161.4760742  -6.1980109
  79.3028183 162.2924957  -6.9222012  79.2221909 160.3009644  -5.8781219
  78.5515747 159.7776947  -5.3335304  80.4426498 159.6183472  -6.4069791
  80.6300201 159.8152618  -7.4625440  81.5742569 160.1837158  -5.5250249
  81.3891373 161.1935425  -5.1588473  81.6057281 159.5521240  -4.6372142
  82.9807434 160.1685638  -6.1856346  83.0888596 159.2189789  -6.7097673
  83.1058197 160.9714508  -6.9121547  84.0483475 160.1807251  -5.1449790
  83.6822968 160.7904205  -4.3189249  84.0904922 159.1834259  -4.7070966
  85.2532272 160.8192749  -5.6603947  85.1373901 161.7502441  -6.0345225
  86.4698563 160.3374329  -5.7929740  86.7982330 159.1140442  -5.5167766
  86.1019363 158.5129700  -5.0996542  87.6665649 158.7512512  -5.8835030
  87.4634018 161.1169739  -6.1589198  87.3048859 162.0968018  -6.3457670
  88.4240570 160.8109589  -6.0988717  80.4660950 158.0434570  -6.2809176
  79.9398346 157.5076141  -5.2994609  81.0123520 157.3301239  -7.2873502
  81.2602081 157.8841095  -8.0946751  81.0131073 155.8556824  -7.3506231
  80.5862427 155.3088379  -6.5098853  80.2525787 155.4188995  -8.6311827
  80.6153793 156.0121765  -9.4705296  80.4641495 154.3820496  -8.8925095
  78.7160110 155.6223602  -8.4916992  78.4074020 155.1080627  -7.5815516
  78.5195084 156.6900940  -8.3946466  78.0503845 155.0130920  -9.7474976
  77.6338348 153.8412933  -9.7220621  77.7842178 155.8085632 -10.6958027
  82.4555740 155.3737793  -7.4708877  83.2542725 155.9181519  -8.2443581
  82.6764221 154.2475586  -6.8038545  81.8836441 153.8146973  -6.3519149
  83.9784775 153.5711517  -6.6356421  84.6095581 153.9414215  -7.4435749
  84.7471237 154.0676117  -5.4151068  84.2278442 153.6084442  -4.5739064
  85.8114243 153.8325348  -5.4252524  84.8411407 155.6322021  -5.2895184
  85.3227005 155.9740143  -6.2056904  83.8436356 156.0715637  -5.2957640
  85.6877823 156.1918640  -4.1060362  86.5268707 155.4204407  -3.5230014
  85.6659088 157.4230042  -3.8629053  83.9505234 152.0291595  -6.9284825
  82.9897232 151.3242493  -6.5808840  85.0415268 151.4471741  -7.4122901
  85.8361053 151.9902802  -7.7185640  85.1093674 149.9886322  -7.5894489
  84.3551025 149.5125732  -6.9629035  84.9861145 149.6817017  -9.1070347
  84.0210876 150.0977631  -9.3963852  85.7530212 150.1707458  -9.7076931
  85.1311035 148.2057495  -9.4394550  86.0982361 147.7283173  -9.2818680
  84.4207382 147.6012726  -8.8754559  84.7765884 147.9078217 -10.9222183
  85.5777054 147.4013977 -11.7267790  83.5453339 148.2444305 -11.3746471
  83.3938522 148.1692963 -12.3703938  82.9459457 148.7722778 -10.7564135
  86.4455719 149.4900208  -6.9540339  87.5867157 149.7706299  -7.4583879
  86.3265762 148.7398834  -5.8383470  85.4056244 148.4222717  -5.5717359
  87.4639053 148.1949768  -5.1188331  88.2699738 147.8925781  -5.7873492
  88.0385361 149.1814728  -4.0603776  87.3586502 149.2436829  -3.2106795
  88.9724884 148.7490845  -3.7013779  88.4514847 150.6296387  -4.4807401
  89.1384277 150.6203918  -5.3269811  87.5167160 151.1502228  -4.6888361
  89.1345444 151.5082092  -3.4795339  88.7890015 151.5185699  -2.2778220
  90.0435486 152.2121735  -3.9819968  87.2066879 146.8038025  -4.4352336
  86.0558395 146.5422516  -4.1699381  88.2391281 145.9408417  -4.2380991
  89.1709061 146.3102722  -4.3622255  87.9975891 144.5812683  -3.6718626
  88.9336319 144.0353851  -3.7899435  87.5789032 144.7269287  -2.1465547
  86.5107117 144.9437866  -2.1416159  87.7399597 143.7371521  -1.7193174
  88.3934326 145.7274170  -1.3607502  89.7144165 145.3701324  -0.9512910
  90.0824203 144.3782349  -1.1684135  90.4770660 146.1994781  -0.1576739
  91.4458618 145.8966370   0.2112787  90.0221786 147.5406799   0.0059132
  90.9068680 148.3876801   0.5909861  91.7613983 147.9951782   0.7841461
  88.7957535 147.9732666  -0.4388355  88.4563980 148.9719391  -0.2066638
  87.9611359 147.0467834  -1.0897770  86.9989548 147.4099884  -1.4194638
  86.9442139 143.7132263  -4.4604616  86.2483978 142.8595581  -3.8734069
  86.7231140 144.0184326  -5.7842474  87.3383636 144.7214661  -6.1680775
  85.7261963 143.3788147  -6.6417747  85.9810791 143.7144012  -7.6470180
  85.8228149 142.2935944  -6.6089673  84.3096085 143.8308563  -6.4264312
  83.4105606 143.2142639  -7.0413074  84.0765381 144.8912048  -5.6400080
  84.8835068 145.3918304  -5.2960973  82.6965942 145.4253998  -5.3394032
  82.0004425 144.6425934  -5.6405725  82.4481735 145.5989838  -3.8050690
  81.3638229 145.5777435  -3.6962774  83.0919876 144.4603882  -3.0323536
  84.1730652 144.5948029  -2.9962308  82.7794571 144.4632874  -1.9881239
  82.8350143 143.5237427  -3.5270808  82.8724670 146.9660034  -3.2803042
  83.9141388 147.1573334  -3.5380027  82.3274155 147.7368774  -3.8250880
  82.7392883 147.2689056  -1.7979858  83.4003067 146.6167755  -1.2271447
  83.0147629 148.2945709  -1.5525339  81.7091675 147.1373138  -1.4668751
  82.4490509 146.6983948  -6.1698580  83.3142242 147.5190582  -6.3355241
  81.1802750 146.8505554  -6.6617203  80.5283890 146.1075287  -6.4542065
  80.6552505 148.2080383  -6.9271603  81.4424286 148.8028259  -7.3905106
  79.5505981 148.0729523  -7.9963140  78.7033310 147.5496521  -7.5531588
  79.1406097 149.0536804  -8.2375755  79.8963394 147.3493195  -9.3385801
  80.8028717 147.6851044  -9.8421125  80.0837326 146.2929840  -9.1458406
  78.7614822 147.4957581 -10.3658190  78.0635986 148.5378418 -10.4074078
  78.5305939 146.5497131 -11.1836452  80.1432037 148.9050903  -5.6203508
  79.5121613 148.2137451  -4.7934542  80.4452820 150.1672821  -5.3681688
  81.1508179 150.5928650  -5.9522924  79.9492950 150.9068909  -4.1605015
  78.9883270 150.4452972  -3.9333999  80.8480988 150.5308838  -3.0045099
  80.8002777 149.4751892  -2.7374279  82.3342590 150.8587036  -3.2985888
  82.4395599 151.8491364  -3.7414038  82.8805847 150.8820648  -2.3556764
  82.7957001 150.1835480  -4.0192356  80.4920120 151.2454681  -1.8446009
  81.0122757 150.9874878  -1.0801615  79.7677383 152.4339294  -4.3776183
  80.1326447 152.9219208  -5.4647489  79.1680145 153.1845551  -3.4637711
  78.8449478 152.7689819  -2.6017780  78.7924271 154.6454010  -3.7212744
  79.6546631 155.0490265  -4.2520466  77.4939117 154.6807861  -4.6642752
  77.6778641 154.0989838  -5.5674772  76.1881027 154.1812286  -3.9770522
  75.8210220 154.8558807  -3.2036209  75.3894348 154.1748352  -4.7188034
  76.3997726 153.2147369  -3.5196824  77.0624237 156.0104675  -5.1507792
  77.8293381 156.3534393  -5.8452749  76.0901718 155.9542694  -5.6403375
  76.7751999 156.7000122  -4.3569732  78.7258530 155.5278931  -2.5222991
  78.3441620 155.0645294  -1.4211648  79.1829910 156.7920074  -2.6909134
  79.6907501 156.9902344  -3.5411961  79.2638397 157.7759552  -1.6052787
  78.9876404 157.3321686  -0.6487930  80.7108002 158.1638489  -1.5836656
  81.0351028 158.5370331  -2.5550828  80.8668365 159.0184631  -0.9253584
  81.6319275 156.9582520  -1.1708297  81.2867050 156.4481049  -0.2715683
  81.6415787 156.1410828  -1.8920989  83.0597916 157.5273743  -0.8429481
  83.2862778 158.4224548  -1.4222910  83.0005493 157.9641418   0.1539593
  84.3045044 156.5962677  -0.9389588  83.9636230 155.6568604  -0.5037343
  84.6525040 156.4873810  -1.9661583  85.4946136 157.2057190  -0.3470898
  85.2923126 157.4379883   0.6147955  86.1097260 156.4122925  -0.2365759
  85.9308319 157.9169312  -0.9162959  78.2861557 158.9796906  -1.9094929
  78.3691711 159.6625519  -2.9282696  77.3632965 159.2545624  -0.9905891
  77.2984695 158.7214966  -0.1351641  76.2811127 160.2144775  -1.2152293
  76.6352463 160.7932739  -2.0682869  74.9116135 159.6775970  -1.6225461
  74.3493423 160.5589905  -1.9309117  74.9869232 158.7974701  -2.8717237
  75.1924210 157.7538910  -2.6333697  74.0046997 158.7055664  -3.3353021
  75.7532578 159.1573181  -3.5582678  74.0399170 158.9180908  -0.4886761
  73.7725143 159.6387634   0.2841220  73.0981293 158.6226959  -0.9511415
  74.5593109 158.0086975  -0.1864512  76.1469040 161.1236115  -0.0093293
  76.1450043 160.6715088   1.1151212  75.8629837 162.4012909  -0.3295513
  75.8747711 162.6558990  -1.3068637  75.3841400 163.3199768   0.7234157
  75.3411255 162.7941437   1.6772289  76.3988953 164.5313110   0.8047926
  76.6288376 164.8666840  -0.2065170  75.8120193 165.2844086   1.3306408
  77.6179810 164.1608734   1.6078157  77.4238892 164.3111877   2.6698136
  77.7982101 163.0988922   1.4410735  78.9144135 164.8780823   1.2777073
  79.7272110 164.4590759   1.8709056  79.2605362 164.6139221   0.2784480
  78.8972168 166.3720703   1.4725723  78.0312881 166.7834167   0.9538535
  78.7160950 166.4640503   2.5434761  80.1464539 166.9934692   0.9825721
  80.0885239 167.0397034  -0.0247047  80.2286682 167.9472351   1.3045591
  81.0215454 166.5834808   1.2762215  73.9958115 163.7404175   0.3797028
  73.6661148 164.0958099  -0.7739276  73.1212006 163.8606110   1.4070601
  73.4728851 163.5457001   2.2999463  71.7320709 164.2625275   1.3443786
  71.5422516 164.7208710   0.3738125  70.8855362 162.9611206   1.2898763
  70.8491821 162.4517670   2.2528617  69.8659515 163.2398224   1.0236669
  71.3226700 162.2305145   0.6092469  71.2526703 165.2146149   2.3855619
  71.9886627 165.4750519   3.3177454  70.0401382 165.7968140   2.2138429
  69.7032623 165.6587830   1.2717404  69.5266647 166.8867188   3.0364931
  69.9163742 166.7904663   4.0498843  70.0071945 168.2687836   2.4705379
  71.0810547 168.2844696   2.2842960  69.3645477 168.6814270   1.1836061
  68.3158493 168.9702148   1.2538257  69.9125748 169.4813080   0.6856720
  69.3907547 167.8404541   0.4906380  69.7334366 169.4073944   3.5286934
  68.7150574 169.7407074   3.3289306  69.7392120 168.9819031   4.5322080
  70.6647720 170.6054535   3.4604812  70.6911087 171.0525055   2.4667220
  70.2419510 171.3789368   4.1016202  71.6157761 170.2164154   3.8242383
  68.0867844 166.7571564   3.0414081  67.3454590 166.4796753   2.0992999
  67.4704514 166.9723053   4.1995130  67.9980850 167.3294067   4.9832115
  66.0162201 166.7804413   4.3405447  65.7088089 165.8574371   3.8489332
  65.8898926 166.6513367   5.4154797  65.1656647 167.9002838   3.8392389
  65.2527618 169.0666046   4.3031006  64.3158340 167.6926575   2.8144553
  64.4118195 166.7815857   2.3892038  63.4250526 168.6645355   2.1334476
  63.8414612 169.6716003   2.1564519  63.3789024 168.2880859   0.6877314
  63.1654510 167.2200317   0.6453158  62.6543350 168.8464203   0.0949657
  64.6887741 168.4291534  -0.1612945  65.5630722 168.2693481   0.4697129
  64.6157837 167.7287903  -0.9933236  64.9844360 169.7744598  -0.8172337
  65.8622131 169.5885162  -1.4361348  64.1474991 170.0024719  -1.4772618
  65.1935577 170.9035645   0.1542943  64.3271179 171.2861786   0.5049928
  66.3075333 171.4580536   0.6450094  67.4990311 171.2302856   0.1296084
  67.6000900 170.6154175  -0.6652734  68.2465591 171.8773804   0.3359236
  66.2227783 172.4364624   1.5295854  65.3383636 172.7061310   1.9360254
  67.0858078 172.8862000   1.7997925  62.0893021 168.7920380   2.8338373
  61.6917763 169.9039154   3.2009981  61.4239044 167.6290588   3.0552309
  61.8601303 166.7423706   2.8464866  59.9127998 167.5231781   3.3566179
  59.6277733 168.5292511   3.6643295  59.1115723 167.1153259   2.1229405
  59.3213921 166.0591278   1.9540747  58.0461121 167.1721191   2.3458109
  59.3396873 167.9192810   0.8229780  59.0586853 168.9672241   0.9276855
  60.4022827 167.9616089   0.5837931  58.6293297 167.2662659  -0.3374735
  57.7310905 167.8457794  -0.8808373  58.9540634 166.0525055  -0.7199913
  58.5116768 165.8392944  -1.6025651  59.8087730 165.6186523  -0.4016615
  59.6635437 166.5594177   4.5102367  60.3668594 165.5592651   4.6129632
  58.5701752 166.7854004   5.2769079  58.0283661 167.5966187   5.0152445
  58.0029411 165.7911224   6.1819625  58.7561989 165.0753784   6.5112305
  57.4024200 166.5127869   7.4032655  56.7573814 167.3690643   7.2063169
  56.7634277 165.7915802   7.9128380  58.4819489 166.9555664   8.3807068
  59.0410309 166.0490875   8.6126804  59.1880379 167.6609497   7.9425592
  57.9875870 167.5116577   9.7140074  57.4093704 166.7389374  10.2206287
  58.7947578 167.7342072  10.4118977  57.1771889 168.7681274   9.6027555
  57.5141716 169.5371857   9.0414276  55.9351768 168.9310913  10.0547752
  55.2446594 167.9599915  10.5518961  55.6322861 167.0348053  10.6696281
  54.4911919 168.2445068  11.1613617  55.4293861 170.1239929  10.0942945
  56.0419350 170.9038544   9.9027319  54.5221786 170.4008789  10.4412889
  56.8860168 165.0134125   5.3448477  56.1382561 165.6423950   4.5325966
  56.4734001 163.8525391   5.8453398  56.9442978 163.3644867   6.5937815
  55.2679176 163.1946411   5.3757758  54.4993401 163.9358215   5.1566119
  55.5908661 162.4432373   4.0715971  54.6568565 162.0413971   3.6788523
  55.9548569 163.0801849   3.2654235  56.6549149 161.3192596   4.1792822
  56.3954353 160.1535034   4.9313426  55.3885384 159.9618530   5.2716827
  57.3887863 159.2250366   5.2498736  57.1626244 158.3012543   5.7616000
  58.6297379 159.3762817   4.7121687  59.3526573 158.5815277   4.8223739
  58.9028435 160.4229736   3.8094738  59.8745842 160.4768372   3.3412602
  57.9531898 161.4308319   3.6604323  58.2321930 162.3150482   3.1066093
  54.5445290 162.3324280   6.4679518  55.1962128 161.7913513   7.3541245
  53.1940880 162.0776062   6.2725878  52.7256279 162.6046143   5.5494614
  52.4848366 160.8941193   6.8204727  52.9452705 160.6761169   7.7841053
  50.9925690 161.1891785   6.8997869  50.8612709 162.2080994   7.2640190
  50.5377998 161.2223663   5.9097447  50.1586800 160.2247009   7.7724934
  50.3976326 159.2004547   7.4862590  50.4747238 160.4844818   8.7828035
  48.6373672 160.4504395   7.7838740  48.3031387 160.6540070   6.7665486
  48.1928825 159.5309296   8.1647387  48.0596733 161.6085815   8.6350002
  48.5431099 161.3992920   9.5892496  48.3396988 162.5877686   8.2465630
  46.5691643 161.5936127   8.7861719  46.2256165 160.7033539   9.1171179
  46.2328911 162.2774200   9.4490585  46.1301651 161.7900391   7.8980308
  52.6048584 159.6522369   5.9278083  52.5263214 159.8303986   4.6930523
  52.8568573 158.4278412   6.4519582  52.9153252 158.4120941   7.4601417
  52.7863121 157.0895538   5.8257008  53.2518311 157.2251587   4.8494811
  53.6666794 156.0845184   6.6117115  53.2980995 156.0882721   7.6374965
  53.5559807 154.6986084   5.9948988  54.0014420 154.6999359   5.0000806
  54.0647163 154.0658875   6.7221923  52.5000496 154.4390411   5.9191766
  55.1309853 156.5215607   6.6455212  55.2628250 157.5573578   6.9583192
  55.6795425 155.9691620   7.4084263  55.5867691 156.5316162   5.6554418
  51.3520737 156.5885010   5.6991167  50.6636887 156.2708740   6.6542039
  51.0632782 156.1143494   4.4734192  51.7381783 156.3578033   3.7625449
  49.8692055 155.4226837   4.0560932  49.1470604 155.5902863   4.8551650
  49.3658524 156.1271362   2.7940242  50.2688484 156.1078491   2.1838372
  48.6501122 155.4093933   2.3932078  48.7987442 157.5485382   2.7989895
  49.4989281 158.1463776   3.3824675  48.6205139 158.0240479   1.3991708
  47.8447266 157.4605713   0.8807701  48.3359299 159.0722198   1.3072129
  49.5435448 157.9667969   0.8222516  47.3813362 157.5843048   3.4459574
  47.6067162 157.4858551   4.5078535  46.8846550 158.5320435   3.2381041
  46.7642670 156.8317871   2.9549980  49.9330215 153.8751373   3.8962462
  49.1270561 153.1449738   4.4670172  51.0518532 153.5146179   3.3084133
  51.7367249 154.2194824   3.0755622  51.4202194 152.0857239   3.1812654
  51.2079239 151.5010986   4.0763874  50.5788994 151.4904022   2.0087688
  49.5228539 151.6890106   2.1915989  50.9659805 152.0638885   1.1665235
  50.7057190 150.0095215   1.6032673  51.7408333 149.6737518   1.6656977
  50.1768684 149.4321899   2.3616302  50.1845398 149.6017151   0.2264802
  49.3811531 150.3197632  -0.4180301  50.4943542 148.4673767  -0.2206069
  52.9618149 151.9988403   2.9618835  53.6468925 152.8663483   2.4633057
  53.5036507 150.8000793   3.3922904  52.9135017 150.0624695   3.7497165
  54.8796654 150.3672180   3.0554206  55.4127159 151.0977478   2.4469173
  55.8406448 150.1813660   4.2503576  55.4183884 149.3603516   4.8297896
  57.2397957 149.8286743   3.7374318  57.7464142 150.6527100   3.2350326
  57.8532143 149.6661530   4.6236639  57.2358818 148.9086151   3.1529894
  55.9472771 151.4367981   5.1613297  56.5224495 152.1519012   4.5732045
  54.9459038 151.8175201   5.3623261  56.6108856 151.2031555   6.5006166
  57.6184235 150.7872925   6.5053072  56.6982002 152.1365509   7.0567021
  55.9741058 150.5608063   7.1088963  54.7206459 149.1632233   2.1459379
  54.0765038 148.1861725   2.5931952  55.2539253 149.1336670   0.9228520
  55.7049599 149.9355469   0.5061160  55.3949013 147.9309540   0.1287861
  54.8684349 147.0439911   0.4812430  54.7015266 148.1543274  -1.2221807
  53.7046738 148.4535980  -0.8984156  55.2355461 148.9998932  -1.6556931
  54.5378456 146.9239044  -2.1372383  54.6175003 145.9630127  -1.6288577
  53.4954681 146.8738708  -2.4519598  55.4416962 146.9548035  -3.4185436
  55.3708725 147.9209595  -3.9181659  56.4632568 146.8815460  -3.0455196
  55.1335869 145.7552643  -4.2983713  55.3446617 144.8328552  -3.9452548
  54.7131615 145.7995758  -5.5587125  54.7795105 146.9091339  -6.2862453
  55.2265625 147.7236023  -5.8901649  54.6583099 146.7954102  -7.2824764
  54.2950020 144.6734314  -6.1341271  54.4535942 143.7487793  -5.7600179
  53.9266510 144.8423157  -7.0592742  56.8769836 147.6146088  -0.0697149
  57.6297874 148.5404205  -0.0263361  57.2447815 146.4222870  -0.4574709
  56.5094833 145.7542114  -0.6394466  58.6964226 146.0862579  -0.7085762
  59.2290192 147.0371704  -0.7233393  59.3355980 145.2674408   0.3944976
  58.9601517 144.2452545   0.4419747  60.8539124 145.1955414   0.3418833
  61.2769318 146.0778046   0.8222609  61.2421494 144.3109741   0.8467734
  61.1032333 145.1152954  -0.7161805  59.0490990 145.9475250   1.6103864
  58.2119408 145.6840210   1.9993986  58.7906151 145.3650818  -2.0255163
  57.9577103 144.5086212  -2.4201741  59.8328972 145.7466888  -2.7847567
  60.4332733 146.4718475  -2.4189789  60.2289238 145.0858154  -4.0910397
  59.4098473 144.5542297  -4.5754218  60.7863388 146.1243744  -5.0957217
  61.5350380 146.7037964  -4.5555153  61.3700447 145.5541382  -5.8183694
  59.6934128 146.8924408  -5.8063588  59.0619812 146.2385254  -6.4078407
  58.9815979 147.1854706  -5.0346351  60.0043411 148.2643127  -6.3950796
  60.3970909 149.2116699  -5.7522931  59.7291565 148.4691162  -7.6884680
  59.9057999 149.3767700  -8.0947609  59.2356339 147.8561859  -8.3215971
  61.2068405 143.9166260  -3.7647069  61.9067078 143.9504852  -2.7371523
  61.2916908 142.9721527  -4.6549268  60.7471809 143.1605225  -5.4844589
  61.9525986 141.6953430  -4.5538712  61.4321556 141.1394501  -3.7739775
  61.8225708 140.9429169  -5.8116622  62.2722206 141.4661713  -6.6555376
  62.3576775 139.9980927  -5.7164612  60.4409218 140.6746674  -6.1171594
  60.2617912 139.9408112  -6.7095828  63.4214897 141.8463135  -4.2365103
  64.0384216 141.0536957  -3.5689218  64.1193237 142.8189850  -4.8357787
  63.6532822 143.4434204  -5.4784126  65.5111237 143.1072235  -4.4845104
  66.1542130 142.2326050  -4.5824256  65.9682465 144.0821075  -5.5890965
  67.0516815 144.0273895  -5.6952133  65.7253036 143.6325073  -6.5518737
  65.4377594 145.4819489  -5.4742341  64.4899597 145.7393799  -4.7680802
  66.1025162 146.4130096  -6.0052786  65.7083740 143.6546478  -3.0120010
  66.8032684 143.7177429  -2.4515610  64.6177063 143.9216156  -2.3016019
  63.7281227 144.0084991  -2.7719123  64.5732956 144.0572510  -0.8146680
  63.6505928 143.5780029  -0.4874905  65.4008789 143.5008698  -0.3746116
  64.6071701 145.4576416  -0.2638343  64.7434464 145.6551666   0.9258974
  64.4797440 146.4809113  -1.1212109  64.5457764 146.3032379  -2.1132648
  64.2572708 147.9046021  -0.7024640  64.7123108 148.0027466   0.2831335
  64.9710312 148.9552917  -1.6228791  64.9624557 149.9370422  -1.1493740
  66.4673996 148.6056519  -1.8049390  66.5445023 147.7208557  -2.4368513
  66.8357391 149.5371704  -2.2346981  67.0232162 148.3710175  -0.8971317
  64.3011398 149.0278473  -3.0581305  65.0338898 149.0799103  -3.8634048
  63.8707848 148.0429535  -3.2394745  63.3249626 150.1382904  -3.1950979
  63.8668823 151.0646515  -3.0046344  62.7987137 150.1378784  -4.1496458
  62.4791412 150.0596313  -2.5120862  62.7780113 148.2190552  -0.5471159
  61.9911652 147.6400452  -1.3188597  62.4278946 149.1418457   0.3800785
  63.1368027 149.5596313   0.9657396  61.1029320 149.4470215   0.6800565
  60.5099945 148.6562347   0.2205061  60.8567924 149.5263214   2.1930690
  61.1356773 150.5264893   2.5247097  59.7715340 149.4505768   2.2607784
  61.3932838 148.3534241   3.0250845  61.2131805 147.4377441   2.4618862
  62.4786644 148.3153687   3.1178958  60.7780991 148.1612244   4.4618912
  61.3038826 148.7127380   5.4591937  59.7439842 147.3535461   4.5077748
  59.2903366 147.2288971   5.4015112  59.4408684 146.8143005   3.7093794
  60.6752319 150.6730957  -0.0821724  61.5333862 151.5874634  -0.4290500
  59.3805542 150.7642975  -0.3945673  58.7827110 149.9835510  -0.1640895
  58.7436943 151.9129028  -0.9745116  59.4572487 152.7229919  -1.1251602
  58.2555504 151.5116882  -2.3204021  57.6947060 150.5772552  -2.3003924
  57.5266457 152.2451782  -2.6650698  59.3511963 151.2554321  -3.3484120
  60.2694969 150.8341980  -2.9392798  58.9718628 150.4894409  -4.0247769
  59.7455482 152.4664459  -4.2007618  59.2120857 153.5571747  -4.0514369
  60.5538063 152.3123779  -5.2436128  60.7628288 153.1538239  -5.7616673
  60.8833466 151.3931885  -5.5016484  57.5549240 152.3050232  -0.0465738
  56.5317535 151.5666809   0.0838830  57.6336823 153.5247650   0.4832265
  58.4378242 154.1067657   0.2968435  56.5314789 154.0455475   1.2776228
  55.9669571 153.2940674   1.8296121  57.1931152 155.0174561   2.2436306
  57.5947571 155.8980255   1.7422317  56.5180130 155.2885742   3.0553191
  58.0869904 154.5687866   2.6769612  55.5937004 154.7805176   0.2851284
  56.0320549 155.6774292  -0.4672909  54.3012352 154.5496674   0.4488277
  54.0013123 153.8252563   1.0855243  53.2636490 155.5062714  -0.0118812
  53.5673981 156.0109711  -0.9290043  52.0224915 154.8545532  -0.4714799
  51.5101395 154.3452759   0.3447514  51.3113098 155.6503754  -0.6927884
  52.1438141 153.8828583  -1.6985297  53.0675926 153.9687347  -2.2706833
  52.2376137 152.8894043  -1.2599653  50.9386177 154.1558075  -2.6516461
  50.0578003 153.8028412  -2.1152859  50.8060875 155.2313995  -2.7684524
  50.8792725 153.5685120  -4.1017790  50.0745850 154.0932159  -4.6168046
  51.7992058 153.8238373  -4.6277361  50.6144485 152.1097260  -4.1742783
  49.7248688 151.8375397  -3.7810018  50.6066170 151.8803864  -5.1578641
  51.3373375 151.6385193  -3.6494060  53.0587769 156.6123657   1.0431573
  52.8626366 156.2510681   2.2484353  53.1659164 157.8767700   0.6696269
  53.3329544 158.0573578  -0.3099576  53.0265007 158.9789124   1.6149105
  52.6155052 158.5451202   2.5265069  54.4458313 159.4792786   1.9676336
  54.4248657 160.0475769   2.8975325  55.4002037 158.3196869   2.2620523
  55.7413940 157.8392334   1.3450689  56.3058853 158.7513123   2.6881254
  54.9521179 157.6244659   2.9719791  55.1208534 160.2933044   0.8622645
  54.6751823 161.2799377   0.7356586  56.1483765 160.4483643   1.1912894
  55.1293221 159.7058868  -0.0558666  52.1269836 160.1535645   1.1767174
  51.7932358 160.2650452  -0.0034241  51.7115860 161.0753021   2.1267490
  51.9295692 160.7019653   3.0395513  51.1620598 162.4358978   1.9162496
  51.1658669 162.5645294   0.8338728  49.7185822 162.5347900   2.4895682
  49.0818291 161.7777863   2.0317593  49.6439171 162.5160217   3.5768504
  49.0419044 163.9113617   2.1708441  49.4241295 164.6628571   2.8616862
  49.3436661 164.2247009   1.1714094  47.5246010 163.9523010   2.2216914
  46.8086548 163.0288849   1.8129433  46.9683304 165.0054321   2.8327372
  45.9604836 165.0022430   2.8986137  47.5530357 165.7187805   3.2442548
  52.1257515 163.5551453   2.4648254  52.4275932 163.5702820   3.6840699
  52.5589218 164.5315704   1.6188531  52.2252235 164.4412994   0.6698558
  53.5784492 165.5368652   1.9677906  54.3236122 165.0881653   2.6246753
  54.2667007 166.1141815   0.6857157  53.5704231 166.0401459  -0.1496370
  54.6969604 167.6101074   0.8649847  55.5483971 167.6473389   1.5445160
  54.9234200 168.0578461  -0.1026664  53.8804512 168.2491913   1.2011414
  55.4708061 165.2808228   0.2740226  55.8272743 165.5732117  -0.7136699
  56.2890091 165.5306549   0.9494653  55.3667030 163.7589111   0.1745313
  54.6613274 163.4208984  -0.5846049  56.2903442 163.2259064  -0.0510509
  55.0011940 163.3453369   1.1144581  52.9092674 166.6304474   2.8255739
  51.8555069 167.1925354   2.4682422  53.4765930 166.9088745   3.9738035
  54.3956451 166.5196075   4.1284389  52.9421997 167.8098450   4.9763494
  51.8616676 167.8598022   4.8419662  53.2609558 167.1401062   6.3056717
  54.3312912 166.9383698   6.2634726  53.0987091 167.8426514   7.1231093
  52.5308456 165.7872925   6.5956483  52.6446037 165.1143799   5.7457299
  53.0812378 165.0952911   7.8741360  53.0391273 165.7799225   8.7212505
  52.4701805 164.2323456   8.1387472  54.0819511 164.6814880   7.7498431
  51.0094719 166.1162872   6.6842308  50.5308952 166.1006470   5.7050347
  50.5030212 165.4435577   7.3763566  50.8998756 167.0850372   7.1716871
  53.4672241 169.2291718   4.9924493  54.6438904 169.4170227   4.7020383
  52.5854187 170.2405243   5.2398410  51.1313095 170.2141724   5.2752604
  50.9116745 169.6835175   6.2016878  50.6716537 169.6247711   4.4818954
  50.5745201 171.6489868   5.2610555  50.2289886 171.9198914   6.2587147
  49.7743149 171.6909943   4.5221314  51.8069878 172.4452820   4.8949447
  51.7518349 173.4725647   5.2551379  51.8904839 172.4856262   3.8088963
  53.0309181 171.6045532   5.2967076  53.8379021 171.8110504   4.5936794
  53.4306107 171.9287415   6.7106194  52.8646088 171.4992371   7.7085428
  54.2234116 172.9263916   6.8171186  54.5518494 173.2318878   5.9121842
  54.3602600 173.8596649   7.9639030  54.4310341 173.3211517   8.9089355
  55.6220016 174.7083130   7.7802591  55.7908096 175.0877686   6.7724781
  55.5780220 175.5075989   8.5200634  56.8029556 173.7750854   8.0418034
  56.6747055 172.7807312   7.6141272  57.6720734 174.2859344   7.6273603
  57.0834160 173.6649017   9.5685701  57.6167412 174.6764221  10.1198206
  56.8795815 172.5437164  10.1083889  53.1128387 174.8033752   7.9743810
  52.7250023 175.4401398   6.9593587  52.3535843 174.7207489   9.0391521
  52.4716797 174.0362244   9.7723494  51.0971184 175.5551453   9.1348066
  50.6098824 175.6460876   8.1640177  50.0694275 174.8898773  10.0709095
  50.4744644 174.7677307  11.0754623  49.2021217 175.5440826  10.1597700
  49.4440536 173.6028595   9.5329151  49.0357361 173.6919708   8.5262184
  50.2872620 172.9411621   9.3347845  48.5349426 172.8979950  10.5381889
  48.3416328 171.9349518  10.0656576  49.0202217 172.7375031  11.5009174
  47.2518425 173.6022339  10.5854092  46.9797173 173.9211426   9.6665277
  46.4088249 173.8064575  11.6076431  46.6707230 173.3375244  12.7895336
  47.3896217 172.6433258  12.9357595  45.9286537 173.3472290  13.4746170
  45.3355103 174.5313721  11.4897985  45.2609177 174.9304962  10.5650091
  44.5521202 174.5706329  12.1260900  51.4177818 177.0074768   9.5994959
  51.2744064 177.3707275  10.7496624  51.7896919 177.8732910   8.6448879
  51.9053917 177.5684814   7.6889524  52.4613152 179.0961304   9.0207596
  53.1218262 179.0388031   9.8859415  53.4249153 179.5018921   7.8258119
  52.8115807 179.8399048   6.9905477  54.1233292 180.8310852   8.1775255
  54.9111366 180.7244263   8.9232368  54.4444847 181.2920837   7.2434850
  53.3968315 181.4610291   8.6908112  54.4560432 178.3886108   7.2769828
  53.9050636 177.7767334   6.5627556  55.2721367 178.9444427   6.8152895
  54.8592033 177.8023071   8.1026993  51.4440689 180.2486115   9.3283730
  50.7390976 180.7923737   8.4690552  51.2868690 180.5456848  10.6497898
  51.7883873 180.0328217  11.3608112  50.3756447 181.5520477  11.2056313
  49.4576263 181.4509583  10.6267319  50.0347748 181.1515350  12.6236811
  50.8960266 181.0453186  13.2832775  49.3598251 181.9136810  13.0131311
  49.2961121 179.8131714  12.8859529  49.9237671 179.0063782  12.5074787
  49.0868111 179.6097870  14.4465723  48.5709267 180.4911194  14.8276625
  48.4045906 178.7655792  14.5464582  50.0401306 179.4241180  14.9413538
  47.9214363 179.8183899  12.1618185  48.0463943 179.8270264  11.0790377
  47.5966644 178.7840729  12.2750368  47.3333931 180.6490784  12.5520287
  50.8021164 183.0199738  10.9838686  51.9187813 183.4033661  11.3196068
  49.8758316 183.9273834  10.6054354  48.4781494 183.6384735  10.2006712
  47.8643913 183.0340118  10.8685322  48.5267639 183.1553497   9.2247925
  47.7995110 184.9924622  10.0739393  47.3233414 185.2799530  11.0113363
  47.0413857 184.9992523   9.2908058  48.9980888 185.8841248   9.7844391
  48.7137375 186.9115448  10.0116901  49.2163391 185.7819824   8.7214079
  50.1611366 185.3635864  10.5617971  51.0276680 185.5509644   9.9276714
  50.2385864 185.9156036  11.9924393  49.8994675 185.2498474  12.9706059
  50.5092583 187.2208557  12.0884523  50.6190987 187.7022400  11.2073660
  50.5977097 187.9463806  13.4113159  51.3635979 187.4840698  14.0340395
  50.9628792 189.4267273  13.1867876  51.8506775 189.6264648  12.5867701
  50.1821289 189.9954529  12.6817446  51.0806046 190.0510101  14.4128952
  51.2960014 190.9788971  14.2936506  49.2595711 187.8706055  14.1139221
  48.1617393 188.0601807  13.5825138  49.3338356 187.5295258  15.4013290
  50.2423439 187.4670715  15.8381548  48.2368164 187.2403870  16.2751026
  47.7267342 186.3651123  15.8728476  48.7140884 186.9131317  17.6919117
  47.9340363 187.0715637  18.4365730  49.1888504 185.4307861  17.8389244
  50.0196381 185.2369232  17.1604576  49.5845375 185.3042297  18.8466530
  48.4036331 184.7213287  17.5777416  49.7960167 187.8158112  18.0726128
  50.1825333 187.4781799  18.8839111  47.2815132 188.4156342  16.4353466
  46.0932999 188.1904755  16.5999508  47.8576889 189.6119995  16.3334942
  48.8605385 189.6383514  16.2164402  47.1913719 190.8533630  16.4539471
  46.3024101 190.7541809  17.0768528  48.1459045 191.9078522  17.1364727
  49.0131874 192.1673737  16.5293732  47.6238556 192.8629761  17.1941471
  48.5865822 191.6556549  18.5540581  48.9200821 190.6180267  18.5687008
  49.4919434 192.2140656  18.7919712  47.4110985 191.9302673  19.9218273
  46.4847603 190.3426514  20.0602150  47.2299538 189.5547638  19.9506645
  45.9545555 190.3773193  21.0119400  45.7871895 190.1574554  19.2433853
  46.6888885 191.3668213  15.1046858  45.8678436 192.2566833  15.0808153
  47.1075211 190.8260193  13.8729897  47.7997513 190.0906677  13.8600588
  46.6371498 191.3573914  12.5587482  46.6030197 192.4451447  12.6198349
  47.6824188 191.0771942  11.4073677  47.4931412 191.7036285  10.5356789
  48.6191368 191.5573273  11.6904202  47.8154984 189.7370911  10.9607811
  48.4906693 189.6303864  10.2867222  45.2025719 190.9410400  12.2654390
  44.5612907 191.5400238  11.3918476  44.6627808 190.0443420  13.0174646
  45.2448845 189.4205933  13.5580025  43.2176590 189.6799927  13.1743622
  42.8172302 189.7856598  12.1660995  42.9630127 188.2559814  13.6061792
  43.6911583 188.0758972  14.3970537  41.9586105 188.0600891  13.9815483
  43.1662979 187.5247498  12.8238277  42.4754868 190.7119751  14.0904779
  41.3020401 190.4618073  14.4069290  43.1275444 191.8057861  14.5441675
  44.1221848 191.9442902  14.4364281  42.4089050 192.8287964  15.3782902
  41.4356918 192.8855133  14.8906965  42.2770844 192.3215179  16.8146877
  42.2207260 191.2390747  16.6996861  43.5314789 192.5531311  17.7345810
  43.5614319 193.6031189  18.0256348  43.3836365 192.0746460  18.7027245
  44.5192490 192.2986908  17.3502998  40.9778900 192.7485504  17.4631081
  40.1033974 192.2551117  17.0389824  40.9390793 192.4078674  18.4977741
  40.8082314 193.8212128  17.3698368  42.9484138 194.2429504  15.3352203
  42.1913071 195.1739807  15.5795183  44.2286453 194.4422302  14.8937845
  44.8330650 193.6457520  14.7509985  44.7938194 195.7890625  14.7454491
  44.3805733 196.5033722  15.4575500  46.3060188 195.7418671  15.0678768
  46.6236267 196.7747345  15.2107134  46.4933357 195.3087311  16.0504303
  47.2560005 195.1204071  14.0298672  47.4461365 194.1219635  14.4236498
  46.7874565 195.0423126  13.0488129  48.6703110 195.7217255  13.9713535
  49.1770134 196.1609344  14.9792271  49.3757935 195.5070496  12.8587885
  50.2717209 195.9218903  12.6458921  48.8405762 195.0517120  12.1333122
  44.4206161 196.4021606  13.4368563  45.2596588 197.0395660  12.7278433
  43.1644554 196.2104340  13.0110979  42.5537605 195.6907349  13.6251621
  42.4395905 196.9101105  11.9419489  43.1557236 197.1072540  11.1442041
  41.3215408 195.9826202  11.3844233  40.4982719 195.8958740  12.0935087
  40.8052368 196.5116119  10.5833607  41.8495941 194.6335297  10.7676849
  42.8321495 194.8560333  10.3515453  41.9935226 193.5161133  11.8156176
  41.2711716 193.4905548  12.6314955  42.0192871 192.5589294  11.2948046
  42.9748268 193.6288910  12.2765160  40.8730278 194.0580139   9.7442770
  40.6774483 194.8231354   8.9929857  41.2125778 193.1893311   9.1801872
  39.9261246 193.8747253  10.2521009  42.1055870 198.4034729  12.3454409
  40.9156685 198.7800446  12.3987017  43.1360970 199.1627502  12.7876215
  44.0352440 198.8003235  12.5042887  42.9612198 200.5625916  13.2490721
  42.1229553 200.9160461  12.6486616  42.6157303 200.6003723  14.7592630
  42.2335014 201.5843811  15.0307684  41.7509155 199.9389648  14.8114967
  43.7197952 200.0964203  15.7145271  44.3904572 199.3685913  15.2578030
  44.3663254 200.9255676  16.0019550  43.2130165 199.4324341  17.0561523
  43.7954979 198.5119476  17.5516186  42.1173172 199.8211517  17.5796509
  41.7624016 199.2187805  18.3085403  41.5768280 200.5200653  17.0902653
  44.1785049 201.3515472  12.8428946  45.1949959 200.8031921  12.4086752
  44.1711693 202.6839600  12.9570684  43.3699608 203.0611115  13.4427996
  45.2493668 203.6450043  12.5877981  45.3286285 203.6650391  11.5008678
  44.8518791 205.0273438  13.0748501  45.6711693 205.7085419  12.8449659
  43.9792976 205.3578949  12.5114355  44.7076988 204.9755096  14.5253725
  44.2065010 205.7718811  14.7156439  46.6770935 203.2243195  13.0706377
  47.6682854 203.6968842  12.4870491  46.7722855 202.5671844  14.2230797
  45.9084930 202.3365173  14.6929245  47.9804497 202.1957397  14.9837551
  48.6175880 203.0763397  15.0655241  47.6044235 201.7682648  16.3970299
  46.7488670 201.1070404  16.2595158  48.3979607 201.1113739  16.7532616
  47.4046059 202.8621368  17.4013309  48.1765518 203.6257324  17.3057957
  46.0784264 203.5295715  17.2061749  45.2299347 202.8629608  17.3603725
  45.9479141 204.3620453  17.8975906  46.0954895 203.9087982  16.1844120
  47.3574562 202.2554474  18.8291187  48.2861176 201.6989594  18.9556332
  47.2269096 203.0416260  19.5727444  46.4833565 201.6165771  18.9551334
  48.8379326 201.0983276  14.2896862  49.9014130 200.7497406  14.7739420
  48.3398209 200.4876251  13.2412405  47.4254913 200.7884216  12.9352655
  49.0145912 199.3588257  12.5656147  49.0633278 198.6000061  13.3465815
  48.0597992 198.7663574  11.5314732  48.5277290 197.8653107  11.1349144
  47.1608047 198.5003815  12.0875015  47.7188530 199.7650452  10.5130568
  47.0918579 199.3469696   9.9183397  50.4329529 199.6078949  11.9758587
  51.3344078 198.7760468  12.0563583  50.6227493 200.8274231  11.4337378
  49.7963104 201.4048157  11.3727598  51.9481087 201.4119568  10.9535198
  52.4449577 200.6941986  10.3007736  51.6817551 202.7100677  10.1752272
  52.5415688 202.9699402   9.5577402  50.9159966 202.5007477   9.4282999
  51.2485962 203.8536072  11.0453005  50.3889313 203.5108948  11.6211624
  51.9943123 204.1391907  11.7872229  50.8917961 205.1181793  10.2672482
  51.6578560 205.8548584  10.0252361  50.5188370 204.7831726   9.2993813
  49.7143173 205.6965790  10.9464893  49.0009460 205.1019592  11.3435135
  49.3575096 206.9386444  10.8434076  50.1122513 207.9000244  10.5232391
  51.0181389 207.7665558  10.0970306  49.8426704 208.8702240  10.6016178
  48.1868324 207.2054901  11.2428703  47.5557594 206.4678040  11.5215588
  47.9502487 208.1824951  11.3407030  53.0123863 201.6455688  11.9930115
  54.0338783 202.3317871  11.7127476  52.7368736 201.2040558  13.2103281
  51.8991699 200.6691132  13.3897219  53.7672081 201.2477875  14.2631893
  54.2788849 202.2089233  14.2132635  53.0968056 201.2868805  15.5842962
  52.4113464 200.4397430  15.5597057  53.7403831 201.1380463  16.4513378
  52.3200836 202.6410675  15.7441168  52.9723053 203.5094147  15.6508646
  51.6264801 202.7451782  14.9097404  51.6355476 202.7402344  17.0937252
  50.8742714 203.5180511  17.0340118  51.0871696 201.8399506  17.3709793
  52.5046616 203.1135254  18.1903152  53.3784332 203.5006104  17.8635139
  52.1813240 203.1745605  19.4582767  51.0516357 202.8148651  19.9683495
  50.2854538 202.4205780  19.4414635  50.8689919 202.8644867  20.9604607
  53.0850487 203.6188965  20.2961311  54.0345726 203.6727142  19.9561272
  52.7985878 203.7386322  21.2572269  54.8646545 200.1535950  14.0524435
  55.0484734 199.2226868  14.8106661  55.5303116 200.2180786  12.8727226
  55.3492851 201.0109558  12.2738419  56.4518204 199.1868286  12.3448563
  56.0183182 198.2278748  12.6287670  56.3881950 199.2746124  10.7764082
  55.3885803 199.4939728  10.4012442  57.1258316 199.9693909  10.3747940
  56.7348671 197.9547577  10.0570345  57.9403839 197.6604156   9.4111881
  57.7926788 196.4427490   8.8214006  58.4507141 195.8604431   8.1934566
  56.5529556 195.9310150   9.1115646  56.2249680 195.0456543   8.7528811
  55.8607025 196.9276276   9.7698269  54.7998314 196.8921661   9.9690704
  57.8092728 199.2739716  13.0010185  57.9531136 199.9840851  14.0468111
  58.8177910 198.5587463  12.4741526  58.5595665 198.0761719  11.6253042
  59.9856300 198.0164795  13.1109209  59.8157921 198.2018738  14.1715240
  59.8825607 196.4510193  13.0704212  60.7777290 195.9809418  13.4776011
  58.6671295 195.9957275  13.8615007  57.7078056 196.2656708  13.4199848
  58.7938232 194.9432220  14.1149883  58.6784782 196.4462433  14.8539810
  59.7449646 195.9902496  11.6046362  58.6801605 195.9900360  11.3716316
  60.1700363 196.7615814  10.9624147  60.4377708 194.6597748  11.2458096
  60.4023933 193.9805603  12.0975857  59.8108101 194.1677094  10.5022430
  61.4405556 194.8677368  10.8726177  61.3504829 198.7120667  12.9180603
  61.5481567 199.5201874  12.0135784  62.4516068 198.5361938  13.7036667
  63.1977615 199.1127167  13.3417492  62.8856506 197.3370819  14.4825792
  63.8413849 197.7150269  14.8456736  62.0632057 197.1537781  15.7605190
  61.2015877 196.5166473  15.5610790  62.7391090 196.6493988  16.4510689
  61.6149826 198.4300690  16.4916592  62.5133286 199.5032349  16.7110157
  63.5727234 199.4641418  16.5047150  62.1155281 200.6806793  17.3918209
  62.7897606 201.5006256  17.5905552  60.7984810 200.7973022  17.7971497
  60.5471497 201.7075348  18.3212776  59.9209175 199.7041321  17.6703739
  58.9221191 199.7209015  18.0808792  60.3161125 198.5255737  17.0088310
  59.6163063 197.7290649  16.8032742  63.2805405 196.0098419  13.7532902
  63.3909264 196.0923462  12.5574598  63.4153481 194.8107147  14.3623562
  62.5270195 194.1895142  15.3367882  61.4978638 194.3834839  15.0346060
  62.7561760 194.4687195  16.3652020  62.7240677 192.6700134  15.2375050
  62.2239990 192.2550964  14.3623657  62.3530617 192.1354370  16.1119614
  64.2326431 192.6538086  14.9666386  64.4811325 191.7175293  14.4669094
  64.7773132 192.6442871  15.9107475  64.6206970 193.9749756  14.2175274
  65.3876877 194.5919342  14.6857033  65.1480560 193.6972809  12.7789803
  64.4014282 193.3605652  11.8733959  66.4696045 193.6057587  12.5838108
  66.6375046 193.3785248  11.6141348  67.5987701 193.9787292  13.4828997
  68.5146103 193.9118500  12.8956442  67.7096481 192.9321594  14.6710186
  68.5767288 193.1774292  15.2842932  66.8552475 193.1026917  15.3260126
  67.7649307 191.6004333  14.2203655  66.9420471 191.1553650  14.4357243
  67.6273727 195.4717407  13.9845963  66.7383194 196.2376404  13.5675678
  68.5164108 195.9228058  14.8957901  69.2414474 195.2926178  15.2076998
  68.1072235 196.9642792  15.8380442  67.3643570 197.5674744  15.3161135
  67.2809601 196.3368683  17.0174141  66.9256287 195.3640289  16.6776733
  68.0887604 196.1015472  17.7103691  66.1970291 197.1077423  17.5586796
  65.3815155 196.7453156  17.2048721  69.1242371 198.0695496  16.3072166
  69.0266647 198.5844879  17.3910236  70.2178345 198.4207458  15.6410723
  70.7233963 199.1326141  16.1487427  70.9059677 197.8155823  14.4663897
  71.8722763 198.3187714  14.4324083  70.0017929 198.1286621  13.2032185
  69.1101761 197.5028992  13.1638374  69.6546249 199.1596985  13.2706003
  70.8592682 197.9421844  11.8377371  71.0372162 196.8676300  11.8798933
  70.1936035 198.2355957  11.0260162  72.2565079 198.7072296  11.8208523
  72.4331741 199.3605499  12.6752815  73.1189804 198.0416412  11.7856913
  72.3360901 199.6607666  10.6345911  71.3372192 200.0651550  10.4708014
  72.9506302 200.5295258  10.8706284  72.9266205 198.9788666   9.4369040
  72.3791962 198.2133026   9.0703802  73.0949707 199.6745300   8.7242975
  73.8514404 198.6030121   9.5903530  71.4192505 196.3487854  14.7083750
  71.3501587 195.4631805  13.8384914  72.1223297 196.1005554  15.8610992
  71.6620407 196.2176056  17.2007103  70.5881958 196.3960419  17.2565613
  72.2640076 196.9829407  17.6906204  71.9500275 194.8667145  17.7919064
  71.1217575 194.1788483  17.6218700  72.2708893 195.0949707  18.8082943
  73.1561127 194.3382568  17.0762005  74.0259094 194.4737549  17.7190018
  72.9609299 193.2948151  16.8287468  73.2365723 195.1979218  15.8299894
  73.2255325 194.5708466  14.9384985  74.5671387 195.9634552  15.9222469
  75.5833282 195.2944641  15.9430723  74.5905685 197.3094635  16.1901855
  73.6987381 197.7770996  16.1123447  75.8225250 198.1765137  16.2998810
  76.3797226 198.0671692  15.3694639  75.3800583 199.6848907  16.4616241
  74.3251877 199.7937317  16.2096272  75.4948120 199.8892670  17.5261250
  76.2550354 200.6909180  15.6781788  77.2726288 200.3100891  15.5911837
  75.8090820 200.6840210  14.6836023  76.2926788 202.1603851  16.0000935
  76.7167740 202.2327271  17.0015984  76.9660034 202.6363373  15.2872038
  75.0417480 202.9802094  16.1802998  74.4529724 202.8177185  15.2775011
  74.4687119 202.5763550  17.0149384  75.4058456 204.4509430  16.3780193
  76.0337830 204.7589111  15.6493483  74.5793915 205.0308838  16.3510208
  75.9033737 204.6966095  17.2219467  76.7460480 197.6873016  17.4188843
  77.9670029 197.6917419  17.3448143  76.0963669 197.2381744  18.5221939
  75.0939713 197.1798096  18.4131317  76.7136383 196.8974152  19.8041306
  77.6664734 197.4265900  19.7904186  75.9956131 197.5855103  21.0098038
  76.8110504 197.5886078  21.7330971  75.6721954 199.0789490  20.7124519
  74.6493988 199.2665558  20.3856564  75.6393433 199.4929047  21.7202587
  76.4725647 199.5367889  20.1311665  74.7644043 196.8993988  21.6584034
  74.9654770 195.8531799  21.8888378  74.4798660 197.4500427  22.5550232
  73.9088440 196.9824524  20.9881630  77.2158890 195.4254456  19.9946766
  77.6639709 195.0758820  21.1117344  77.2417068 194.5803528  18.9383450
  77.0534058 194.9663849  18.0242195  77.9577866 193.2917175  19.0436344
  77.9041290 192.7327576  18.1093998  79.4800186 193.5066071  19.2652950
  79.6791229 193.7232666  20.3148251  80.1135101 192.6394806  19.0785160
  80.2719040 194.5212402  18.4423103  80.6814041 195.7542725  18.8830166
  80.4506607 196.0883179  19.8838062  81.3113251 196.4295807  17.8662739
  81.5423203 197.4123993  17.8946362  81.7306747 195.5274506  16.8869057
  82.5251160 195.6752777  15.6870117  83.0169067 196.6143494  15.4803772
  82.5912094 194.5848846  14.7946959  83.3029327 194.6534576  13.9852800
  81.8294296 193.4370880  15.0618124  81.9917908 192.5602264  14.4525967
  81.0656357 193.2785034  16.2059517  80.5813370 192.3492126  16.4672852
  80.9179001 194.3240662  17.1207047  77.3997421 192.2164001  20.0883636
  77.9732132 191.1263733  20.1853218  76.3569870 192.5243225  20.8717308
  75.9369583 193.4328613  20.7366619  76.0423355 191.7651825  22.0597820
  77.0047607 191.2942047  22.2597771  75.0128784 190.6039429  21.8210049
  74.4330902 190.5578003  22.7428589  74.3459015 190.9308624  21.0232830
  75.7060928 189.2809906  21.5997868  74.9948883 188.4573822  21.5370350
  76.1248474 189.2027588  20.5964794  76.7718887 188.8032990  22.6610737
  76.9968185 189.3521729  23.6727047  77.5206680 187.7686310  22.2619114
  78.2892456 187.4817200  22.8510456  77.3120880 187.3369446  21.3729515
  75.5630722 192.4201508  23.3629227  74.4717484 193.0447998  23.4426289
  76.2795029 192.0118713  24.4287186  77.0777893 191.4070587  24.2982121
  75.8522797 192.1665497  25.8020439  75.0210114 191.4826202  25.9733429
  77.0255508 191.7215118  26.6994267  76.9238281 192.0617371  27.7299633
  77.0627213 190.6375580  26.5909672  78.4381256 192.3145905  26.4427147
  78.6068954 193.5064087  26.1523037  79.3688049 191.4829102  26.6516075
  75.3473740 193.5441284  26.2442360  75.6147690 194.5815582  25.6680622
  74.5872040 193.5342560  27.3447342  74.5434036 192.6032715  27.7339077
  73.8498688 194.6072540  27.9878712  73.0634766 194.1925659  28.6185188
  74.7019653 195.3960419  29.0671749  74.1435852 196.2581787  29.4319210
  74.9620819 194.7404785  29.8982487  76.0551300 195.9705353  28.6412067
  76.6305695 195.9938812  29.5666351  76.5346832 195.3193665  27.9103832
  76.0308304 197.4408417  28.0107079  75.1484070 197.9976654  28.3259716
  76.8308487 198.0579834  28.4196320  76.3208237 197.4544525  26.5380611
  75.6397858 197.7804108  25.8672085  77.4699020 197.2289734  25.9674263
  78.6202927 196.9709320  26.6156502  78.5491638 196.7953949  27.6077328
  79.4335022 196.6223145  26.1285496  77.4340897 197.2280731  24.6542511
  78.2645111 196.9405823  24.1564026  76.6387634 197.4998627  24.0941772
  73.0196686 195.3719940  27.0467815  72.5265884 194.6948700  26.0669537
  72.7568054 196.6161804  27.2180672  73.0072403 196.9031677  28.1534901
  71.9897919 197.5731812  26.4356785  71.9935455 198.5211945  26.9736118
  72.7079620 197.7640228  25.1106949  73.1116791 196.8395844  24.6977463
  72.0675354 198.2142181  24.3522301  73.5536194 198.4327850  25.2710648
  70.4924469 197.2850037  26.1797943  69.5871201 198.0075073  26.6025372
  70.1832199 196.2683716  25.3725853  70.9401550 195.7806244  24.9151611
  68.8106308 195.9239349  24.9585152  68.3016510 196.8844604  24.8782730
  68.7615356 195.4015045  23.5201225  67.7098618 195.1701813  23.3510818
  68.9907379 196.2374115  22.8592033  69.6326981 194.1999969  23.2022305
  69.2533188 192.8944244  23.6442776  68.4868011 192.7117462  24.3828354
  69.9412460 191.7805939  23.1947575  69.7222290 190.7938232  23.5751629
  70.9417953 191.9703522  22.2137032  71.4597702 191.1311646  21.7734051
  71.2865601 193.2778015  21.7290115  71.9639664 193.3719330  20.8931541
  70.5878067 194.3781433  22.2129421  70.7674484 195.3978729  21.9058857
  67.9418945 195.2249908  26.0020504  67.2081909 194.2887115  25.6454487
  67.9524384 195.6883087  27.2390213  68.6223755 196.4052582  27.4783344
  67.0969162 195.1509705  28.2834511  66.8199768 194.1140900  28.0929165
  67.8339844 195.2018433  29.6369648  68.1458588 196.2217102  29.8621864
  67.2402954 194.7518463  30.4326553  69.1943054 194.3260498  29.6632748
  68.9246902 193.4226227  30.2102947  69.4808044 194.0793610  28.6409378
  70.2732849 195.2099609  30.3920441  71.2211609 194.6734619  30.3496723
  70.4281235 196.1894989  29.9396858  69.8817596 195.4041138  31.7724915
  69.7841034 194.4920044  32.1951256  69.7530365 196.5242462  32.4004707
  69.9417038 197.6817780  31.8596439  70.1781693 197.7649689  30.8812466
  69.7363510 198.5375214  32.3552780  69.2819977 196.5710907  33.6442261
  68.9038620 195.7591553  34.1109810  69.1367264 197.4121704  34.1842270
  65.7360382 195.8462677  28.2501507  64.7489700 195.1760406  28.0312901
  65.7246170 197.1992645  28.4774342  66.6412430 197.6047058  28.6019897
  64.4566040 197.9254150  28.4532261  63.8169708 197.5999298  29.2736073
  64.9029312 199.4066467  28.7253609  65.8293228 199.6812897  28.2209091
  64.0570068 199.9948273  28.3695984  65.1850815 199.6415863  30.2677326
  64.2761154 199.3520966  30.7950668  65.8564911 198.8737030  30.6520100
  65.6190186 201.0232239  30.7633018  65.8251114 201.9064789  29.9559479
  65.9469681 201.1558685  32.0409775  66.3320541 202.0330963  32.3607712
  65.8545227 200.3454742  32.6366577  63.6095734 197.7805328  27.1596241
  62.3860779 197.9276428  27.1714134  64.2354126 197.4985809  25.9956760
  65.2450409 197.5181122  26.0148220  63.5982628 197.4217529  24.6937332
  62.8392830 198.2039948  24.7059460  64.5680466 197.6864777  23.5737400
  64.8728638 198.7261505  23.6931190  65.4096146 197.0085297  23.7160969
  63.9993210 197.4511414  22.1632271  63.3056831 198.3336945  21.3665180
  62.9714394 199.3074493  21.6928425  62.8112564 197.6783295  20.2645035
  62.2966080 198.1635590  19.5435371  63.2444534 196.3703918  20.1944065
  62.9906311 195.2994843  19.2965622  62.2992630 195.4665222  18.4838467
  63.6378860 194.0751343  19.5196724  63.4843750 193.3317566  18.7514019
  64.4199371 193.8997345  20.6792507  64.9063339 192.9547272  20.8710251
  64.6995773 194.9277954  21.5831890  65.1911392 194.7819061  22.5337067
  64.0730133 196.2235565  21.4015255  62.8646469 196.1011963  24.5112019
  61.9213219 196.0771484  23.7788239  63.1752319 195.0448608  25.3042221
  64.0707855 195.0558777  25.7710781  62.3467598 193.8145142  25.1984730
  62.1502686 193.7406769  24.1288757  63.1507797 192.5186005  25.5830402
  63.8432388 192.8377380  26.3619843  62.4225578 191.7896423  25.9385796
  63.7555428 191.9488983  24.3946075  65.0809174 191.8345795  24.1422577
  65.8581772 192.2526398  24.7647476  65.2983475 191.1351166  22.9749622
  66.2112198 190.9628601  22.5786152  64.1263733 190.7789612  22.3842182
  63.7502480 190.0153046  21.2447109  64.4910049 189.8288574  20.4812164
  62.3788528 189.6035614  21.0996647  62.0547676 188.9427490  20.3092937
  61.4518471 190.0334015  21.9658318  60.4332771 189.7126617  21.8044510
  61.7610092 190.7483978  23.1380520  61.0048981 190.8722534  23.8992023
  63.1068344 191.1908417  23.3043671  61.0081024 193.9376526  25.8850613
  60.0147591 193.3829803  25.3154373  60.9096375 194.8421783  26.8859596
  61.7840347 195.1466064  27.2895145  59.6349068 195.3132935  27.4319668
  59.0138550 194.4320679  27.5927372  59.8241844 195.9563751  28.8310146
  60.4469490 196.8439941  28.7197399  58.8525238 196.2231293  29.2467175
  60.5173645 194.9699097  29.8423500  59.9293137 194.0878296  30.0958138
  61.5360298 194.6902924  29.5735741  60.6361618 195.6506653  31.2284088
  60.9312286 196.8619080  31.3298836  60.6810760 194.8837585  32.2922745
  61.0828209 195.2573547  33.1402893  60.5946846 193.8774872  32.2872505
  58.8724442 196.2390289  26.4458580  57.6580200 195.9971313  26.2521324
  59.5436859 197.1617889  25.8567791  60.4963837 197.2017822  26.1897545
  59.0439110 198.2507172  25.0041084  58.3511467 198.8910217  25.5501690
  60.1402435 199.1731873  24.6519432  60.7609787 199.3626709  25.5276623
  60.7622681 198.7100525  23.8859825  59.7317429 200.5512238  24.0618935
  59.1477661 200.3913879  23.1555138  59.1343689 201.1069031  24.7847118
  60.9777260 201.3716125  23.6422462  61.7020073 201.3539429  24.4566193
  61.4220886 200.9027100  22.7643089  60.7347069 202.8851013  23.3631325
  61.6842422 203.3435516  23.0868931  59.9967766 203.0332947  22.5747147
  60.2861633 203.6795959  24.5300770  60.8633728 203.5299225  25.3452625
  60.3487740 204.6628723  24.3078938  59.3633766 203.3990631  24.8298550
  58.4444466 197.6773834  23.7190857  57.4043961 198.1570587  23.2573242
  59.1195221 196.6928864  23.0802307  59.9879379 196.3781281  23.4887428
  58.6415749 196.0584259  21.8522873  58.3467484 196.7907715  21.1007271
  59.8133926 195.3877716  21.2601128  60.6135101 196.0796356  20.9969616
  60.1674919 194.6283722  21.9572716  59.5526199 194.4273224  20.0684299
  59.2993546 194.9484863  18.7884598  59.3241196 196.0169220  18.6327744
  59.1459503 194.1580963  17.6489525  59.1245728 194.6054688  16.6661987
  59.0146637 192.7364197  17.7969170  58.6587906 191.9635162  16.7608128
  58.7024879 192.3553467  15.8855057  59.1428452 192.2116089  19.0834522
  59.0451202 191.1552124  19.2856541  59.3936996 193.0446320  20.1657982
  59.4960403 192.5620117  21.1265373  57.4259338 195.1066132  22.0929375
  56.4041214 195.3332214  21.4487724  57.4632874 194.2953949  23.1713028
  58.3370781 194.2889709  23.6778126  56.2869720 193.6094360  23.6539326
  56.0289154 192.8300781  22.9369164  56.6909370 192.8393555  24.9551296
  57.3445587 192.0148621  24.6703396  57.2831650 193.4782715  25.6102352
  55.4942551 192.2932739  25.8178577  54.8441849 193.1364136  26.0515423
  54.9028893 191.6017609  25.2176895  56.0854645 191.6612091  27.0548306
  55.8964462 190.4765625  27.1984005  56.5627060 192.4338684  27.9728565
  56.6792259 192.0673218  28.9067593  56.4380150 193.4250031  27.8239155
  55.1414452 194.5745087  23.9740849  54.0161743 194.2815247  23.4969749
  55.3548737 195.6097870  24.7971935  56.2336464 195.6831818  25.2896023
  54.2841148 196.6864777  25.0074558  53.4254532 196.1415405  25.3996716
  54.7710037 197.7245941  26.0698452  55.1864433 197.1059113  26.8652973
  55.5252762 198.3943481  25.6568146  53.6736488 198.6478577  26.6441498
  53.3482552 199.2656250  25.8071423  52.8575401 198.1305084  27.1485538
  54.2808723 199.6637268  27.6734123  54.6280365 199.1323242  28.5595169
  55.0941849 200.2520294  27.2485332  53.2548561 200.6384735  28.1570797
  53.2993088 201.4324036  27.4115582  52.2322922 200.2624359  28.1897335
  53.5876007 201.1518402  29.5169277  54.5566978 201.4358826  29.5001183
  52.9883385 201.9048920  29.8233814  53.5643425 200.4736786  30.2650223
  53.7882767 197.3541870  23.6857567  52.6920280 197.8786774  23.7188873
  54.6084137 197.4468079  22.5691528  55.5725098 197.2116089  22.7570534
  54.1711426 198.0749664  21.3314323  53.4811783 198.8819580  21.5780010
  55.4513206 198.7409058  20.7226238  55.8448448 199.2875214  21.5796223
  56.2181473 198.0229034  20.4318333  55.0077629 199.6169739  19.5551491
  54.5539017 199.0138702  18.7687817  54.2060242 200.2783661  19.8836060
  56.1548538 200.4665070  18.8997326  56.8589821 199.7606659  18.4591637
  55.7275734 201.0941925  18.1177235  56.7565880 201.3344421  19.8961220
  56.5658913 201.0651093  20.8506851  57.4306984 202.4548187  19.7209091
  57.9827995 202.7263641  18.5289326  57.8328400 202.1187134  17.7362213
  58.2725716 203.6623383  18.2838383  57.5554352 203.3523865  20.7101765
  57.0887146 203.3005524  21.6043720  58.3114357 204.0203552  20.6614552
  53.4483147 197.1752930  20.3466339  52.3663979 197.5942993  19.8351002
  54.0775108 196.0135345  20.1478958  54.9939156 195.8166809  20.5241299
  53.5873489 195.0516205  19.1954231  53.4495239 195.5549927  18.2384892
  54.7246399 194.0301971  18.9083729  55.6574097 194.5335999  18.6541615
  54.9545250 193.5380859  19.8534069  54.3247223 192.9130249  17.9274368
  53.6062546 192.2236023  18.3708267  53.7829361 193.3118591  17.0698185
  55.5453568 192.1431732  17.3950424  56.2716141 192.8700867  17.0313587
  55.9598541 191.5500488  18.2102108  55.1824379 191.1203003  16.3264828
  55.9708557 190.3679352  16.3471699  54.2372818 190.6392670  16.5782471
  55.1902809 191.6707916  14.9449196  56.1295395 191.9167938  14.6667585
  54.8373451 190.9871521  14.2905798  54.6368484 192.5145569  14.9016008
  52.3074341 194.3999939  19.6477680  51.5165253 193.9257812  18.8702641
  52.1358795 194.3101044  20.9650860  52.8993263 194.5686188  21.5737057
  50.9665985 193.6520081  21.6176968  50.3281670 193.3578491  20.7846470
  51.4180527 192.4441986  22.5282116  52.0903473 192.8444519  23.2871113
  50.4673004 192.0349121  22.8697453  52.1474037 191.4488220  21.6862717
  51.5600166 190.6767883  20.6802025  50.4845390 190.6797943  20.5814915
  52.3052597 189.7794800  19.8606472  51.8635979 189.1201782  19.1280613
  53.6772804 189.6192474  20.0984688  54.2440720 188.9680328  19.4495754
  54.2770386 190.3910217  21.1058407  55.3427010 190.4038849  21.2807903
  53.5344543 191.3061829  21.7775803  54.0632324 191.9053192  22.5041027
  50.0157509 194.6033936  22.3654099  49.1862335 194.1196289  23.0601597
  50.0750275 195.9245300  22.1275673  50.8035660 196.2401581  21.5032978
  49.1283760 196.9122314  22.7236900  49.2177048 196.8467407  23.8080463
  49.5110435 198.3166809  22.1718826  50.5252838 198.5548859  22.4923134
  49.4844284 198.2427216  21.0847206  48.6289177 199.5105743  22.4227028
  48.9636917 200.5497589  23.2710953  47.8959656 201.3397675  23.2493114
  47.8019104 202.2497253  23.8233776  46.9465408 200.8670807  22.4341488
  46.0013962 201.2230682  22.4252434  47.4084167 199.6964417  21.8553391
  46.9446297 199.1040192  21.0805264  47.6512909 196.5725403  22.3600292
  46.7236099 196.8310852  23.1685581  47.3996353 195.9457550  21.2234402
  48.1960831 195.9206696  20.6028442  46.0541992 195.5583191  20.7591820
  45.3648109 196.3761902  20.9687843  46.0649986 195.4966888  19.2258072
  46.8288918 194.7795868  18.9252834  45.1264267 195.0698090  18.8723106
  46.5395126 197.1044769  18.5479107  45.3509674 197.7137146  18.5150681
  45.4227333 194.2906952  21.3394051  44.2274284 193.9933014  21.2937012
  46.1906853 193.6540527  22.1907501  47.1443901 193.9862061  22.2057419
  45.7464523 192.6501923  23.1699314  45.3602104 191.8038025  22.6020069
  46.9992867 192.1099091  23.8528557  47.4299774 192.9427795  24.4086723
  46.7214661 191.4838562  24.7007790  47.6126900 191.5912018  23.1161175
  44.7247353 193.1898804  24.1658535  43.9676895 192.3863220  24.7428455
  44.5140533 194.4954224  24.2779770  45.1256332 195.1520538  23.8143883
  43.5473709 195.1326141  25.1841221  43.7140198 194.7524567  26.1919899
  43.7871056 196.6562500  25.2093964  43.2051010 197.1817322  25.9665184
  44.8530540 196.8096466  25.3777008  43.4751968 197.2167511  23.8628712
  43.7618599 198.1329498  23.8667240  42.1299629 194.8672943  24.7485847
  41.2363205 194.8281250  25.5835152  41.8359032 194.6475067  23.4625378
  42.6500053 194.6596832  22.8648796  40.5508652 194.3598022  22.8854332
  39.7717590 194.9874878  23.3179913  40.4893684 194.5728607  21.3773003
  40.9370995 193.6998596  20.9024200  39.4885216 194.6541595  20.9532776
  41.2284584 195.7947388  20.8149471  42.2815666 195.6840973  21.0734406
  41.1108818 195.9075928  19.2787075  40.0909805 195.8044739  18.9082165
  41.4969177 196.8740540  18.9546280  41.7774086 195.1072235  18.9573593
  40.6541939 197.0993195  21.4029198  40.8806496 196.9780426  22.4622192
  41.2419701 197.9098358  20.9719906  39.5664177 197.1518097  21.3572426
  40.0497169 192.9374847  23.2005558  38.8346748 192.6777191  23.4399338
  41.0161552 192.0161285  23.2303104  41.9579620 192.3647614  23.1228180
  40.9640160 190.5867920  23.5687122  39.9847183 190.2671051  23.2125092
  41.9257698 189.6876831  22.8804188  41.6184273 188.6793060  23.1575737
  41.9461060 189.7468414  21.3806438  42.3035622 190.7077179  21.0104523
  42.4959793 188.9217224  20.9279633  40.9333611 189.5561981  21.0255165
  43.2513542 189.8699036  23.3690548  43.7219200 189.0906067  23.0643215
  41.0338669 190.3464813  25.1005001  41.3050499 191.2486877  25.8886757
  40.7060280 189.1462250  25.5697861  40.4547768 188.4127808  24.9224567
  40.6062775 188.8180695  27.0221710  40.2278824 189.7014160  27.5365829
  39.6031876 187.7185211  27.1558323  39.5023766 187.3990173  28.1930676
  38.6298141 188.0447845  26.7895050  39.9673386 186.6023254  26.3526325
  40.5574265 186.1014862  26.9205742  41.9532242 188.5117645  27.7088318
  41.9798813 188.1121826  28.8804626  43.0332413 188.7177887  27.0556736
  42.9898720 189.3477478  26.2673950  44.4129143 188.3391113  27.4714928
  44.3857307 187.8279114  28.4338036  45.0081253 187.2797241  26.5390530
  45.2087631 187.7072144  25.5566616  46.0239983 187.0064240  26.8243809
  44.1123657 186.1024017  26.2778759  43.4317017 185.8258514  25.1500168
  43.4879379 186.3614197  24.2138519  42.7025452 184.6091003  25.2564316
  42.0373116 184.2636108  24.5795288  42.8219681 184.1026001  26.5562572
  42.2931900 182.9540863  27.1772709  41.4699860 182.3966522  26.7553806
  42.7789650 182.5932770  28.4577312  42.3288193 181.6950073  28.8538246
  43.6518326 183.4111328  29.1638680  43.9932137 183.1548462  30.1559258
  44.0634270 184.6447601  28.5608692  44.6881638 185.2668304  29.1846733
  43.7138710 185.0401764  27.2485542  45.4425316 189.4205627  27.5845470
  45.4684753 190.2451019  26.6906700  46.3483849 189.4317932  28.5671425
  46.5242615 188.3869934  29.6166115  46.6144943 187.3945770  29.1749249
  45.6382980 188.4111023  30.2511101  47.7694206 188.7232971  30.3764038
  48.5523109 188.1462555  29.8842659  47.7111893 188.4540253  31.4310112
  47.9746552 190.2115631  30.1373787  49.0299377 190.4828796  30.1668053
  47.3143692 190.8025818  30.7720566  47.3438568 190.4477386  28.7456455
  46.8773499 191.4328461  28.7412357  48.3991432 190.3557739  27.6523075
  48.7547951 189.2600403  27.1675243  49.1594429 191.4951172  27.3776493
  48.9070168 192.8220673  27.9633656  49.4056168 192.8285370  28.9326210
  47.8454132 193.0079041  28.1263466  49.4927292 193.8062134  27.0024948
  49.7743874 194.7170410  27.5308475  48.7841568 194.1354828  26.2424965
  50.6677055 193.0219269  26.4399643  51.5274429 193.0967865  27.1058006
  51.0654449 193.3914948  25.4948082  50.1356316 191.5450592  26.2837067
  49.6070290 191.3917084  25.3428802  51.2583580 190.4606934  26.3433647
  51.5814438 189.8544769  25.3137875  51.7355537 190.0917969  27.5131950
  51.4603348 190.5630493  28.3630733  52.7276344 189.0404968  27.7367210
  53.5106087 189.4550781  27.1017628  53.2285728 189.0675659  29.1665478
  53.9599457 188.2654724  29.2658195  53.8636398 189.9462128  29.2794647
  52.3124046 188.8908234  30.3052616  51.8442192 189.8664093  31.1305485
  52.0201454 190.9262238  31.0199661  50.9558678 189.3590393  32.0509567
  50.3921814 189.8645172  32.7194290  50.8532028 187.9797516  31.8786697
  50.0317497 186.9789124  32.4415436  49.3179092 187.2082825  33.2188644
  50.0832520 185.6440430  32.0318489  49.4579239 184.9307556  32.5481682
  51.0139542 185.2623444  31.0544815  51.0467110 184.2776337  30.6121216
  51.8473167 186.2282562  30.4641609  52.4312057 185.9963837  29.5856934
  51.7286682 187.6287994  30.8243084  52.3864937 187.6274567  27.2778282
  53.2777863 186.9174042  26.7658405  51.1122131 187.1686249  27.2745838
  50.3510666 187.8006744  27.4777718  50.7277908 185.8716125  26.7435112
  51.3623428 185.2016754  27.3237000  49.2664680 185.5196075  27.0775490
  49.0839729 185.5920563  28.1497192  48.7446861 186.2835693  26.5011749
  48.8156204 184.0899963  26.5799179  48.9133415 184.0662384  25.4945660
  49.5172920 182.9348145  27.2905865  49.4638901 183.0192108  28.3759995
  49.1634903 181.9310303  27.0552921  50.5672035 182.8886871  27.0013428
  47.3100128 183.9379730  26.7440376  46.8883286 184.7700348  26.1801682
  46.9768028 182.9931183  26.3147068  47.0766525 184.0531769  27.8025112
  51.1094055 185.6479950  25.2531013  51.6348343 184.6225281  24.9018097
  50.7905426 186.6352234  24.4293785  50.5021782 187.5243378  24.8120365
  51.1312256 186.5621033  23.0101089  50.6072731 185.6372375  22.7688389
  50.4205704 187.6948547  22.2626247  50.7498169 188.6518707  22.6673717
  50.7787323 187.7023773  21.2331753  48.8797112 187.6058960  22.2081470
  48.2150650 186.5657349  21.5384026  48.8507919 185.8319855  21.0652637
  46.7973251 186.4719391  21.5567036  46.3437653 185.6468201  21.0276852
  46.0845413 187.4468384  22.2521286  44.7526283 187.5010681  22.2987938
  44.3965607 187.0081024  21.5559597  46.7637787 188.5146484  22.8924751
  46.2662354 189.2627258  23.4918308  48.1678810 188.5739746  22.9238358
  48.5779572 189.3628693  23.5369301  52.6381149 186.4649658  22.6989441
  52.9917145 185.7552338  21.7880325  53.5000229 187.0656738  23.5408611
  53.0872002 187.6110077  24.2840252  54.9447594 186.8516693  23.3910561
  55.3067322 187.2508392  22.4435673  55.7385063 187.6084442  24.4235058
  55.4149590 187.2893219  25.4142532  56.7858505 187.3782196  24.2281265
  55.5960808 189.0485077  24.4076824  56.1125412 189.4141083  25.1296272
  55.4046669 185.3676605  23.5444260  56.3594551 184.9402771  22.9528065
  54.6355629 184.5320282  24.2117386  53.7806435 184.8822937  24.6198177
  54.9065132 183.0601959  24.4546909  55.9889526 182.9916077  24.3464241
  54.3394890 182.5579987  25.8126984  53.2626343 182.4765320  25.6649094
  54.8051147 181.5803528  25.9371490  54.5962410 183.3614044  27.1474781
  53.8923874 184.1917877  27.0914097  54.2867966 182.6454773  28.5181217
  55.0968971 181.9325867  28.6718178  54.4126129 183.4823303  29.2051144
  53.2844124 182.2195129  28.4747448  56.0403328 183.9520569  27.3377743
  56.1236725 184.6692963  26.5212402  56.1556320 184.4935303  28.2767239
  56.6881256 183.1227570  27.0536785  54.3615723 182.1772614  23.3091259
  54.5275078 180.9781342  23.2997990  53.8626289 182.7892303  22.2664127
  53.5099144 183.7322083  22.3469009  53.4682007 182.1690216  21.0039158
  53.8413544 181.1482544  20.9210129  51.9482613 182.1105499  20.9103584
  51.5908203 183.1196594  21.1154346  51.6297150 181.7231140  19.9426231
  51.2746582 181.1399078  21.8709927  50.8115349 181.6701965  23.0831852
  50.8994446 182.7329407  23.2541809  50.2175636 180.8498993  24.0015945
  49.8121643 181.1982727  24.9400444  49.9525452 179.4807587  23.7449284
  49.3259315 178.7143097  24.6928883  48.7519913 179.1390533  25.3345890
  50.4247665 178.9021912  22.5406303  50.2902184 177.8491058  22.3424034
  51.0437317 179.7636108  21.5563145  51.2595558 179.3760071  20.5716457
  54.0676880 182.9438934  19.7933884  53.9791031 182.5603485  18.6099434
  54.6729584 184.1045685  19.9809628  54.6986313 184.4726257  20.9211597
  55.2991714 184.9642944  18.9674072  54.5470924 185.2111359  18.2180405
  55.5916214 186.2757111  19.6406307  54.6390495 186.7774200  19.8109570
  56.1540108 186.0950317  20.5566921  56.4169846 187.1968842  18.6473618
  56.2920380 187.1240997  17.3754539  57.4319954 187.7342682  19.1667118
  56.5922318 184.3836823  18.3560352  57.5469971 184.1877594  19.1024513
  56.6296730 184.0125732  17.0378456  55.8216820 184.1856232  16.4570656
  57.8056717 183.3360443  16.4140720  57.9684639 182.3695679  16.8910465
  57.5592575 182.9815063  14.9293165  57.6177063 183.8717651  14.3031044
  58.2896461 182.2093048  14.6877871  56.6023140 182.4892426  14.7560053
  59.0794029 184.1431274  16.5935364  60.1520042 183.5924072  16.7469788
  59.0824814 185.5070038  16.6790047  58.1730270 185.9450989  16.7115803
  60.2597961 186.3180542  16.9121876  61.1257629 185.9321289  16.3743458
  59.9274292 187.7802277  16.4749889  59.0735893 188.1999054  17.0068989
  60.7496185 188.4280396  16.7790203  59.7295609 187.9013977  14.9524231
  58.8570518 187.2684631  14.7904844  59.5819283 188.9481659  14.6867332
  60.9033470 187.3491821  14.1383286  62.0808449 187.3756866  14.5126419
  60.6577187 186.8566437  13.0427732  60.7566338 186.2789154  18.3232403
  61.9801979 186.1544037  18.5786438  59.8403740 186.2883301  19.3348389
  58.8562508 186.4712219  19.2001133  60.2737579 186.0704651  20.7144871
  61.1958542 186.6401215  20.8299561  59.0768852 186.3687134  21.6267548
  58.2122765 185.7087097  21.5563164  59.4705849 186.2399902  23.1405430
  60.4170570 186.7762756  23.2090473  58.7323837 186.6168213  23.8484669
  59.5693245 185.1739044  23.3450470  58.5438423 187.6809235  21.4410591
  58.3987427 187.8456421  20.5064945  60.7605209 184.5956573  20.9598999
  61.7156334 184.3648529  21.6277657  60.0595665 183.6610260  20.3408413
  59.2301826 183.8755035  19.8058434  60.4285202 182.2883453  20.4865131
  60.5028534 181.9483185  21.5194454  59.3507729 181.4601898  19.6994553
  59.1767807 181.9152222  18.7243786  59.8113899 180.4859467  19.5358658
  58.0037422 181.2742767  20.4493599  57.6499939 182.2429657  20.8023319
  56.9060173 180.7654114  19.4920082  57.2114716 179.8741760  18.9438267
  56.0641060 180.4779205  20.1217937  56.3786278 181.3915405  18.7723293
  58.1940880 180.2767792  21.6076870  59.0131950 180.6318054  22.2330837
  57.3108788 180.1987610  22.2416859  58.2782631 179.2889557  21.1546669
  61.8002815 181.9377594  19.8354416  62.3396339 181.0086212  20.3453655
  62.2206879 182.6195068  18.7821541  61.6661110 183.3904114  18.4382992
  63.5843582 182.5048676  18.2497826  63.7413826 181.4286957  18.1769524
  63.7444229 183.1486816  16.8409786  63.3182678 184.1518097  16.8259888
  64.8122787 183.2335968  16.6395607  63.1138802 182.3036194  15.7476616
  63.6719246 181.3742065  15.6342230  62.0855827 182.0668335  16.0208607
  63.1086807 183.0412140  14.1084309  64.8755875 183.0915375  13.6629305
  65.2928314 182.0851898  13.6986170  64.9558029 183.4548645  12.6383972
  65.4589691 183.7371368  14.3194132  64.6259842 183.0914917  19.2443905
  65.7108154 182.5231628  19.3895073  64.2929077 184.2604065  19.7704353
  63.4754372 184.7665710  19.4611835  65.2720871 184.8784027  20.6658020
  66.1978226 184.9652710  20.0969696  64.7761078 186.3065338  21.0362434
  64.5562820 186.7731934  20.0760326  63.9448204 186.1316528  21.7192402
  65.8767700 187.1669006  21.7638836  65.4119644 188.1453857  21.8848248
  66.0005951 186.7698059  22.7713947  67.2303772 187.3507233  21.0497227
  67.2044296 187.3954620  19.8035851  68.2504272 187.3610992  21.7284241
  65.5309525 184.1406708  21.9644585  66.6664429 184.0846100  22.4062748
  64.5209885 183.4333344  22.5808525  63.6035385 183.6328888  22.2086010
  64.8163223 182.5657654  23.7800522  65.2517929 183.1121674  24.6166496
  63.4467583 182.0220947  24.3711338  62.9170609 181.5622101  23.5368519
  63.6252747 181.3322601  25.1959686  62.5460548 183.1782074  24.8637867
  63.0622520 183.6152496  25.7185593  62.4610062 183.9957733  24.1479321
  61.1491547 182.7030334  25.3397636  60.4658928 183.5405426  25.4805946
  60.7628326 182.1336670  24.4943752  61.2912674 181.9916077  26.5954895
  62.2154274 181.9551544  27.0013161  60.2724342 181.4202576  27.2807446
  59.0453072 181.2471008  26.8351021  58.8435822 181.7822266  26.0026035
  58.4168777 180.6643829  27.3695316  60.5529671 180.8531952  28.3702106
  61.5192795 180.7446136  28.6432476  59.8037910 180.4848938  28.9387188
  65.8041382 181.4931488  23.3650246  66.6219482 181.1513672  24.2081184
  65.6841888 180.8790741  22.1377106  64.8078613 181.0551605  21.6674614
  66.5878677 179.7760468  21.7806797  66.8576126 179.1569061  22.6362438
  65.9425659 178.8631287  20.6592388  65.5834579 179.4886780  19.8420315
  66.9218903 177.8091888  20.1629562  67.2029266 177.2958832  21.0825424
  66.2655334 177.1494904  19.5954266  67.7966919 178.2405396  19.6763802
  64.5984192 178.1812592  21.1936359  63.9351883 178.8694763  21.7176361
  64.0951309 177.7959900  20.3068657  64.8244553 177.3111115  21.8099556
  68.0186539 180.3933258  21.4155025  69.0162354 179.8133545  21.8717194
  68.0911942 181.5710907  20.7602425  67.2656937 182.1031342  20.5244675
  69.3597641 182.2576904  20.5458565  70.0120392 181.6183929  19.9509411
  69.2728958 183.5978851  19.7837143  68.5170441 184.1472473  20.3449478
  70.2001038 184.1330719  19.9885368  68.9888153 183.5450897  18.2648029
  69.7896805 182.9258575  17.8607426  68.0242081 183.0568848  18.1259613
  68.8120880 184.9712830  17.7266197  67.8675079 185.4360046  18.0092716
  69.6362152 185.5932922  18.0759354  68.8080750 184.8701172  16.2140732
  69.4493866 184.0345306  15.9336777  67.8227539 184.6054077  15.8304491
  69.3551178 186.1240082  15.5677834  70.2830200 186.3581543  15.8907022
  69.4663162 185.9581757  14.5777130  68.8139038 186.9614868  15.7284536
  70.1862259 182.4703217  21.8312092  71.3209000 182.0694885  21.9441032
  69.5938110 183.0678558  22.8441448  68.7272186 183.5628052  22.6887798
  70.1903687 183.2547302  24.2031498  71.1208420 183.8078766  24.0752506
  69.1207275 184.1324768  25.0027466  68.8136749 184.9118195  24.3052864
  68.2407990 183.5428162  25.2598896  69.7416000 184.8184509  26.2865276
  70.1264954 184.0450745  26.9512539  70.5709610 185.4756317  26.0250301
  68.6872711 185.7270050  27.0402431  69.1879425 186.3323975  27.7958450
  68.3824768 186.4879456  26.3217850  67.5923157 184.9406586  27.5839920
  67.7529449 183.9800568  27.8514690  66.3952179 185.3515625  27.8904991
  65.9670105 186.6063690  27.7526627  66.5400162 187.3782959  27.4430275
  65.0521469 186.8952332  28.0683784  65.4857178 184.5061951  28.3150749
  65.8203506 183.6224518  28.6716156  64.5931473 184.8648529  28.6229496
  70.6344910 181.9642944  24.8983040  71.5050812 181.9698486  25.7362270
  70.1478806 180.7852325  24.4886227  69.3228912 180.7437744  23.9074326
  70.7424316 179.5018921  24.8652325  71.1953659 179.6275787  25.8486729
  69.5395050 178.5136108  24.9938812  68.8172226 178.8775330  25.7246189
  69.0201416 178.4365845  24.0386677  69.8362274 177.0771942  25.3635521
  68.8990860 176.5344391  25.2399330  70.5146255 176.6652374  24.6164360
  70.3621597 176.9724426  26.7730618  69.6162262 176.7507477  27.6883411
  71.6500931 176.9839172  26.9108486  72.0169525 176.8507996  27.8424034
  72.2185059 176.7590790  26.1068230  71.8272781 179.0471649  23.8709621
  72.9081345 178.6166840  24.2655048  71.6571655 179.1721039  22.5237541
  70.8489075 179.6181488  22.1140270  72.6333618 178.7751617  21.5041199
  72.8563843 177.7595367  21.8310051  72.0786133 178.7308960  20.0543499
  71.8753815 179.7449493  19.7101192  72.8774567 178.2791290  19.4662476
  70.8400421 177.9095154  19.7189789  69.9708099 178.1770935  20.3197689
  70.5091400 178.0902405  18.2377071  71.4672165 177.9303589  17.7431145
  69.7453156 177.4468231  17.8010063  70.2613144 179.1380463  18.0680466
  71.0828476 176.4073334  19.9919624  71.1396027 176.2923431  21.0743980
  70.2336960 175.7898407  19.6991329  71.9935226 176.0440216  19.5157394
  74.0080795 179.5688782  21.6038227  75.0819168 179.0529938  21.2573853
  73.9387360 180.8106079  22.0505085  73.0224991 181.2329865  22.0974960
  75.1376572 181.6226501  22.3180218  75.8484955 181.5281372  21.4971218
  74.8929367 183.0859833  22.6539955  73.9809494 183.1846771  23.2427559
  75.6913681 183.4101410  23.3214817  74.7706070 184.0002441  21.4147663
  75.8094254 184.8516846  20.9363766  75.2797318 185.4783783  19.8570213
  75.8394547 186.1913605  19.2698555  73.9570770 185.1827698  19.7671776
  73.3053360 185.5661926  19.0976124  73.6286774 184.2543182  20.7526283
  72.6865082 183.7684631  20.9592133  75.9984207 181.0429230  23.5719185
  77.2308273 181.1734009  23.5303707  75.3379974 180.4131317  24.4913559
  74.3323059 180.4952393  24.5353851  76.0056458 179.6727753  25.5171165
  76.8191681 180.3323517  25.8191910  75.0869675 179.3682404  26.7420273
  74.1359634 178.9776154  26.3799477  75.5217438 178.5847168  27.3626480
  74.7760162 180.6923676  27.4729195  75.1076965 181.5959320  26.9613762
  73.6890335 180.7424164  27.5367050  75.3729401 180.5977631  28.8955898
  75.9072876 181.6254578  29.3646603  75.2308960 179.5692749  29.5849113
  76.5809021 178.4254608  24.8793907  77.7768021 178.2127991  25.1836224
  75.9313583 177.6693726  24.0033054  75.0248642 177.9606781  23.6663952
  76.4410095 176.5042267  23.2759571  76.9208908 175.9272766  24.0664959
  75.3575897 175.6774597  22.5578709  74.7861481 176.3205872  21.8885765
  75.9287338 174.9588928  21.9700317  74.4307861 174.9034882  23.4547901
  74.6416931 174.7814484  24.7811813  75.4876862 175.1802979  25.3212013
  73.6067047 174.0903015  25.3558025  73.4691391 174.0114746  26.3532791
  72.7538528 173.6188812  24.3806057  71.5828552 172.8065186  24.3854904
  71.2423477 172.3961334  25.3246632  70.8628998 172.5940552  23.1976357
  69.8782730 172.1503448  23.1947231  71.3552856 173.1317902  21.9669571
  70.8440475 172.9642944  21.0304813  72.5102463 173.9018860  21.9976540
  72.8762970 174.2910614  21.0590649  73.1826553 174.2701263  23.1975479
  77.5604477 176.8934326  22.2958984  78.5057297 176.1148987  22.1310978
  77.6368866 178.0959778  21.7144833  76.8206711 178.6742554  21.8541222
  78.6216278 178.5851593  20.7323875  79.5103073 177.9602509  20.8209057
  78.0621567 178.4643097  19.3190479  77.4953232 177.5339355  19.3535328
  77.3735352 179.2776794  19.0902615  79.1452942 178.4294281  18.2237873
  80.2670135 178.9098511  18.4479294  78.8834305 177.8804016  17.1346493
  79.0768585 179.9656372  21.1138706  78.3881607 180.9114838  20.7687016
  80.2039185 180.0678864  21.8753834  80.7369919 179.2303925  22.0611897
  80.7761917 181.3532257  22.4159527  80.0198288 181.8946533  22.9841576
  81.8849716 181.0724640  23.4500046  82.6958008 180.5389252  22.9540272
  82.1692200 182.0720825  23.7787056  81.4117203 180.1987305  24.6335106
  82.0090942 180.5487213  25.4753857  80.3377609 180.3294525  24.7662525
  81.7526627 178.7178345  24.4110641  81.4024582 178.1465454  23.3470402
  82.1871719 178.0173187  25.3665600  81.2878113 182.3430328  21.3392944
  81.6344147 183.4598541  21.6516705  81.4473114 181.9245453  20.0775471
  81.0761642 181.0173950  19.8337307  82.0175552 182.7029266  18.9977932
  82.3188553 183.6507111  19.4439335  83.3740768 182.0990601  18.4752502
  83.3718185 181.0521851  18.7788296  83.4361572 182.2831726  17.4027061
  84.5855789 182.6962738  19.1947517  85.1992874 182.1124268  20.0965939
  85.0485916 183.8132172  18.6585388  85.8807449 184.1743774  19.1026039
  84.5943909 184.3423309  17.9278908  81.0351105 182.9937286  17.7973118
  81.4327011 183.4681244  16.7294750  79.7724686 182.4559784  17.9186935
  79.5889053 181.9826355  18.7918205  78.7434769 182.5046082  16.8472996
  79.2147827 182.1765747  15.9208164  77.6646194 181.4843750  17.1797009
  78.1782303 180.5386505  17.3526859  77.2444305 181.7788239  18.1413879
  76.5266953 181.3101959  16.0939312  77.0332489 181.5292358  15.1539745
  75.8658295 179.9536438  16.2053947  75.3093109 179.9226532  17.1421089
  75.2788391 179.8429260  15.2936449  76.5790176 179.1295471  16.2238445
  75.3820190 182.3628845  16.2723846  75.6836319 183.4063416  16.1811428
  74.7007523 182.2514038  15.4288521  74.7609634 182.3253632  17.1673603
  78.2867966 183.9282837  16.6047745  77.6158218 184.5417023  17.4126053
  78.5508423 184.4706573  15.4263525  79.2419281 184.0356445  14.8319864
  77.9542847 185.6584625  14.8415871  77.6488571 186.3311920  15.6430044
  79.0814133 186.2577362  13.9675636  79.3774033 185.5158997  13.2258348
  78.6376266 187.1069031  13.4478760  80.2793427 186.6763611  14.7805004
  79.9150925 187.3047333  15.5932570  80.8656387 185.8705902  15.2222090
  81.2752914 187.4599609  13.8199587  82.2791901 187.5424652  14.2364607
  81.4632797 186.7900543  12.9809256  80.8836212 188.8690491  13.3474150
  81.6681824 189.3000488  12.7254705  80.0056229 188.9200897  12.7035122
  80.6383667 189.8208313  14.4645939  81.4717941 190.3088531  14.7601061
  79.8713684 190.4584045  14.3054924  80.3391724 189.2501526  15.2423573
  76.6661224 185.3282013  14.1291952  76.6950989 184.3008423  13.4590015
  75.5971375 186.1470184  14.2429008  75.6619034 186.9727325  14.8209133
  74.2251053 185.7942810  13.8704157  73.9287643 184.9832458  14.5356359
  73.2480240 186.9401093  14.2288246  73.6249542 187.9048615  13.8892765
  72.3024979 186.6495209  13.7709494  72.9957123 187.0794220  15.8047237
  73.9079590 186.8382263  16.6187172  71.7935867 187.2584381  16.1519470
  74.0731888 185.4092712  12.3684902  73.2058640 184.5350189  12.0260897
  74.9153900 185.9156342  11.4552174  75.5582275 186.6044006  11.8191690
  74.8116455 185.8188019   9.9522610  73.9353333 186.3321075   9.5564108
  76.0791245 186.5051575   9.4604435  76.9148178 185.8461456   9.6958704
  75.9954453 186.5215607   8.3737822  76.4024658 187.9490356   9.9957094
  76.8361664 187.9542999  10.9956961  77.1859436 188.2525330   9.3013391
  75.1945953 188.9385071   9.8537216  74.4565964 188.8024292   8.8038044
  74.9939880 189.9263916  10.6254978  74.8248291 184.3423615   9.4398527
  74.2493362 184.0156708   8.3982677  75.4310608 183.3832855  10.2185583
  75.8316193 183.6500549  11.1065273  75.3882065 181.8766327   9.9710855
  75.5429077 181.7170868   8.9039803  76.5288620 181.2617950  10.7128897
  76.6713104 180.2126465  10.4538822  77.4539948 181.7921753  10.4871769
  76.3102493 181.3632965  12.1010780  77.1196594 181.1996002  12.5906277
  74.0150604 181.1638336  10.3024559  73.8974991 179.9137115  10.0873137
  72.9795303 181.8297119  10.8466434  73.0370712 182.8209686  11.0315533
  71.6941147 181.2225647  11.2606812  71.7627258 180.1375732  11.1820068
  71.3982773 181.4795532  12.7914839  71.5021973 182.5622101  12.8634052
  70.4037704 181.1259155  13.0635052  72.4339600 180.8500061  13.7525501
  73.4532089 181.1265869  13.4828768  72.2052536 181.2674866  15.3150434
  71.1484375 181.0886383  15.5131483  72.9059143 180.7815247  15.9940252
  72.3195724 182.3478088  15.4041395  72.3735809 179.3007965  13.6982183
  72.6588669 178.8982544  12.7262754  73.1116028 178.8762360  14.3787823
  71.3655777 178.9348145  13.8933630  70.5223160 181.6921692  10.3303881
  70.5103226 182.8220367   9.8983374  69.4960861 180.8559723  10.1525068
  69.5719299 179.4075165  10.3645191  69.2192307 179.1509399  11.3634558
  70.5836868 179.0472717  10.1783142  68.6914062 178.7857971   9.3477049
  68.2649384 177.8240509   9.6327724  69.2650375 178.8030243   8.4210186
  67.5754776 179.8213348   9.1648178  66.8267822 179.6528625   9.9388781
  67.1184692 179.6400299   8.1920013  68.3343887 181.1582336   9.3054314
  68.7215271 181.4480591   8.3285847  67.4266586 182.2754669   9.8161077
  66.9239197 182.3038177  10.9174461  67.1004028 183.2221832   8.8659229
  67.5609818 183.2324219   7.9671106  66.2406769 184.4095154   9.1704865
  66.4572525 184.8085022  10.1614475  66.4983368 185.5337830   8.1557817
  65.6679153 186.2355194   8.2337132  67.7324295 186.3193054   8.5555401
  68.6078720 185.6699371   8.5584478  67.9097137 187.0819702   7.7972503
  67.6287613 186.7557068   9.5489769  66.7177811 185.0717468   6.7983923
  66.7626190 185.8709259   6.2683706  64.7022400 184.0934601   9.1964235
  63.8572693 184.8257599   9.7135582  64.3250427 182.8250427   8.8330841
  65.0987167 182.2150269   8.6108389  62.9806213 182.2598267   8.7018423
  62.3253021 183.1202698   8.8371296  62.8711700 181.5547638   7.3040504
  63.4609642 182.1214905   6.5835862  63.3029861 180.5566864   7.3780270
  61.4878883 181.5650635   6.7589569  60.8088226 182.5683594   6.7817860
  61.0034790 180.4405975   6.2151570  60.1960754 180.6843567   5.6594744
  61.6190071 179.6693726   5.9996576  62.6844482 181.3458862   9.8626804
  63.4629593 180.4060059  10.0911207  61.6416817 181.5454407  10.7154713
  60.5881310 182.5507507  10.5946321  60.2884293 182.6990509   9.5571899
  60.9780273 183.5218811  10.8995752  59.4424362 182.0391998  11.5000772
  58.8271828 181.2983704  10.9894648  58.8605690 182.8411102  11.9544735
  60.2001381 181.3249512  12.6001720  59.5944824 180.6418152  13.1956596
  60.6021118 182.1223755  13.2251825  61.4208755 180.7074280  11.8871050
  62.2507210 180.8360596  12.5820208  61.1410675 179.2607117  11.5446405
  61.6306458 178.4591827  12.3138905  60.5871925 178.9086456  10.3735275
  60.2753677 179.6418762   9.7528419  60.4365273 177.5217590   9.8699856
  59.8166580 176.9816284  10.5856142  59.6559486 177.5122986   8.5296383
  60.1045189 178.2833252   7.9032125  59.7434578 176.2481995   7.6842093
  59.6859093 175.3430328   8.2887487  59.0046272 176.0906982   6.8984499
  60.7417526 176.3349762   7.2552762  58.1712379 178.0116119   8.6891699
  57.4694405 177.3756256   8.1496153  57.9554558 177.9401093   9.7552023
  58.0897903 179.5103149   8.2284060  57.9983559 179.5072327   7.1422529
  57.1765518 179.9497070   8.6296968  58.9346924 180.1189880   8.5505285
  61.8228569 176.8420868   9.8200417  62.1328850 175.9360504  10.6004162
  62.6847000 177.3359985   8.9179850  62.3168907 178.0918732   8.3581095
  64.0803680 176.9814606   8.8359632  64.1140747 175.9696808   8.4319353
  64.7612305 177.8888092   7.7599530  64.8343124 178.8514252   8.2660666
  65.7958298 177.5877533   7.5954208  64.0541458 178.1416473   6.3723330
  62.7977219 178.2836304   6.3165689  64.8296051 178.2291412   5.3302541
  64.9836884 176.9223022  10.0750170  65.7901688 175.9432068  10.1904154
  64.8174515 177.8556213  11.0079508  64.3057556 178.6675720  10.6932640
  65.5316315 177.9468994  12.2297907  66.6038055 177.7985077  12.1012173
  65.3274994 179.3202820  12.8682604  65.6202621 180.0254059  12.0903177
  64.2512741 179.4070587  13.0176611  65.9645767 179.5997620  14.2681198
  65.2621689 179.1500854  15.4348259  64.3114319 178.6409454  15.3775320
  65.8395233 179.3084717  16.6820335  65.3950195 178.9543152  17.6003952
  67.0782928 179.9281158  16.7869434  67.6151352 180.0110931  17.7203903
  67.7861710 180.3443604  15.6064758  68.7912903 180.7102051  15.7558002
  67.2633438 180.0898438  14.3659153  67.8970490 180.1086121  13.4915762
  65.1683731 176.8146057  13.1714392  65.9762344 176.0357819  13.6865950
  63.8284225 176.7415466  13.3985567  63.1590881 177.4316864  13.0890522
  63.2961349 175.7155151  14.3496647  63.8197479 175.7534943  15.3049049
  61.8200951 175.8959961  14.6931381  61.5479126 175.2497253  15.5276136
  61.5174904 176.9300232  14.8584242  61.1677017 175.5331879  13.4610691
  61.2605934 176.1860809  12.7634325  63.6056709 174.3240204  13.8762083
  63.9460373 173.4973297  14.7036114  63.5758209 174.0821381  12.5303278
  63.1375389 174.7303619  11.8917170  64.0623322 172.8135681  11.9348001
  63.4638596 172.0318451  12.4026051  63.7112083 172.6932526  10.4523659
  64.0490570 173.6216278   9.9918222  64.4112854 171.9728241  10.0293102
  62.3342247 172.3068237  10.0177879  61.6927299 171.1766357  10.5761147
  62.2494583 170.5777893  11.2816868  60.4784279 170.6969299   9.9972095
  59.9556541 169.8170166  10.3419676  59.9681549 171.3698273   8.9135294
  58.8424988 170.9316254   8.2879429  58.7879639 171.1766052   7.3613281
  60.5534286 172.5437012   8.4336605  60.1002617 173.0267029   7.5805712
  61.7027283 173.0441284   8.9984465  62.2449341 173.8823395   8.5863400
  65.5076065 172.5124664  12.2836075  65.7850266 171.3570557  12.6456060
  66.4831161 173.4401245  12.1659594  66.1952133 174.3186340  11.7592201
  67.9024200 173.2732849  12.5470829  68.2986603 172.4080658  12.0155783
  68.7220535 174.5574188  12.2377243  68.4299011 174.9553223  11.2659101
  68.4916534 175.2677460  13.0317488  70.2336578 174.2608643  12.3565216
  70.7947540 175.1925201  12.4292774  70.5114059 173.6884308  13.2415504
  70.8157578 173.7277985  10.9867897  71.8996582 173.6419525  11.0634727
  70.3834076 172.7357635  10.8562546  70.4486542 174.6037292   9.8639746
  69.6332092 174.3009796   9.3506670  71.1986694 175.5175934   9.2898092
  72.3273239 176.0424042   9.8251076  72.5838852 175.7249756  10.7489681
  72.8147430 176.7813873   9.3388796  70.8942413 176.0140381   8.1199102
  70.0724411 175.6751556   7.6404257  71.5116806 176.7129211   7.7320719
  67.9625320 172.8047791  14.0655479  68.6253815 171.8092499  14.3249626
  67.1881866 173.4490204  14.8774328  66.5478592 174.1081848  14.4584007
  67.1959229 173.1596527  16.3365707  68.2352142 173.1102142  16.6614227
  66.5141602 174.2259216  17.1669865  65.5506516 174.3788452  16.6808071
  66.4476547 173.8985291  18.6948776  67.3765717 173.9932556  19.2572384
  65.7997360 174.6876984  19.0763512  66.0748291 172.9114838  18.9684200
  67.2285233 175.5757446  17.0129566  67.3176880 175.8142395  15.9531059
  66.7370605 176.3764038  17.5656853  68.2725525 175.5712738  17.3261528
  66.5712280 171.7903442  16.6060982  67.1299820 170.9386139  17.3418636
  65.3826218 171.3858185  15.9789629  64.8801727 172.0932465  15.4620743
  64.8323059 170.0503845  16.1905098  64.6116791 169.7884369  17.2253132
  63.5341263 170.0919342  15.4278708  63.7919464 170.3206940  14.3937950
  63.0514908 169.1152649  15.4633827  62.9159355 170.9106445  15.7962084
  65.7522202 168.9001312  15.7054110  65.8689651 167.8974304  16.4231472
  66.5502548 169.0995636  14.6454973  66.4235764 169.9512482  14.1175756
  67.6479950 168.2490845  14.2203426  67.1487961 167.3043213  14.0051298
  68.1474304 168.8171082  12.9050446  68.6794128 169.7585449  13.0422192
  68.8806229 168.0696259  12.6020784  67.4001694 168.9056396  12.1164618
  68.7559280 168.1508026  15.2797318  69.1198807 166.9859619  15.5901976
  69.3054886 169.2426758  15.8539553  68.9137421 170.1563263  15.6754627
  70.5281754 169.2286377  16.6483517  71.1721420 168.4180145  16.3073177
  71.3495789 170.4842987  16.4447689  72.3604660 170.4171600  16.8468914
  71.3815002 170.7321472  15.3837967  70.4887390 171.8441925  17.2036552
  70.7964630 172.7719879  16.2929382  70.3258438 168.9548340  18.1629562
  71.3041992 169.0516510  18.9372158  69.0387421 168.7371216  18.5827713
  68.3013687 168.8791351  17.9073372  68.6410675 168.6155243  19.9208908
  69.2605438 169.3282318  20.4653282  67.1930008 168.9842987  20.1213894
  66.6814117 168.8791656  19.1646652  66.7328339 168.2800293  20.8144722
  66.9816437 170.4152985  20.6205521  67.4793396 171.1992493  20.0497475
  65.4555283 170.6317596  20.7061386  65.0734634 169.9995422  21.5076466
  65.3379059 171.6639709  21.0360279  64.9808502 170.4256287  19.7468204
  67.5556335 170.5501251  22.0269146  68.6067276 170.8124542  21.9065933
  67.0856934 171.3966370  22.5276051  67.4567871 169.6808319  22.6770267
  68.8427582 167.1178589  20.4598026  68.3404083 166.2427979  19.7846527
  69.5305481 166.8856964  21.5816994  70.4116440 167.8553772  22.2079906
  69.8548813 168.7495575  22.4882488  71.1820602 168.1167145  21.4825497
  70.9531097 167.1546631  23.3995800  70.2795563 167.3459473  24.2349472
  71.9043198 167.6208801  23.6563702  71.0339890 165.6667480  23.0484104
  70.9807358 165.0850372  23.9686737  71.9676743 165.4433289  22.5322571
  69.7792282 165.5279999  22.1408463  70.1083679 164.8507385  21.3527527
  68.5511703 164.9811707  22.8363400  68.1783752 165.5172119  23.8927174
  67.9176483 163.9407196  22.3302612  68.2299500 163.5248260  21.4644661
  66.6996613 163.3381042  22.9242649  66.8918991 163.3172302  23.9969769
  65.3650360 164.1831512  22.7069111  64.7572327 163.5688782  22.0425758
  64.5704041 164.2340240  24.0428562  65.1905594 164.3620453  24.9300499
  63.7467690 164.9375916  23.9215393  64.0975418 163.2716217  24.2386112
  65.5411453 165.6268158  22.1007462  65.9802475 166.2906799  22.8454437
  66.1951447 165.4623260  21.2444019  64.2305984 166.2860870  21.6250801
  63.7811165 166.6889343  22.5327034  64.4298630 167.0713501  20.8958683
  63.5956688 165.5352020  21.1548290  66.4406738 161.9763489  22.4853745
  66.9826431 161.5473785  21.4522800  65.6185532 161.1832581  23.2197113
  65.1795883 161.4867249  24.0772209  65.1676712 159.8455200  22.7538815
  65.9969254 159.2611542  22.3551903  64.5828094 159.1075745  24.0068550
  64.3576889 158.0664368  23.7756348  65.2902679 159.0290222  24.8323460
  63.2681007 159.7843781  24.5004120  63.4301071 160.7671204  25.2505722
  62.2106018 159.2444305  24.0728989  64.0726547 159.9094543  21.6694660
  63.3629112 160.9142456  21.4833603  63.9647636 158.8224182  20.9312477
  64.4823914 158.0246887  21.2715321  63.3688469 158.7156982  19.6081390
  63.8073196 159.4956512  18.9856434  63.4221077 157.3784027  18.8395367
  63.0662308 156.6061096  19.5214424  62.7759590 157.4258270  17.9629860
  64.8137131 156.9424896  18.4210224  65.7905121 157.7342072  18.4811707
  64.9924850 155.7326660  18.0390358  61.8649788 159.0560913  19.7392139
  61.3865318 159.7690125  18.8949623  61.2029572 158.6795807  20.8205681
  61.7066040 158.3404846  21.6276989  59.7304726 158.8597107  20.9712772
  59.3169441 158.3889160  20.0793972  59.2139854 157.9756165  22.1782513
  59.6223526 158.2123413  23.1607494  58.1581650 158.2038269  22.3240719
  59.2714729 156.9153748  21.9319229  59.3614998 160.3488312  21.0128517
  58.3871765 160.8168030  20.3823357  60.1384048 161.1737823  21.6719761
  60.8880730 160.7865143  22.2270622  60.0519104 162.6257477  21.7917747
  59.0295448 162.9214783  22.0271664  60.8476944 162.9852905  23.0635090
  60.4488907 162.2920685  23.8041077  61.8876190 162.7007904  22.9031372
  60.7554893 164.4718628  23.5354710  61.5480728 164.9656372  22.9732494
  59.4361877 165.1931152  23.3497429  58.6734924 164.6902313  23.9442978
  59.4359589 166.2435760  23.6406631  59.1938171 165.1184235  22.2896595
  61.0752106 164.5743713  25.0292263  62.0630074 164.1632080  25.2373352
  61.0929604 165.6333160  25.2869492  60.3270531 164.0163727  25.5922604
  60.4581718 163.2700043  20.4984665  59.7894135 164.2695007  20.1313972
  61.5280533 162.7821198  19.8266506  61.8542290 161.8820648  20.1485443
  61.9145050 163.2587280  18.4504566  61.9981041 164.3442383  18.3975163
  63.3072205 162.6678467  18.0421810  63.2629776 161.6533203  18.4382744
  63.4839859 162.5878296  16.9695892  64.4047318 163.5259247  18.6662407
  64.3376389 164.5475922  18.2923622  64.1209412 163.5676270  19.7178230
  65.8250961 162.9599304  18.6408730  66.5665283 163.5685577  19.1585026
  65.8658066 162.0945587  19.3023548  66.5015182 162.7572632  17.3136940
  66.3064423 161.8865814  16.8404369  67.3276520 163.6121063  16.6324596
  67.5690460 164.8043823  17.0676632  67.1449203 165.0994263  17.9355164
  68.1404190 165.4451752  16.5356636  67.9158554 163.3482819  15.4946327
  67.8346405 162.4381409  15.0643435  68.6733932 163.9320374  15.1698570
  60.7829361 162.8433228  17.4227982  60.6735687 163.6409149  16.5176640
  59.8600426 161.8567047  17.6198788  60.1146584 161.1382294  18.2825050
  58.6028900 161.7419586  16.8432980  58.8046379 161.8396912  15.7765999
  58.1081276 160.2977295  17.0648327  57.9155960 160.2115631  18.1342316
  56.7814445 160.1877289  16.3006287  56.8420563 160.4774780  15.2515936
  56.4062004 159.1646423  16.2766247  55.9681206 160.7311249  16.7816010
  59.0326271 159.2264099  16.4609184  58.9035149 159.2126923  15.3786793
  60.0876122 159.3337402  16.7130928  58.5875359 157.8292236  16.9996815
  57.7168350 157.4026489  16.5016613  59.2986183 157.1332550  16.5545959
  58.6050797 157.7455139  18.0863247  57.6590080 162.8601837  17.2636223
  57.0929680 163.5781097  16.3887234  57.4734039 163.0986633  18.5765266
  57.9800491 162.5292206  19.2392063  56.5352974 164.0751953  19.0913677
  55.5763245 163.7392426  18.6968975  56.4106712 164.0592651  20.6534710
  57.3351822 164.4196472  21.1045837  55.6602020 164.8214569  20.8631458
  55.9812164 162.7754364  21.3732224  56.8067474 162.0646667  21.3357391
  55.9444695 162.9382629  22.4503708  54.7129478 161.9648895  20.9408092
  53.7775116 162.4115601  20.2474689  54.5514755 160.7479401  21.4150181
  53.7646599 160.2191162  21.0666618  55.1998329 160.3835449  22.0983543
  56.8958015 165.5651093  18.6549950  56.0739899 166.4180756  18.3308773
  58.2297134 165.7437744  18.4486256  58.9016266 165.2163849  18.9876099
  58.7742958 166.9150238  17.7569294  58.3147621 167.7563477  18.2756863
  60.2226562 167.0609131  18.0528374  60.3743095 166.8309937  19.1074657
  60.8522568 166.4416351  17.4139309  60.8282890 168.5264587  17.8575802
  60.7028961 168.7667694  16.8018227  60.0601959 169.4911346  18.7224789
  60.2531815 169.2844849  19.7751694  60.4777069 170.4843597  18.5573578
  59.0193443 169.6328583  18.4315510  62.2930527 168.6051483  18.1975422
  62.9356956 167.9255524  17.6378536  62.6131477 169.6328278  18.0257301
  62.3959885 168.4686432  19.2740498  58.4472961 166.8892059  16.2441120
  57.9474602 167.8182526  15.7249737  58.8032341 165.8217773  15.5216570
  59.2519417 165.0974579  16.0639858  58.6929359 165.7182159  14.0634079
  59.2839928 166.5094604  13.6022377  59.2294655 164.3276367  13.5838089
  60.2233047 164.0331879  13.9209671  58.6959763 163.6106262  14.2078123
  58.9527130 163.8384094  12.1282368  57.9000854 163.9624481  11.8738937
  59.8069534 164.7008820  11.2038651  60.8335114 164.3520508  11.0916376
  59.5017967 164.4786682  10.1813202  59.7326698 165.7675781  11.4153605
  59.1633835 162.3882599  11.8487215  58.5801659 161.7805023  12.5405235
  58.8339043 162.2848358  10.8148689  60.1986389 162.0617981  11.9475460
  57.2029572 165.8610382  13.6419277  56.9255981 166.2764893  12.5223513
  56.3046112 165.4440308  14.5125341  56.5929527 165.0781250  15.4086771
  54.8165245 165.5130310  14.3523874  54.5544510 165.1256561  13.3678293
  54.1473618 164.6884003  15.4891529  54.8450966 164.2186890  16.1824341
  53.5811272 165.3431396  16.1515751  53.1922379 163.5923004  14.9770164
  52.2946243 164.0311127  14.5413170  53.6070976 162.9133911  14.2319841
  52.7334557 162.7849731  16.2298183  53.5934868 162.2722473  16.6605892
  52.4085503 163.4673767  17.0152264  51.6284409 161.8720398  15.7124243
  50.8670197 162.4597321  15.1996346  52.1161423 161.1604309  15.0461903
  50.9802933 161.2356415  16.8618507  50.7758064 161.9566956  17.5388832
  50.1416473 160.7821503  16.5285072  51.5805054 160.6255188  17.3981323
  54.1832161 166.9330597  14.3341227  53.0412674 167.0371857  13.8426027
  54.8741341 167.9016266  14.9317884  55.7617531 167.7087250  15.3734083
  54.4185982 169.2651825  15.0492716  53.6907654 169.3163757  15.8590498
  55.6199265 170.1498108  15.5610332  56.4560509 169.9531708  14.8899698
  55.3140717 171.6646881  15.3977566  54.2903633 171.9661102  15.6197214
  55.9352531 172.1552124  16.1471748  55.7086754 172.0523376  14.4585400
  56.0643234 169.7995453  17.0248146  56.3230705 168.7419739  17.0766716
  56.9783287 170.3546753  17.2358589  54.9859352 170.1416779  18.0480022
  54.2233734 169.3631439  18.0698395  55.5120201 170.1720428  19.0021591
  54.5737190 171.1254272  17.8234730  53.8226318 169.8176727  13.7178564
  54.3204575 169.6057892  12.6379776  52.7757874 170.6731110  13.8110819
  52.3924980 170.8406372  14.7303877  52.1970825 171.3524475  12.7208414
  52.1964188 170.6686401  11.8720179  51.1498833 171.5641174  12.9368916
  52.9551620 172.5935516  12.4357643  53.3324432 172.7504425  11.2811651
  53.2282295 173.4924927  13.3963509  52.9079933 173.2496490  14.3229456
  53.8573494 174.7974091  13.0516539  54.0792618 174.7978210  11.9844818
  52.8409805 175.8846741  13.5100546  51.8916512 175.7747498  12.9858484
  52.6479721 175.7052765  14.5677223  53.4065399 177.2054901  13.3345938
  53.2800560 177.4197235  12.4073906  55.2004814 175.0729065  13.7470369
  55.3278122 174.6052246  14.8775549  56.0589256 176.0246277  13.2052851
  55.9479446 176.2577972  12.2288532  57.3315926 176.3789520  13.8575974
  57.9400520 175.4869690  14.0067616  58.0978317 177.3030701  12.9356527
  57.4020920 178.1105957  12.7077456  58.9133949 177.8208618  13.4404888
  58.3393631 176.7633362  12.0199823  57.1014938 177.0416718  15.2404995
  57.8633270 176.8113861  16.1568432  56.0818901 177.8164673  15.3482943
  55.4677620 177.8937683  14.5501871  55.5827484 178.3787079  16.6230965
  56.2523232 179.1440582  17.0155296  54.2053146 179.1102905  16.3859558
  53.5959625 178.4103088  15.8142691  53.5624619 179.3828735  17.8193455
  54.1659164 179.9830933  18.5002747  52.5997314 179.8868408  17.7341385
  53.4102707 178.4487152  18.3600082  54.4997253 180.4512787  15.7384510
  55.0127220 181.1062164  16.4427261  55.1511803 180.2377777  14.8910313
  53.2300301 181.1412048  15.2146997  52.6074791 181.4868927  16.0399532
  53.4920883 182.0548096  14.6810646  52.7112923 180.4604950  14.5396862
  55.5218582 177.3226471  17.7069836  56.2479057 177.3986664  18.6957455
  54.7253380 176.2515869  17.4816208  54.2361183 176.1404724  16.6050262
  54.7496376 175.1059875  18.3956108  54.6166992 175.4035950  19.4357357
  53.7301636 174.0988922  17.9843578  54.0477905 173.6139221  17.0613060
  53.8323593 173.2983093  18.7169762  52.2533684 174.4659882  17.8970413
  51.8782921 174.3725281  18.9162006  52.1827927 175.5364532  17.7041435
  51.4950027 173.7802429  16.7802811  51.8793678 172.8609161  16.0718060
  50.1789856 174.0865631  16.7226830  49.6791191 173.5743408  16.0100384
  49.8141632 174.9298553  17.1420650  56.0802765 174.3913116  18.4313507
  56.4815331 173.9493103  19.5051727  56.8403091 174.2966461  17.3251324
  56.3712006 174.5618896  16.4709148  58.0911293 173.4993439  17.4206371
  57.9381218 172.5220947  17.8785496  58.6769943 173.2222748  16.0222473
  57.8171463 172.8554535  15.4617100  59.0499535 174.1531067  15.5949802
  59.7434731 172.0927582  16.0383205  60.6721954 172.5776062  16.3391514
  59.4410095 171.3359070  16.7620564  60.0088997 171.4303284  14.7140656
  60.9583321 170.9027252  14.8052835  59.2627411 170.7146759  14.3688192
  60.2680321 172.4489288  13.6345587  61.1037064 173.0161438  13.6380119
  59.4315758 172.7640381  12.6701860  58.3153763 172.0719452  12.3787003
  58.0897560 171.1634521  12.7579670  57.7851982 172.4786072  11.6213074
  59.6361771 173.7766724  11.8736944  60.4855766 174.3197021  11.9349155
  58.9869461 174.0431976  11.1473570  59.0408020 174.1303864  18.3751049
  59.6290359 173.4769135  19.2905102  59.1117935 175.4574890  18.3463974
  58.5343018 175.9677582  17.6935310  59.8856392 176.2971344  19.2271671
  60.8650131 175.8466949  19.3884964  59.8829117 177.7087402  18.7003288
  58.8790855 177.8249664  18.2917614  59.9995422 178.4712982  19.4704018
  60.9422836 177.8265533  17.5687351  61.0949326 176.9096527  16.9994583
  60.4485245 178.9556885  16.5734291  60.1354332 179.8362274  17.1344242
  61.2957535 179.2315216  15.9455671  59.6003304 178.6997223  15.9384909
  62.2565117 178.3292389  18.1729183  62.5243340 177.5671082  18.9047203
  62.9901466 178.3825684  17.3685341  62.1289558 179.3424072  18.5540943
  59.4072227 176.2824707  20.6497059  60.2406502 176.2150726  21.5398979
  58.0870972 176.2877197  20.9097385  57.5068741 176.2781067  20.0830879
  57.6052170 176.0319061  22.2942772  58.0001831 176.7887115  22.9720287
  56.0543709 176.1666107  22.2208920  55.6077538 175.5339203  21.4538555
  55.7082634 175.8507538  23.2050400  55.6670914 177.6722870  22.1064091
  55.9659157 178.1660461  23.0310764  56.2201843 178.2102051  21.3364506
  54.1273994 177.9212036  21.9111347  53.9230194 178.9913788  21.8785534
  53.8339729 177.5728912  20.9208412  53.3721581 177.1926117  23.0432930
  52.9707108 176.3159637  22.7425556  53.2044945 177.5140839  24.2917747
  53.5205994 178.6783600  24.7480793  53.9028091 179.3571014  24.1051712
  53.1784935 178.9485168  25.6591663  52.6943092 176.6259918  25.0938759
  52.6115036 175.6871338  24.7308598  52.5089073 176.8415833  26.0630264
  58.0928154 174.7084961  22.8355980  58.6416435 174.6320038  23.9138546
  57.9471512 173.6511383  22.0729713  57.3899994 173.7222290  21.2335472
  58.2781105 172.3422089  22.5649490  57.7805138 172.1537781  23.5162659
  57.8469772 171.2677002  21.5051918  56.8171654 171.4096222  21.1773911
  58.5216560 171.4313965  20.6648884  58.1860962 169.6286316  22.1340637
  57.4818115 168.8950043  21.2676468  59.7811890 172.1829224  22.8477325
  60.2026787 171.5511017  23.8549633  60.5452957 172.7445526  21.9203434
  60.1273308 173.2141266  21.1298313  61.9710922 172.8788452  22.1242676
  62.4087982 171.8810577  22.0937977  62.6138039 173.6773987  21.0221691
  62.0955429 174.6269531  20.8885078  63.6257515 173.9496307  21.3220882
  62.6431694 172.9731293  19.6463909  63.3642921 172.1603394  19.7328415
  61.7191582 172.4187164  19.4823017  62.8707886 173.9463043  18.4507675
  63.2881203 175.1031189  18.6190281  62.5073776 173.4632263  17.3150043
  62.3334007 173.4986267  23.4652710  63.2755547 173.0317383  24.1199379
  61.6348839 174.6086578  23.8557930  60.8791428 174.9464111  23.2771015
  61.8800201 175.2667389  25.1417313  62.9544983 175.4361725  25.2116890
  61.2593422 176.6654358  25.1438370  60.2006607 176.6265564  24.8873577
  61.2354012 177.1342316  26.1275806  61.8754120 177.6662598  24.1242580
  62.0680580 177.1966858  23.1596432  60.9477081 178.8299255  23.8731136
  60.7366600 179.3686981  24.7968559  61.4866104 179.4814453  23.1852036
  60.0151939 178.5948181  23.3600426  63.2402344 178.1660156  24.5109730
  63.9299965 177.3439636  24.7021809  63.7684593 178.8668976  23.8645763
  63.0298538 178.7926788  25.3776512  61.4585953 174.5322113  26.3849602
  62.1268730 174.5917053  27.4120808  60.3844147 173.7269897  26.2650528
  59.9752045 173.6774750  25.3429928  59.8842850 172.7207794  27.1975822
  59.7512131 173.2383118  28.1476078  58.4985008 172.2097321  26.6312542
  57.8605232 173.0671997  26.4172268  58.5476646 171.6475372  25.6987152
  57.6536560 171.3989258  27.6133041  58.1521797 171.1446838  28.7159195
  56.4480515 171.1341095  27.3270741  60.9418221 171.6119385  27.5086193
  61.1737938 171.3644104  28.6796341  61.6404381 171.1415100  26.4558182
  61.2458916 171.4507904  25.5790195  62.7966118 170.2492371  26.4732723
  62.4632378 169.4836884  27.1739292  63.0991821 169.5650635  25.0812550
  63.3188362 170.3407593  24.3476772  64.3496170 168.7018890  25.2372208
  64.1728973 167.9417419  25.9981804  64.4085922 168.0888062  24.3379040
  65.2575150 169.2876740  25.3809471  62.0081253 168.5453644  24.5551701
  62.2779350 167.5026093  24.7223701  61.0026436 168.7008972  24.9462147
  61.9318886 168.7456818  23.0014076  62.8822746 168.8128815  22.4719353
  61.3768425 167.9587250  22.4907990  61.3717117 169.6451263  22.7458363
  63.9363251 171.0348969  27.1148815  64.4842377 170.6104889  28.1334972
  64.3835449 172.1750793  26.5656109  63.8926239 172.4515686  25.7273712
  65.5814896 172.9266815  27.0138245  66.4602203 172.2850342  26.9488297
  65.8315887 174.1450195  26.0629272  65.0086517 174.8515625  25.9548893
  66.6877975 174.7345428  26.3907528  66.3109512 173.6580963  24.7018814
  67.1710663 173.0111084  24.8742752  65.5182190 172.9838257  24.3777752
  66.4822617 175.0293732  23.5031109  67.3144989 174.3093109  22.1522865
  66.7242813 173.4449310  21.8480186  67.6435699 175.0649261  21.4389496
  68.2272110 173.8612213  22.5450573  65.4166183 173.3417816  28.4453011
  66.4606934 173.3914185  29.0448532  64.2494125 173.6217651  28.9631271
  63.4109306 173.7733765  28.4208546  64.1513748 174.0123444  30.3905029
  64.8480301 174.8246460  30.5977478  62.7230492 174.5952911  30.6303940
  61.9902649 173.8882446  30.2415199  62.6277504 174.7422943  31.7062225
  62.4915619 176.0053711  29.9985676  63.4018517 176.6654510  29.4873657
  61.2449684 176.4964600  30.0663891  61.0527649 177.4411926  29.7653465
  60.5723724 175.9128418  30.5429573  64.4397964 172.8500214  31.3659878
  65.0248795 172.9433289  32.4651909  63.9380989 171.6629944  30.9620266
  63.4940109 171.6722107  30.0549412  63.8398666 170.4280853  31.7764912
  63.9102859 170.6680145  32.8374214  62.4603310 169.8181915  31.5145493
  62.3938751 169.8226166  30.4265842  62.4343491 168.7802124  31.8462582
  61.3207169 170.6670380  32.1935310  61.4173126 170.4598846  33.2592964
  61.4374123 171.7444458  32.0765533  59.9341240 170.2342224  31.7083931
  59.9647675 169.8920441  30.6739521  59.6559296 169.3902130  32.3395348
  58.8534431 171.3482056  31.8675137  58.7639580 171.6172028  32.9200058
  59.1610794 172.2364044  31.3156376  57.5167351 170.8893738  31.3806591
  57.1462936 170.0622101  31.8263702  56.8395271 171.5963135  31.6291122
  57.5567894 170.8654327  30.3717384  64.9657211 169.4183197  31.5031757
  65.0686798 168.3815765  32.2455254  65.7718430 169.6155396  30.4524651
  65.6102066 170.3763123  29.8080997  66.9633560 168.9419250  30.1596375
  66.8736572 167.8598633  30.2554646  67.4192123 169.4699097  28.7872524
  66.5796661 169.4906616  28.0923939  67.7293472 170.5061646  28.9217339
  68.7943344 168.6228333  28.0307808  68.4057770 167.3453217  27.9871769
  68.0644302 169.2391205  31.2822952  68.3810654 170.3948975  31.5748940
  68.7114944 168.1917725  31.7906628  68.5653381 167.2634430  31.4205818
  69.7273026 168.3871765  32.8660736  70.1990738 169.3510590  32.6751595
  69.1322098 168.4395142  34.3040657  69.9880219 168.6194000  34.9546967
  68.1718597 169.6309204  34.6302452  67.2032928 169.3083496  34.2482338
  68.2087631 169.7746735  35.7100945  68.5683517 170.5369568  34.1720085
  68.4749374 167.2500763  34.5996895  67.7771378 167.1167145  33.9540215
  70.9207611 167.4331055  32.7510338  71.7997971 167.5883636  31.9274101
  70.9033508 166.3192749  33.5125389  70.1703186 166.2380676  34.2025871
  71.6773987 165.1251526  33.3444595  72.7258987 165.3878479  33.4849777
  71.4064713 164.1421661  34.4732704  71.6445618 164.6216736  35.4227409
  70.3566055 163.8590546  34.3975945  72.2772217 162.9885864  34.4813919
  71.9124527 162.4349518  35.1756706  71.4366150 164.4259033  31.9388981
  70.2778702 164.2215118  31.4744759  72.4666138 163.8626099  31.3535404
  73.3912659 163.9836884  31.7414207  72.3342743 162.8052368  30.2841759
  71.2615433 162.6180878  30.2359810  72.6797028 163.3852997  28.8664856
  73.7683334 163.4253693  28.9037533  72.5505219 162.6408844  28.0808239
  72.0308685 164.7330627  28.3519306  71.9905472 165.4795227  29.1452065
  72.6902008 165.4225159  27.1719341  72.9507065 164.7364349  26.3659973
  72.1302414 166.2501068  26.7364655  73.6618347 165.7171021  27.5684872
  70.6177521 164.3680878  27.9108772  70.0800171 163.7874146  28.6603794
  70.0154037 165.2134857  27.5783272  70.7608109 163.6712799  27.0849876
  73.1236038 161.4987640  30.6328182  74.3512268 161.3797302  30.9087467
  72.4053345 160.3507233  30.5760326  71.4358292 160.4627686  30.3160210
  72.8706512 159.0502777  31.1473961  73.8700333 159.0758209  31.5817833
  71.8678513 158.6322784  32.2046852  70.9536057 158.4149017  31.6524239
  72.0799103 157.6343842  32.5885201  71.7229691 159.8279572  33.5570374
  70.8596039 159.2220154  34.3769836  72.9381027 157.9274597  30.0197620
  72.4119034 158.0535736  28.9240093  73.6643372 156.8334503  30.3345051
  74.1236649 156.7584229  31.2308788  73.6290436 155.6253510  29.4897861
  73.8031387 155.9178619  28.4543018  74.8037262 154.7030029  29.8328037
  75.6797714 155.2121582  29.4310646  74.8198166 154.5603790  30.9133129
  74.7479553 153.0088348  29.0522633  73.7392426 152.5036011  29.7679043
  72.2486420 155.0207825  29.6075306  71.8316422 154.7489777  30.7393608
  71.6525574 154.6243591  28.4759426  72.1652832 154.8436127  27.6338387
  70.2161560 154.1618652  28.4295521  69.5428772 154.8502045  28.9404297
  69.7488556 154.0408478  26.9709969  70.0150452 154.9254608  26.3924580
  70.2698059 153.2225647  26.4738617  68.2383957 153.8107147  26.8059921
  68.1059647 152.8056335  27.2064552  67.7329788 154.5071564  27.4750481
  67.8182983 153.8361664  25.3635693  68.5512924 153.2295380  24.8317547
  66.8200302 153.4048157  25.2895031  67.9710693 155.2684784  24.8527679
  67.3355408 155.8561401  25.5152225  69.0084839 155.6015472  24.8833733
  67.3922043 155.4370117  23.4323978  66.4462509 155.1023102  23.3172760
  67.3703613 156.3866119  23.0890560  67.9457703 154.9933167  22.7135105
  70.1020432 152.7975769  29.1508884  69.1248703 152.5931549  29.9249153
  71.0197830 151.8437500  28.9197979  71.8358383 152.1203918  28.3928967
  70.8847046 150.5185089  29.5452843  69.9474335 150.0820160  29.2001896
  72.0063553 149.6412201  28.9081402  71.8956909 149.7288055  27.8273144
  72.9709625 150.0270233  29.2379799  72.0143738 148.1276855  29.2516975
  72.3877869 148.0843964  30.2748299  71.0296783 147.6603241  29.2585545
  72.7924652 147.2736053  28.2560711  73.4511261 147.7863770  27.2776775
  72.8803177 145.9869385  28.3988705  73.3449249 145.5139923  27.6369267
  72.5556641 145.4528198  29.1922359  70.8364716 150.5405731  31.1033001
  70.2442093 149.6578064  31.7072048  71.5353851 151.4877014  31.7966442
  72.2089539 152.0120697  31.2567940  71.4430771 151.7827911  33.2317276
  71.2846909 150.8934174  33.8416672  72.7556305 152.4248199  33.6470909
  72.7966461 153.4573975  33.3003731  72.8061523 152.4215240  34.7359161
  74.2291565 151.4472046  33.2160378  75.0688400 152.1081543  34.0179024
  70.2203217 152.6806946  33.5767708  69.7028046 152.6523590  34.6986771
  69.7728500 153.4583435  32.5773849  70.1760406 153.2183990  31.6829720
  69.0039902 154.7595215  32.7587051  68.9186554 155.1905212  31.7611790
  67.5360031 154.3541718  33.1137276  67.6364899 153.7925720  34.0424957
  66.9240265 155.2401123  33.2831154  66.8788910 153.3757172  32.0893250
  67.0928040 153.6430054  31.0544834  67.2554016 152.4087372  32.4229279
  65.3774719 153.3385162  32.2531509  64.7323456 154.2940063  32.7217445
  64.7036362 152.3619537  31.7750549  63.7076721 152.5229187  31.8224792
  65.1123810 151.5062408  31.4274902  69.5648575 155.7843170  33.7641029
  69.3045654 156.9763794  33.5342560  70.2698212 155.3899231  34.7980080
  70.2037964 154.4090118  35.0293846  70.6086197 156.2441406  35.9531174
  69.8912277 157.0645142  35.9738960  70.2825165 155.4646301  37.2615776
  70.4391022 156.1410828  38.1018219  69.2368851 155.1628723  37.3223000
  71.2466354 154.3025513  37.6306381  72.2116470 154.0021210  36.9115105
  70.9814377 153.5854340  38.6119270  72.0569458 156.7786713  36.0544548
  72.3483582 157.6691437  36.8299713  72.9865952 156.2278137  35.2617073
  72.6792603 155.5432892  34.5856400  74.4043350 156.5487366  35.3420067
  74.6322479 156.7860718  36.3811531  75.2785263 155.3777161  34.9477272
  75.0329666 155.1547394  33.9094200  76.7597198 155.6235962  35.2009964
  77.0345688 155.7434387  36.2489471  77.1520844 154.6940155  34.7886353
  77.2012100 156.4518585  34.6467781  75.0812225 154.2060699  35.7128181
  74.2288589 154.2540588  36.1518860  74.7242966 157.7510529  34.3901443
  74.8899078 157.6022186  33.1961327  74.8721466 158.9566498  34.9808807
  74.4940491 159.0019684  35.9163437  75.2777252 160.1620636  34.2998886
  74.5290604 160.3994446  33.5440750  75.5014572 161.2235870  35.3762894
  74.5833664 161.4557343  35.9160347  76.2954025 160.8712616  36.0347786
  75.9878082 162.6499939  34.8740997  76.9161377 162.6038513  34.3047333
  75.2662964 163.0831299  34.1813469  76.3266678 163.6290588  36.0656586
  76.5961609 163.1688232  37.1706161  76.3875885 164.8611908  35.8536415
  76.5931091 159.9577789  33.4927864  77.5737076 159.5191650  33.9865837
  76.5947723 160.5254974  32.2604523  75.7720413 160.9114380  31.8196945
  77.8077927 160.6220856  31.4372158  78.6445236 160.0851288  31.8840580
  77.5916748 159.7371979  30.1734180  76.5272293 159.6316528  29.9638615
  78.3173370 160.3206177  28.8964481  79.3390884 160.5597076  29.1913452
  78.3223343 159.6804962  28.0142155  77.8526611 161.2890778  28.7113800
  78.1097641 158.2929535  30.3084564  77.9209518 157.7367554  29.3902531
  79.1707153 158.3788147  30.5432339  77.4538193 157.3812256  31.3090076
  76.3769760 157.2677002  31.1840153  77.9625931 156.4192505  31.3712997
  77.4344711 157.9031525  32.2657242  78.2291946 162.0314178  31.2461910
  79.4072113 162.2877350  31.1844482  77.2328949 162.8655243  30.9540024
  76.2803192 162.5780029  31.1273232  77.3886871 164.3081055  30.9092388
  78.1186905 164.6237335  31.6546040  77.9544754 164.7042999  29.5209446
  78.8494110 164.1678772  29.2055874  76.9131927 164.7584991  28.3680515
  76.2111588 165.5923157  28.3659954  77.4174652 164.7313538  27.4020939
  76.2751007 163.8851471  28.5030155  78.4573441 166.0721588  29.5710468
  79.4004440 166.0113831  29.7397537  76.1593704 165.0886230  31.3953094
  75.0940018 164.5730743  31.8112602  76.2176208 166.4240112  31.4231014
  77.0937500 166.8475494  31.1526928  75.1814499 167.4068298  31.8337936
  74.1792221 166.9849091  31.7588463  75.4200668 167.7187347  33.2841682
  75.3036346 166.8239899  33.8957062  76.6672058 168.3700714  33.7429123
  76.7035904 169.3806152  33.3359756  76.8121872 168.3570709  34.8231468
  77.5616989 167.8823700  33.3554306  74.4412079 168.5764618  33.8397102
  74.8176270 168.9823761  34.6240234  75.0677795 168.6376343  30.8943558
  76.0569763 169.0287781  30.2618332  73.9657440 169.3720398  30.9548302
  73.2475433 168.9590759  31.5325279  73.6095276 170.4786682  30.0774364
  73.4094696 170.0303955  29.1042290  72.3190231 171.0737152  30.6996822
  71.4789581 170.3830719  30.7733517  72.5196457 171.3670197  31.7301331
  71.8959427 172.2871704  29.8909340  72.6777954 173.0395508  29.9945526
  71.8915863 171.9821625  28.8444843  70.5373917 172.8657227  30.2749500
  69.8749466 172.0204926  30.0882454  70.6351471 173.1466370  31.3235836
  70.1795883 174.0738068  29.3833523  71.0222549 174.7600708  29.4675159
  70.0429611 173.7738495  28.3443851  68.9875488 174.7875366  29.8060856
  68.9657059 174.9837494  30.7966022  68.8905640 175.6844177  29.3518772
  68.1203766 174.2999420  29.6318493  74.8145752 171.4643250  29.8855839
  75.1266937 171.7806702  28.7453613  75.4107361 171.9949493  30.9637547
  74.9882965 171.7406464  31.8452148  76.3571701 173.0354156  30.9167500
  75.9534531 173.8455200  30.3094273  76.5307007 173.5065155  32.3467789
  77.0008545 172.7546082  32.9805641  77.2267456 174.3418884  32.2707481
  75.2575989 174.0956116  32.9846458  74.3848572 174.7570648  32.3688927
  74.9455109 173.7676697  34.1860847  74.1572418 174.1769409  34.6669464
  75.6468964 173.3022308  34.7442360  77.7234497 172.6271362  30.1859684
  78.4864578 173.4910736  29.7969246  77.8537750 171.3107605  29.9920826
  77.2023926 170.5978851  30.2880764  78.9962234 170.8325500  29.2246857
  79.8516312 171.4499207  29.4989719  79.3673019 169.3588715  29.5971470
  78.5275269 168.6982880  29.3814888  80.1811676 168.9849243  28.9759407
  79.8456116 169.2480316  31.0149040  79.0020447 169.3388977  31.6991825
  80.2035370 168.2211914  31.0895977  81.0443039 170.1403656  31.5172920
  81.7777634 170.8218994  30.7381916  81.3604660 170.0317078  32.7231331
  78.7680740 170.8480682  27.6615620  79.7108917 170.6514740  26.8551865
  77.5145111 170.8588409  27.2209034  76.7407227 170.9157715  27.8675213
  77.0989151 170.9637451  25.8232746  77.5867538 170.1419220  25.2991467
  75.5168381 170.8365784  25.6171513  75.1268387 171.7661438  26.0317917
  75.3191528 170.8960571  24.1021996  75.9469757 170.1292877  23.6483097
  74.3072815 170.6482086  23.7815971  75.5119400 171.8870087  23.6911945
  74.8061371 169.5815887  26.1728020  75.1386948 168.7095184  25.6097603
  75.1770477 169.4486847  27.1891041  73.2713928 169.7762146  26.2332287
  72.8116074 169.7620697  25.2450504  72.8351669 168.9677277  26.8198757
  73.0843658 170.7737579  26.6307774  77.7209244 172.2124939  25.1213493
  77.5002060 173.3920441  25.4951992  78.5048599 171.9470978  24.0312271
  78.5525970 170.9803467  23.7427483  79.1312027 172.8648224  23.1518536
  78.6340485 173.8301086  23.2475262  80.6106033 173.1423645  23.5458698
  80.8861084 174.1910095  23.4338570  80.6789856 173.0168610  24.6264591
  81.6124191 172.2706299  22.8559494  81.9533615 171.0205231  23.3855324
  81.3569336 170.6317444  24.1976414  82.9155426 170.2086792  22.7521820
  83.2198563 169.2786102  23.2090912  83.6629486 170.7401733  21.7080421
  84.4625015 170.1875153  21.2372017  83.3016510 171.9613953  21.1185379
  83.8471756 172.2852783  20.2445221  82.2331314 172.7220154  21.6951351
  81.9823990 173.7166748  21.3572445  78.8903427 172.4814911  21.6963367
  78.4771042 171.3610077  21.3828316  79.0863571 173.5124054  20.8133221
  79.2675781 174.4039764  21.2519188  78.9505844 173.4661102  19.3699093
  78.3677750 172.6031494  19.0478420  78.1790009 174.7350922  19.0281544
  78.5532074 175.6779175  19.4270763  78.1039963 174.7560883  17.9409370
  76.8402710 174.5487671  19.3659019  76.3572083 175.3555450  19.1726551
  80.3238068 173.4117737  18.5955486  81.0298309 174.3893738  18.3732414
  80.6862183 172.1878357  18.3128777  80.2184525 171.3806000  18.6997795
  81.8540649 171.9173737  17.4307690  82.6654739 172.6076355  17.6615181
  82.3787079 170.5287170  17.6393089  82.3855896 170.3390656  18.7126617
  81.6185760 169.9294586  17.1381092  83.7819672 170.2384796  17.0754642
  83.7647629 170.3786011  15.9946451  84.9178543 171.1382751  17.6380672
  85.1129837 170.8887634  18.6810303  85.8282852 170.9201965  17.0798016
  84.7560806 172.2150421  17.5879230  84.1225357 168.7695770  17.3106098
  83.3258133 168.0883179  17.0119247  85.0053635 168.5031128  16.7294903
  84.2867203 168.6332703  18.3795204  81.4956741 172.2177429  15.9162083
  82.3415527 172.6556854  15.1496553  80.1769180 171.9924469  15.5867157
  79.6478882 171.5848694  16.3444195  79.6681976 172.1765137  14.2459955
  80.4988785 172.1593933  13.5404644  78.6960983 171.0273743  13.8997984
  79.1676788 170.0593567  14.0690136  77.7975006 171.2356720  14.4805260
  78.3677673 171.0857544  12.5601130  78.1993103 170.2402344  12.1378441
  78.8833771 173.5013275  14.0767050  78.4086151 174.0709381  15.0581856
  78.6664810 173.9520569  12.8270187  79.1979752 173.4232178  12.1502934
  77.6696777 174.8487701  12.3643570  77.6744232 175.7879333  12.9175777
  78.0979691 175.2018127  10.9392328  78.1956329 174.3190765  10.3072939
  77.1963196 175.5427551  10.4304333  79.3042450 176.1683044  10.7128601
  80.1829300 175.6484375  11.0946312  79.3648148 176.4411621   9.1736259
  78.5067291 177.0050354   8.8077955  80.1864700 177.0716248   8.8337955
  79.3570404 175.5182495   8.5937214  79.1503143 177.5016632  11.4486952
  79.2068787 177.3605957  12.5280476  79.9888077 178.1461945  11.1848278
  78.1887436 177.9906158  11.2924700  76.2460175 174.2661438  12.3504410
  75.2711105 175.0099945  12.4722900  76.0385284 172.9347382  12.4623117
  76.8606949 172.3482971  12.4469624  74.8301468 172.2422943  12.8682461
  73.9051132 172.6942444  12.5102530  74.8212738 170.7964325  12.3526306
  75.7375412 170.2807770  12.6401176  73.9551239 170.2893219  12.7777414
  74.5497742 170.8948364  10.5154676  74.6120453 169.5664825  10.3869839
  74.5339050 172.4095612  14.3430786  73.5674515 171.8425751  14.8646860
  75.2994461 173.2165985  15.1375799  76.0713272 173.7251129  14.7304983
  75.2137604 173.2216339  16.5902805  75.5946503 174.1774597  16.9500217
  74.1746979 173.2946320  16.9114170  75.8746490 172.0512848  17.3000946
  76.8044205 171.5120544  16.7465038  75.4441833 171.6573792  18.4748688
  74.2569580 172.1072235  19.2735977  73.4238663 172.1701965  18.5735397
  74.4340820 173.0756073  19.7415161  74.0466690 171.0858002  20.3651066
  73.5512238 170.1867828  19.9985142  73.3952179 171.5554504  21.1020870
  75.4763107 170.7903137  20.7279510  75.4885712 169.8633270  21.3012428
  75.8830261 171.6216278  21.3037949  76.1244125 170.6179199  19.3267765
  77.1612625 170.9157867  19.4827118  76.0958176 169.1939087  18.8227863
  76.6216278 168.3185120  19.5320168  75.3877792 168.8183289  17.7246323
  74.9327469 169.6009521  17.2767963  75.0747375 167.4473572  17.3447857
  76.0306168 166.9493866  17.5073566  73.9545288 166.8833923  18.2361374
  74.1747360 167.0504456  19.2905102  73.0561676 167.4472351  17.9848976
  73.5848770 165.3947754  18.0612259  73.3016586 165.1595917  17.0352745
  74.3814697 164.7048035  18.3395901  72.1442947 165.0179291  18.9558506
  70.8723984 165.3850250  17.6918869  70.8538284 164.5678864  16.9707432
  69.8963394 165.2867126  18.1670132  70.9182968 166.3669434  17.2208843
  74.7280426 167.3740692  15.8644590  73.9311829 168.2565155  15.4225502
  75.2844162 166.3803558  15.1681414  75.9136658 165.7719727  15.6721287
  74.9719543 166.1092682  13.7347374  73.9517441 166.4115295  13.4982939
  75.9747314 166.9159241  12.9584990  76.9613724 166.5416260  13.2315187
  75.7127380 166.8083954  11.9059324  76.0176315 167.9421539  13.3233480
  75.1403580 164.5898438  13.4561615  75.4628143 163.8233337  14.3482342
  74.7986145 164.2267456  12.2342272  74.4295731 164.9597015  11.6454487
  74.9717407 162.8107300  11.7289057  74.9742432 162.1745605  12.6139936
  73.7034760 162.4748993  10.8801403  73.6795120 163.1327820  10.0114031
  73.7890320 161.4798889  10.4433813  72.7994156 162.4927826  11.4887905
  76.2664490 162.5835419  10.8830299  76.6488037 163.4621429  10.1172209
  76.8513184 161.3944092  11.0205297  76.5692215 160.8084717  11.7933149
  78.0479736 160.9368591  10.3702726  78.2386856 161.4956055   9.4540091
  79.2716980 161.3176117  11.2346745  79.2126236 160.6778107  12.1151667
  80.1804733 161.1486511  10.6570244  79.3022156 162.7795868  11.8544416
  79.7826614 163.9118652  11.1229029  80.1440964 163.8434906  10.1074791
  79.9587631 165.1824036  11.6668987  80.3284378 165.9640503  11.0197878
  79.5093079 165.3767395  12.9504347  79.4946289 166.6707306  13.4086819
  79.8241806 167.3076935  12.7704945  79.0071182 164.3356628  13.7580070
  78.6880569 164.4928741  14.7777586  78.8317032 163.0430756  13.1566601
  78.3216782 162.3023376  13.7546463  77.9877625 159.4321899  10.1192532
  77.0416718 158.7645111  10.4791231  79.0020523 158.8393250   9.4698086
  79.8613739 159.3494568   9.3234282  79.0920944 157.3883362   9.2112961
  78.4967499 156.7964020   9.9064865  78.5000534 156.9505310   7.8544607
  78.7658234 155.9078369   7.6805549  77.0184631 157.0133362   7.7837114
  76.5984192 157.9827423   8.0518637  76.6220474 156.8006592   6.7908711
  76.6259155 156.2313385   8.4337149  78.9466019 157.7764282   6.7121449
  80.0326080 157.8605957   6.7522130  78.6777420 157.2838745   5.7776957
  78.4828873 158.7581940   6.8081813  80.4552383 156.7045898   9.2772646
  81.4406357 157.2319031   8.8126421  80.4632492 155.4114685   9.7394171
  79.6355133 155.0546570  10.1950884  81.6250000 154.5003510   9.5828199
  82.5321732 155.0936737   9.6973181  81.6472778 153.4315491  10.7585268
  82.6625443 153.0531464  10.8774233  81.4129486 153.9390411  11.6942863
  80.8104553 152.2205200  10.5882521  79.8412247 152.2112427   9.8551617
  81.1463318 151.1621399  11.2142143  80.6146240 150.3041840  11.2500973
  82.0073624 151.2140198  11.7396059  81.8043900 153.8539429   8.1720352
  80.8769989 154.0082855   7.3636370  82.8941879 153.0767517   7.8118453
  84.1260605 152.9423981   8.5840311  84.1710510 152.1125336   9.2892981
  84.3190536 153.8320465   9.1835384  85.1703339 152.6513977   7.4918323
  86.0268021 152.0712585   7.8353467  85.5512466 153.5182343   6.9518251
  84.4323654 151.7466888   6.6030645  84.4448395 150.7492371   7.0424085
  84.8954391 151.6783447   5.6186852  83.0631104 152.4534149   6.5443754
  83.1787643 153.2727203   5.8348265  81.9585342 151.4938049   6.1160979
  81.5260315 151.4551544   4.9761147  81.4127579 150.7298126   7.0443106
  81.8335266 150.9266968   7.9411373  80.2679749 149.7780304   6.9947147
  80.3620148 149.1359558   6.1189294  80.3453522 148.9026184   8.2248726
  80.0827408 149.5687103   9.0467310  79.7137299 148.0233307   8.0983639
  81.7678528 148.3731079   8.5079288  82.8310547 149.0535889   9.1652613
  83.8325806 148.1884155   9.2438412  84.7219467 148.3287659   9.8402729
  83.5276718 147.0710602   8.5968657  84.0875702 146.2400970   8.7238178
  82.2041855 147.0865021   8.2412415  81.6834259 146.3024292   7.7116613
  78.8679428 150.5023956   6.9688411  77.8417892 149.8806915   7.2245302
  78.8825455 151.8023834   6.7577581  79.7634048 152.2959747   6.7342339
  77.6840591 152.6195068   6.5015602  78.0304337 153.5434570   6.0384636
  77.0090942 152.1056976   5.8170710  76.8006210 152.9514618   7.6979961
  75.9611435 153.8214111   7.4874783  76.9051819 152.3305969   8.9076500
  77.8024673 151.8981323   9.0748196  76.1298447 152.6810150  10.1059504
  75.0729980 152.4574280   9.9604416  76.6727753 151.9249878  11.3468733
  76.9804230 150.9563446  10.9529133  77.6085587 152.4192352  11.6078949
  75.6367798 151.8628540  12.4562378  74.6039124 150.9057617  12.3507490
  74.7438583 150.0789948  11.6700945  73.4832306 150.8891144  13.2093182
  72.6825333 150.1715393  13.1073999  73.4083710 151.8703308  14.2050724
  72.2531967 151.8416138  14.9034204  71.6244965 151.1493530  14.6863689
  74.4661560 152.8343964  14.3630810  74.3930054 153.5218048  15.1928511
  75.4885941 152.8789825  13.4132595  76.2436676 153.6511536  13.4089622
  76.1268845 154.2046051  10.4642057  77.1984634 154.8564301  10.4951153
  74.9349670 154.7465820  10.7444963  74.1428909 154.1201172  10.7279110
  74.7130737 156.1826782  10.9379177  75.5231857 156.6593933  10.3860483
  73.3848801 156.6903839  10.3387909  72.5341339 156.1993256  10.8112364
  73.3499985 158.1672058  10.7839937  74.2643967 158.6388245  10.4240589
  72.5515747 158.6840820  10.2515926  73.2249298 158.3225861  11.8555880
  73.3615189 156.4951019   8.7992268  73.5848846 157.3714294   8.1907215
  74.1771622 155.8326416   8.5094643  72.1166687 155.7803040   8.2740393
  71.3008423 156.5005035   8.3360796  72.2807999 155.5327148   7.2252970
  71.9637375 154.8883972   8.8816671  74.9052353 156.4380646  12.4496880
  74.1040497 156.0238647  13.2600393  75.8433762 157.3263092  12.7228012
  76.5172806 157.5012970  11.9911375  76.2842026 157.7317963  14.0614929
  75.7201843 157.1223755  14.7675982  77.8019638 157.4309845  14.2793465
  78.3842087 157.8766479  13.4728270  78.1206512 157.9442902  15.1865683
  78.0498886 155.9477234  14.3926258  77.6002960 155.1217804  15.4531307
  78.0861435 153.9300385  15.1439743  77.7872314 153.0507812  15.6953011
  78.8064270 153.9359131  14.0232496  79.2736893 153.1188965  13.6568480
  78.8068466 155.2372742  13.5232191  79.2068100 155.5797119  12.5802670
  75.9429932 159.1711121  14.2229681  76.4434433 160.0173187  13.4702511
  75.0691605 159.4719391  15.1402369  74.7245255 158.7637939  15.7725744
  74.6213989 160.8494568  15.4834614  74.9081573 161.6175842  14.7652245
  73.1365585 160.9671021  15.7111654  72.6672516 160.1034851  16.1823711
  72.9874115 161.8115692  16.3840103  72.3154221 161.3563995  14.4323921
  72.8989716 162.1839447  14.0289955  72.2714310 160.5471039  13.7035427
  70.8634491 161.8226929  14.8018742  70.3235321 161.4843750  15.8418140
  70.2668762 162.5497284  13.9483938  75.3020325 161.1989746  16.8015308
  74.8823318 160.6464233  17.8300133  76.3216629 162.1361237  16.8579464
  76.6106339 162.6536102  16.0401497  77.1572952 162.2547913  18.0432930
  76.8454056 161.6019745  18.8585663  78.6957855 161.9096527  17.8412895
  79.3052063 162.4162598  18.5896645  78.9054565 160.3959503  17.7496033
  78.3766785 159.9508362  16.9067707  79.9621506 160.1615448  17.6209660
  78.5671463 159.9322205  18.6762104  79.1476364 162.5085144  16.6873245
  80.0783157 162.3042450  16.5702515  76.9974899 163.6338501  18.6276894
  77.1569214 164.6170959  17.8936329  76.7670135 163.7405243  19.9246273
  76.6629333 162.8794861  20.4422035  76.6133728 164.9862823  20.6307316
  76.2509232 165.8709564  20.1072121  75.6918411 164.7399750  21.8307838
  74.6589508 164.6921997  21.4858723  75.9833832 163.7958221  22.2908783
  75.7248917 165.7881775  22.9314785  76.7878799 165.9551697  23.1054478
  75.0387344 167.0450592  22.4456501  74.0073471 166.8393250  22.1593037
  75.2226715 167.8680420  23.1362820  75.5563278 167.3968353  21.5532036
  75.0976715 165.3863068  24.2583008  75.6350861 164.5449524  24.6957989
  75.2291107 166.1888580  24.9840584  74.0657425 165.0816345  24.0839195
  78.0262222 165.3205109  21.1476021  78.7253799 164.4226379  21.6534119
  78.4015121 166.5804291  21.0186005  77.7622223 167.2491150  20.6133041
  79.7548294 167.0537262  21.4228821  80.3613205 166.1487732  21.4593945
  80.4184036 167.9543152  20.3385258  81.3943253 168.3863220  20.5600014
  80.7007980 167.1328735  19.0546570  79.6973572 166.8784332  18.7133923
  81.0903397 167.8442535  18.3264446  81.3974991 166.2964935  19.1112309
  79.5196686 168.9391479  19.9441509  79.6203613 169.7194061  20.4942932
  79.7878723 167.7355042  22.7704201  79.0339127 168.6914978  23.0600471
  80.6166306 167.2814941  23.7158127  81.1888809 166.4566956  23.6046715
  80.7622147 167.8071442  25.1004543  80.3699188 168.8234863  25.1360760
  79.9648972 167.0559845  26.1821766  80.1707764 167.4974670  27.1572666
  78.4212265 167.1968536  25.9380970  78.1651688 166.5276031  25.1167259
  77.8301926 166.8501129  26.7857685  78.1658401 168.2035980  25.6074200
  80.3859863 165.5655365  26.2778778  81.4538651 165.4731903  26.4759178
  79.9342728 165.0992126  27.1534367  79.9511719 165.0707550  25.4094162
  82.3156357 167.9199524  25.4005032  83.0409088 167.0373840  25.0163403
  82.7757111 168.9045105  26.1656132  82.1767426 169.6007996  26.5857449
  84.1651993 168.9971466  26.7321949  84.8870239 168.8940735  25.9219742
  84.2604980 170.3973846  27.4296970  83.5045395 170.4785614  28.2107468
  85.2149734 170.4901123  27.9478474  84.0907974 171.5540924  26.5172310
  84.8960342 171.6729279  25.3805561  85.5658646 170.8568573  25.1529827
  84.8005066 172.8321533  24.5709305  85.4183121 173.0081329  23.7027378
  83.8531036 173.7909698  24.9077511  83.7838898 174.9570770  24.1906128
  84.4517441 174.9169464  23.5021648  83.0363464 173.6729889  26.0764771
  82.3993835 174.5113831  26.3168449  83.1878433 172.5490265  26.9226112
  82.6427002 172.4686127  27.8514576  84.5005112 167.9252930  27.7294693
  85.6743164 167.5608521  27.8670216  83.5017014 167.4700012  28.5352211
  82.5719833 167.8498383  28.4282284  83.7935944 166.5525055  29.6621494
  84.7215500 165.9971924  29.5256557  83.9884567 167.4973145  30.9230690
  84.7760925 168.2204437  30.7114143  83.1035385 168.1322327  30.9666462
  84.1829529 166.8435822  32.2821312  83.3202438 166.2296906  32.5409470
  85.0827560 166.2368622  32.1804352  84.4141617 167.8923035  33.3189583
  85.2618484 168.5153503  33.0337601  83.5639267 168.5634003  33.1971359
  84.6692734 167.2474823  34.7035637  84.5760498 167.9838257  35.5018120
  83.8954086 166.5125427  34.9251671  86.0892181 166.7442474  34.8639107
  86.8433685 167.3722076  34.6251373  86.2987137 166.4827576  35.8167114
  86.1771698 165.9352112  34.2657318  82.7279968 165.4988708  29.8676949
  81.5463943 165.7797852  29.8111324  83.2108917 164.2529144  30.0617733
  84.1904373 164.0676727  29.8996677  82.4120636 163.1152344  30.5402107
  81.3960495 163.4697418  30.7138386  82.3164749 162.0012512  29.4762993
  83.3257065 161.5894928  29.4804783  81.4537735 161.3450470  29.5913601
  82.1702805 162.5347595  28.5370979  82.8819351 162.5228424  31.8832607
  84.0755386 162.3286591  32.0756645  81.9391098 162.1168518  32.7788467
  80.9522858 162.2482452  32.6084976  82.2840729 161.7220917  34.1250801
  83.2603760 162.1617584  34.3291130  81.2699280 162.2960968  35.1701546
  80.2783813 161.8698578  35.0176659  81.6338043 162.0722198  36.1729355
  81.1781235 164.1583557  34.9617348  82.1503906 164.4822235  35.8188858
  82.4611359 160.2413635  34.2111435  83.5657730 159.8718414  34.6249847
  81.3904343 159.4631348  33.9328766  80.5335770 159.9443817  33.6998672
  81.4427338 158.0305786  34.0590324  82.3330688 157.7815704  34.6364365
  80.2108536 157.6064301  34.8888435  79.2623138 157.8635559  34.4174004
  80.2135162 156.5257416  35.0309677  80.2589874 158.1620941  36.3395538
  81.0188675 157.7183075  37.1930466  79.4496994 159.1412811  36.6294556
  79.3461533 159.4270020  37.5926437  78.7855148 159.3837585  35.9082260
  81.5098419 157.2375183  32.7543869  80.6826324 156.3147430  32.5198097
  82.5883179 157.4899445  31.9649467  83.1768570 158.3015137  32.0877838
  82.9982758 156.6455536  30.8413410  82.2239227 155.9195709  30.5934792
  83.2024765 157.4181671  29.5576744  84.0064011 158.1379089  29.7118702
  83.4903870 156.7022552  28.7878075  81.9367371 158.0383301  29.0198364
  81.4121552 158.5548248  29.8236675  82.1224670 159.0354919  27.9624939
  82.2127762 158.5323639  26.9997864  81.1854248 159.5576782  27.7691422
  82.9978104 159.6495514  28.1741619  80.9446640 157.0289612  28.4772358
  80.6528091 156.2733917  29.2066364  80.0023727 157.5384674  28.2757492
  81.2915726 156.5470276  27.5631828  84.3616333 156.0215149  31.1235752
  85.2225342 156.6188354  31.7574730  84.6209488 154.7675476  30.6279297
  83.8618546 154.5133209  30.0121098  85.9521027 154.2137604  30.4571133
  86.7627029 154.7847595  30.9098682  86.0363388 152.8148346  31.0561600
  85.2733917 152.1757660  30.6116467  87.0013046 152.4112396  30.7494869
  85.9113922 152.8114624  32.5953407  85.8859482 153.8459930  33.2244911
  85.7740784 151.5983276  33.1228790  85.6128693 151.5740204  34.1196365
  85.8938904 150.8314362  32.4766426  86.3392792 154.2163086  28.9547558
  85.5302963 154.4764099  28.0664463  87.6212311 153.9579468  28.7711716
  88.1092682 153.6293030  29.5921001  88.3467026 153.9330597  27.5046082
  87.7361145 154.3053741  26.6820126  89.5155869 154.9267426  27.4972382
  90.0566330 154.4471893  28.3129578  89.9937439 154.9557953  26.5181465
  89.2917709 156.3740997  27.8812618  88.8692856 156.4087372  28.8854580
  90.6090393 157.1015472  27.8206863  91.1223068 156.9907532  26.8655014
  90.5413895 158.1699371  28.0257816  91.3531647 156.6709747  28.4907513
  88.4131088 157.0095520  26.8168373  87.4560852 156.4888000  26.7847443
  88.2001495 158.0567474  27.0316353  88.9548111 157.0028381  25.8709946
  88.7726135 152.4772491  27.2352962  89.1996078 151.7989502  28.1938477
  88.7904205 152.0874939  25.9502201  88.3575592 152.7050934  25.2784176
  89.6621552 151.0265808  25.4023457  90.3960419 150.7605743  26.1631050
  88.8691330 149.7317047  25.1530952  89.4935303 148.8493805  25.0126743
  88.2777328 149.6230164  26.0622349  88.0248718 149.9452515  24.0424004
  87.1186829 149.8907928  24.3545761  90.3759613 151.4123840  24.0866051
  90.0992584 152.4671173  23.4486237  91.2790833 150.5247192  23.6376495
  91.4785156 149.6741180  24.1444302  92.0069351 150.7185211  22.3853149
  92.5127335 149.7817993  22.1511974  91.3326035 151.0144806  21.5817013
  93.1573410 151.7231598  22.5604591  93.7481155 151.9273529  23.6098747
  93.5113297 152.3036804  21.4307461  92.9785767 152.1124725  20.5942554
  94.4553299 153.4735565  21.3159695  94.5175552 153.9365692  22.3007832
  95.8718491 153.0744171  20.7948532  95.8770981 152.7848816  19.7440224
  96.6203232 153.8667908  20.7910576  96.5605698 151.9705811  21.6350212
  95.8202209 151.1709900  21.6604099  97.4672089 151.6623383  21.1143684
  96.9011917 152.2964478  23.1267033  97.5439682 153.1758423  23.1666412
  96.0132599 152.5190582  23.7184181  97.5100403 151.0890503  23.7546864
  98.4167557 150.8169098  23.4026871  96.9064636 150.1455994  24.5018444
  95.7344742 150.2635040  24.9789047  95.1979904 151.0960236  24.7809181
  95.2532578 149.5385284  25.4916859  97.5299911 149.0681305  24.8925476
  98.4749374 148.8892822  24.5840111  97.1617508 148.4912872  25.6353493
  93.9380035 154.5059814  20.3067760  92.9181747 154.2505798  19.7038937
  94.4778366 155.7694092  20.2894039  95.5081482 156.3121948  21.2161789
  96.5523224 156.1363831  20.9575405  95.3735123 155.8233948  22.1810894
  95.2407990 157.7854156  21.3229465  96.1440353 158.3949127  21.3509617
  94.5806961 158.0210724  22.1577168  94.4888458 158.0987396  19.9606152
  95.2579727 158.3455963  19.2287598  93.7582703 158.8908997  20.1244106
  93.9114304 156.7992706  19.4754047  92.8327026 156.7967224  19.6317692
  94.1646347 156.5061188  17.9330006  95.2364655 155.9624329  17.5265961
  93.2719803 156.8549652  17.0558147  92.3397827 157.1237946  17.3366165
  93.5113831 156.7934723  15.5687180  94.5499420 157.0681763  15.3842573
  93.2330322 155.3644104  15.0368099  93.6586990 154.6019745  15.6891899
  92.1573563 155.2188873  14.9375620  93.7924347 155.2721863  13.7047071
  94.7281342 155.0583191  13.6868372  92.7230606 157.7886810  14.8021822
  91.7332306 158.2662811  15.3787012  93.2332382 158.2650452  13.6223030
  94.1819763 158.0217285  13.3757181  92.6440582 159.2951355  12.7490559
  91.9666061 159.9111481  13.3403969  93.7450409 160.2088470  12.1171570
  93.2823105 160.9622040  11.4796400  94.5145950 161.0422363  13.1207094
  95.1159592 160.3463287  13.7056627  95.2436066 161.6286926  12.5614958
  93.9084396 161.7233734  13.7179737  94.6837616 159.3757324  11.4946651
  95.2810974 159.9450989  11.0041294  91.9177017 158.5819550  11.6045465
  91.2243195 159.3436890  10.8811874  92.0282669 157.2726593  11.4097500
  92.5552750 156.7032623  12.0563965  91.3779373 156.6519470  10.2069635
  91.8713837 157.0706635   9.3298798  91.4666672 155.1183777  10.2644615
  90.9895020 154.7342377  11.1660414  90.8945541 154.7230225   9.4251299
  92.8972321 154.4137268  10.2429647  93.4295654 154.5434723  11.1852465
  92.6052933 153.3652649  10.1828499  93.8462296 154.6506348   9.0844402
  93.5221405 155.1491699   7.9865417  95.0420074 154.3150177   9.3045282
  89.8773346 157.0513611  10.1049814  89.1588669 156.8696899  11.1434669
  89.4522476 157.5791321   8.9729958  90.1333618 157.5345154   8.2285585
  88.0835037 158.0882416   8.6983442  87.9774704 158.5345154   7.7095604
  87.2686691 156.7063141   8.6127281  87.9494781 155.8900146   8.3713827
  86.8263626 156.5265961   9.5926094  86.1680298 156.7284546   7.6399927
  84.8957443 156.3994141   8.0323582  84.1393280 156.2747650   6.9328094
  83.0773239 156.0894318   6.8679910  84.9204330 156.5046082   5.8555932
  84.6632385 156.4520721   4.8803029  86.1932373 156.7530823   6.2877469
  87.1261673 156.7851868   5.7446027  87.5104141 159.0687408   9.7318630
  86.2732620 159.1800995   9.7950258  88.3060760 159.7550812  10.5435648
  89.2616348 159.4281921  10.5315371  87.7426071 160.7171173  11.5389786
  87.1849594 160.1345673  12.2723026  88.9226074 161.3513947  12.2968140
  89.4169235 160.5998230  12.9123487  89.6351089 161.9268799  11.7058229
  88.2980576 162.2422791  13.2513523  88.9389954 162.8344421  13.6515169
  86.7970352 161.7926636  10.9909201  87.1366196 162.5782166  10.1213741
  85.6274948 161.9696655  11.6204376  85.4959793 161.4937744  12.5015364
  84.6144714 162.9391174  11.2005072  84.5565643 162.8309937  10.1174307
  83.3231277 162.4479218  11.9414940  83.4660110 162.6632843  13.0004110
  82.4906616 163.0569763  11.5891142  82.9156647 161.0124664  11.7545004
  82.8670120 160.3478088  10.6006556  83.2776794 160.7611084   9.6912928
  82.4379044 159.0143890  10.8325844  82.4158325 158.3097687  10.1093054
  82.0123596 158.8298035  12.1456051  81.5288010 157.7958069  12.8994417
  81.3125381 156.8306427  12.4657612  81.3428497 157.9418488  14.2888861
  81.1351471 157.1093597  14.9447842  81.6429520 159.2071075  14.8889809
  81.4692078 159.4453278  15.9279528  82.1962891 160.1903381  14.1013651
  82.4887695 161.0908203  14.6209793  82.4030991 160.0596619  12.7503452
  85.0293121 164.3742065  11.5758410  84.3596039 165.3148804  11.1620321
  86.1196976 164.5505219  12.3713026  86.6124573 163.6968689  12.5916548
  86.7419205 165.8173218  13.0264626  86.2262268 166.6941071  12.6347866
  86.3437958 165.8024750  14.5345583  86.8962402 165.0038147  15.0295792
  86.6168137 166.7627106  14.9721575  84.8927155 165.6111298  14.7653456
  84.0428391 166.6708984  14.3948603  84.3838959 167.6242065  14.0189505
  82.6692200 166.5715942  14.6257868  82.0237885 167.3612518  14.2704554
  82.1484833 165.4738617  15.3099480  81.0804138 165.4315643  15.4643278
  82.9606400 164.4119415  15.6695795  82.5562363 163.5234680  16.1316109
  84.3157730 164.5168457  15.4209089  84.9320679 163.7047577  15.7773972
  88.2382278 165.9430389  12.6612682  89.1232758 165.3975220  13.3203039
  88.6357803 166.5984650  11.4867563  87.7601700 167.0177460  10.4602184
  87.4327316 168.0458374  10.6148968  86.9004440 166.4091339  10.1799374
  88.6194763 167.0849152   9.1480255  88.2693176 167.8230896   8.4265089
  88.5556793 166.0979156   8.6899233  89.9883957 167.4557495   9.7667789
  90.2332382 168.5071716   9.9173450  90.7616501 167.1356049   9.0684328
  90.0300293 166.7185059  11.0891209  90.3531494 165.6974792  10.8861561
  90.9469604 167.3120270  12.0910616  90.7370529 168.4029999  12.6149483
  92.0392303 166.6588898  12.4047222  92.0631638 165.6768188  12.1700697
  93.0187912 167.0496216  13.3774424  93.9898300 166.6120758  13.1456347
  93.1573181 168.1239929  13.4985342  92.6822357 166.5531769  14.7905178
  93.3874969 166.9387360  15.7254009  91.6747894 165.7067108  14.9919233
  91.0222321 165.5789642  14.2316942  91.3754196 164.9035797  16.1246948
  92.0947418 165.1695404  16.8992538  90.0103226 165.4541168  16.6188450
  89.3327942 165.3462830  15.7718325  89.5502930 164.8399506  17.3929710
  90.0416870 166.8606262  17.1401196  90.5196381 167.0337830  18.4487743
  90.5918579 166.1398163  19.0504532  90.6165009 168.2937164  18.9605846
  90.8946762 168.3952789  19.9991951  90.3202057 169.4004822  18.1858196
  90.5934525 170.6533051  18.5864258  90.7724991 170.6281433  19.5292454
  89.7515030 169.2542725  16.8678188  89.4213791 170.1970215  16.4571533
  89.6572952 167.9563141  16.3265514  89.2792206 167.8347626  15.3222198
  91.4711380 163.4402924  15.8588514  90.8832016 162.9850616  14.8743753
  92.0280151 162.6595001  16.8338833  92.4913177 163.1499786  17.5854721
  92.1489410 161.2199097  16.9197521  92.0292511 160.8497620  15.9015322
  93.4852600 160.8092499  17.4224052  93.5091171 161.2740326  18.4080563
  93.5039673 159.7245483  17.5281391  94.2724152 161.2115326  16.7847137
  91.0478745 160.6991882  17.8344326  90.8483505 161.2664185  18.8909798
  90.2353745 159.7249146  17.3129139  90.4083710 159.3075562  16.4095974
  89.2306900 159.0764160  18.0819721  88.8405380 159.8473663  18.7464390
  88.1416931 158.6090393  17.0795860  87.2461548 158.2968903  17.6168690
  87.8644714 159.5371704  16.5797672  88.5081406 157.6662445  15.9791241
  88.7303848 157.9564362  14.6824579  88.6469116 158.9663849  14.3090811
  89.0421448 156.8621368  13.9437017  89.1396561 156.8311005  12.9388990
  89.1174850 155.7242126  14.7780962  89.3471527 154.3800964  14.5403032
  89.6374435 153.9629974  13.5873289  89.2884293 153.4935150  15.6514053
  89.5429916 152.4782867  15.3851261  88.8835983 153.9522247  16.9218292
  88.8407822 153.3339996  17.8063488  88.6682816 155.3067932  17.1384926
  88.5001755 155.6647491  18.1434822  88.7826843 156.2140198  16.0709915
  89.8219833 157.9272003  18.9378204  90.7374191 157.2027130  18.6058598
  89.1848221 157.6599121  20.0785179  88.6272812 158.4239655  20.4327049
  89.5260086 156.4689331  20.9262638  89.8780518 155.6461487  20.3040161
  90.6592407 156.7457581  21.9316502  91.5553894 156.8098907  21.3144722
  90.4891434 158.0087280  22.7571888  89.6512527 157.9460754  23.4515324
  91.3913727 158.1522980  23.3517189  90.3310013 158.8868256  22.1310463
  90.7408981 155.7249146  22.8428478  91.3016586 155.0838776  22.3999062
  88.1900177 156.0554657  21.5705872  87.4222488 156.8597412  22.0714092
  87.8554840 154.6998901  21.4650154  88.5837860 154.0583649  21.1855145
  86.5073700 154.2459869  21.8625793  85.7600784 154.6878052  21.2034473
  86.4265137 152.7235413  21.9032459  87.3362503 152.2857208  22.3140965
  85.2420807 152.1182251  22.6544590  84.3044891 152.5663452  22.3255405
  85.1281281 151.0378876  22.5651207  85.3134155 152.3949280  23.7063351
  86.2399750 152.1897888  20.4465370  85.2319565 152.1569061  20.0331116
  86.8001175 152.8392792  19.7738628  86.8454742 150.7912903  20.2251797
  86.6949081 150.2577667  21.1636829  86.3777390 150.3066101  19.3682022
  87.8798218 150.9216461  19.9070244  86.2389526 154.6743164  23.3248272
  87.0384521 154.4704132  24.2613773  85.0546036 155.1791077  23.5156651
  84.5148087 155.4044495  22.6922913  84.3085938 155.3573761  24.8170910
  85.0108414 155.2375336  25.6420727  83.8145905 156.7771454  24.8979626
  83.1910782 156.9795837  24.0271282  83.2715912 157.0113068  25.8136177
  84.5863647 157.5401001  24.7960682  83.2022705 154.2772369  25.0762768
  82.2983246 153.9613037  24.2753658  83.1389771 153.8093109  26.3239422
  83.7826462 154.2282104  26.9799328  82.0251770 152.9944458  26.8580112
  81.2087173 153.1830139  26.1609211  82.5300522 151.4884338  26.8273640
  83.4935455 151.4602661  27.3362637  81.8994293 150.8710327  27.4670658
  82.7559662 150.8698425  25.4023094  81.7492599 150.7745819  24.9954090
  83.2944717 151.5823212  24.7774239  83.6065063 149.5778656  25.4838524
  84.7936249 149.5312958  25.2399292  82.9932709 148.5011292  25.8747444
  83.5659790 147.7086029  26.1277180  82.0115204 148.4491425  26.1061707
  81.6104279 153.4489594  28.2129593  82.4060974 154.0567169  28.9351616
  80.3776321 153.1026917  28.6295147  79.8184738 152.5888062  27.9636555
  79.7921219 153.4140015  29.9769592  79.7475967 154.4891815  30.1504498
  78.3753357 152.8258667  30.0250130  77.7231140 153.2762146  29.2767601
  78.3929596 151.7608185  29.7938023  77.5695648 153.0529022  31.6641159
  76.3552933 152.5911255  31.3523445  80.7333145 152.8688049  31.1035233
  81.3506622 151.8327484  30.8456249  80.7671204 153.3478699  32.3428230
  80.4158783 154.2945709  32.3651619  81.6258621 152.8528595  33.4529419
  82.5230713 152.4422760  32.9897575  81.9994583 154.1019287  34.2500305
  82.4998322 154.8657379  33.6547737  81.0798416 154.5831299  34.5829735
  82.8485870 153.6817169  35.3898773  82.3378143 152.9654083  36.0334015
  83.6841431 153.0971069  35.0049248  83.3773422 154.9477997  36.0179405
  82.5983505 155.6273193  36.3636589  83.8787231 154.5944061  36.9189568
  84.3488617 155.6390076  35.2288361  84.8937225 155.1079712  34.5645828
  84.8271942 156.8849792  35.4463806  84.4307404 157.6534271  36.4413528
  83.6748505 157.3666382  37.0467377  84.7909546 158.5964813  36.4728889
  85.8212204 157.3744659  34.7497215  86.2103958 156.7404022  34.0666389
  86.3622665 158.2062531  34.9381180  81.0316086 151.6680756  34.1712151
  81.6612320 150.6631317  34.5333443  79.6838455 151.7922821  34.3142853
  79.2726212 152.6479950  33.9696846  78.8673325 150.8533478  35.1220169
  79.5046234 150.5557098  35.9547081  77.7099609 151.5717621  35.8693047
  77.0792618 152.1061401  35.1588364  76.8221359 150.5659637  36.6347580
  77.4615326 149.9909821  37.3045883  76.0566025 151.1011658  37.1965561
  76.2835312 149.8516998  36.0119858  78.2294769 152.7449188  36.8519897
  78.5408707 153.6345825  36.3045959  77.3117828 153.0498657  37.3549423
  79.3246841 152.3749084  37.7833939  80.2831192 152.2248230  37.2864189
  79.3811340 153.2056580  38.4867744  79.0704575 151.5192871  38.4090157
  78.5791473 149.5281525  34.3807640  78.5070648 148.4842987  35.0165291
  78.3935394 149.5469666  33.0647507  78.4237595 150.4316406  32.5784111
  78.0092239 148.4074097  32.2889481  78.0148010 147.5233459  32.9265289
  76.5492401 148.5780640  31.7955589  76.0953751 147.6308136  31.5043240
  75.9712372 148.9511414  32.6410370  76.3896942 149.7605743  30.5218754
  75.0616455 149.8809662  30.6037140  78.9273300 148.0485077  31.1372147
  78.7416382 146.9755249  30.5404510  79.8290253 148.9157715  30.6225815
  80.0407333 149.7449341  31.1590443  80.5300522 148.5855865  29.3900089
  81.4617615 149.1456299  29.3102455  80.6995850 147.5088806  29.3971310
  79.8290787 148.7903137  28.0516529  80.3923645 148.4368591  27.0154018
  78.6137238 149.3281860  27.9980240  78.1639099 149.6343842  28.8489075
  77.9591751 149.5891418  26.6506100  78.0307617 148.6618500  26.0821705
  76.5232773 149.9874573  26.9348087  76.0954208 149.1640930  27.5067635
  76.5177155 150.9425964  27.4599495  75.8262177 150.1847839  25.6250458
  75.9134979 149.3625488  24.7536354  75.1901398 151.3596497  25.4356785
  75.0168228 151.6898804  24.4970570  75.1969299 152.0637970  26.1597137
  78.7630310 150.6306763  25.8519363  79.4251938 151.5377502  26.3733444
  78.8184357 150.4846954  24.5398273  78.3450699 149.6846924  24.1448288
  79.3849716 151.4717407  23.5741329  80.3912659 151.7210693  23.9107475
  79.5208511 150.9154663  22.0978985  80.0094223 149.9429169  22.1575642
  78.5318298 150.7663879  21.6646423  80.2569656 151.8634491  21.1907310
  79.7411194 152.4177246  20.0147266  80.6826630 153.2108459  19.5361252
  80.5626221 153.7023621  18.5819740  81.8148956 153.1704865  20.2629795
  82.6624146 153.6798096  20.0570450  81.5778732 152.2999268  21.2809544
  82.3277435 152.1115723  22.0350285  78.5654449 152.8194580  23.5945187
  77.3669281 152.8473663  23.3736057  79.2422180 153.9234924  23.9582977
  80.2205505 153.8217163  24.1876793  78.8019867 155.3250580  24.0508442
  77.7433929 155.2982178  23.7924614  79.1211472 155.8784180  25.4563732
  80.1966782 155.9251099  25.6271114  78.7736282 156.8997803  25.6117077
  78.5846405 155.1246338  26.6766605  79.0368576 154.1369629  26.7666531
  78.7944717 155.7539825  27.5415287  76.7381897 154.9049072  26.5982952
  76.0542526 156.5895844  26.5145874  76.2030792 157.0074310  25.5189209
  75.0078506 156.4704437  26.7955856  76.6372147 157.2248993  27.1813869
  79.4335251 156.2496490  22.9865761  79.2398376 157.4376373  22.9776573
  80.2847443 155.6929474  22.0772896  80.3458176 154.6853790  22.1117840
  80.9658051 156.4091187  21.0760899  80.8062515 155.8759155  20.1388893
  80.5702438 157.3982239  20.8452339  82.4423752 156.6279907  21.2553043
  83.1951599 155.6582184  21.3840313  82.9508743 157.8855286  21.1828041
  82.2229691 158.5729523  21.0497932  84.4106979 158.2379303  21.2544155
  85.0429306 157.4265900  21.6151085  84.9427490 158.5113525  19.8312073
  84.5517731 159.4269409  19.3874302  86.0225983 158.6322479  19.9173241
  84.5540009 157.4652710  18.8543797  85.3088303 156.3392792  18.5328979
  86.3314896 156.1957703  18.8490925  84.6033401 155.4329071  17.8325958
  84.9960175 154.5716553  17.4802551  83.3035431 155.8710022  17.6929493
  82.1238556 155.2408295  17.2655983  82.1493912 154.2013855  16.9735088
  80.9191284 156.0390167  17.1708279  79.9937515 155.5764923  16.8607655
  80.9122086 157.3558502  17.5307579  79.9154434 157.7708893  17.5552292
  82.0569458 157.9648438  18.0884399  82.0195465 158.9758301  18.4664783
  83.3011551 157.2320709  18.1505604  84.6799316 159.4116974  22.1746655
  83.9185410 160.3632050  22.1190720  85.8559723 159.3182678  22.8257809
  86.4073181 158.4836273  22.9653816  86.6597137 160.4450378  23.2117176
  86.0957794 161.3264771  23.5168972  87.5819855 160.0956116  24.3862114
  87.0056686 159.6350250  25.1885948  88.3528442 159.3971100  24.0606747
  88.2478714 161.2942200  24.9859753  88.7456360 161.9069672  24.2343922
  87.4830399 161.9271088  25.4360676  89.3222504 160.9806519  26.1191864
  89.0145950 160.1429901  26.7451191  90.2466354 160.8041534  25.5692272
  89.4778748 162.2357330  27.0548859  89.8939972 163.0397034  26.4477673
  88.4896088 162.5625153  27.3783836  90.4433441 162.1206360  28.1859417
  91.2811279 161.6022797  27.9633770  90.8722534 162.9882812  28.4746265
  90.0134506 161.5859985  28.9271889  87.4428177 160.8312073  21.9177589
  87.9029465 159.9618225  21.1820984  87.6461334 162.1365051  21.7230358
  87.0907669 162.8408966  22.1872387  88.6139984 162.7507935  20.8422108
  89.1360016 161.9306946  20.3492050  87.8545151 163.7032623  19.9162426
  87.3853455 164.4571075  20.5484581  88.5289993 164.2468567  19.2546654
  86.9747391 162.9184570  19.0149250  87.4845963 162.5649261  17.7305031
  88.4973068 162.7727966  17.4180946  86.6471863 161.9747009  16.7745476
  87.0649948 161.8390656  15.7879143  85.3124847 161.6558075  17.0744896
  84.6680908 161.1754456  16.3530903  84.8047104 162.0414886  18.3508682
  83.7691956 161.8967590  18.6213646  85.6260681 162.6157990  19.3234615
  85.1793900 162.8765411  20.2715626  89.8069687 163.4291992  21.5846691
  89.6471786 163.9270630  22.7059460  91.0117798 163.4292908  20.9906025
  91.1294556 162.9816437  20.0929012  92.2437592 164.1301422  21.4448700
  91.8914795 164.9372559  22.0871925  93.2091370 163.2466583  22.2592907
  94.1521225 163.7639008  22.4363461  92.6091232 162.8615265  23.5998440
  91.7173080 162.2515869  23.4558620  93.3291016 162.3029633  24.1979485
  92.3368530 163.8086395  24.0656300  93.5014343 162.0085144  21.4991951
  94.0783768 162.2205811  20.7617931  92.8954163 164.6930542  20.1706867
  92.9260254 164.0663605  19.1155758  93.4213486 165.8706207  20.2880859
  93.4553146 166.3608856  21.1704597  94.0322723 166.5579834  19.1842690
  93.3329086 166.5499725  18.3482380  94.1669922 168.0620728  19.5008183
  95.1102219 168.2306976  20.0204296  94.1511688 168.5827026  18.5433216
  93.2464218 168.4373779  19.9478092  95.3506699 165.8701630  18.8106613
  96.1359253 165.4432678  19.6887894  95.7199173 165.7774963  17.5164604
  94.9845428 166.0215759  16.8685837  97.1159821 165.5094910  17.0530071
  97.5147095 164.7507324  17.7263546  97.1774597 164.8515015  15.6960993
  98.1503983 164.3992462  15.5038767  96.1965714 163.6473846  15.5675888
  95.1788559 163.9938354  15.3878021  96.4987946 163.0573578  14.7023487
  96.3199615 163.1217651  16.5144787  96.8169327 165.7885132  14.7255363
  97.3059692 165.6587524  13.9096880  98.0648193 166.7043457  17.0913277
  99.2573853 166.5442963  17.3895950  97.5523453 167.9424133  16.9263573
  96.5499954 168.0139618  16.8249645  98.2958679 169.2090454  16.8518753
  99.3520584 168.9507904  16.7752476  97.8633270 169.8481445  15.5172443
  96.7864304 169.7493134  15.3807545  98.1245270 170.9009399  15.6244507
  98.7706375 169.4382019  14.3387032  99.8168335 169.5791168  14.6101875
  98.6757584 168.4035950  14.0090427  98.4528580 170.3507080  13.1341829
  98.3416672 171.3541260  13.5451536  99.2645645 170.1858673  12.4256210
  97.1203690 169.8659363  12.4811840  97.0930634 168.7773132  12.4337521
  96.2720261 170.1623077  13.0980968  96.9064560 170.3542023  11.0900812
  97.5147171 169.9731140  10.3795109  95.9983444 170.0553131  10.7643661
  96.9198151 171.3637848  11.0643415  98.2041550 170.0011292  18.1403275
  97.0795975 170.1633453  18.6958447  99.3295593 170.5376129  18.6022243
 100.1156616 170.3266449  18.0041981  99.5621490 171.1622772  19.8982124
  99.2860184 170.3885040  20.6145382 101.0271912 171.3503723  20.1762218
 101.2050705 171.6560364  21.2072582 101.5906906 170.4612579  19.8933411
 101.6630249 172.5531616  19.4042931 101.5025177 172.4585114  18.3303356
 101.3408203 173.5112762  19.8121090 103.1620331 172.5283203  19.6159096
 103.3854675 172.5217438  20.6827450 103.6248550 171.6327362  19.2013741
 103.9196625 173.7425537  19.0453281 103.3957596 174.6661835  19.2913303
 104.8837738 173.8072357  19.5497169 104.1140213 173.6593628  17.5768528
 103.2020187 173.4165497  17.2171326 104.4665833 174.4167328  17.0092354
 104.6968842 172.8767548  17.3162918  98.8429108 172.4786987  20.1442871
  98.8370056 172.8379364  21.3281918  98.3368530 173.1469879  19.1059723
  98.4657135 172.6994476  18.2097569  97.8415909 174.5694427  19.1719189
  98.0281448 174.9807739  20.1639385  98.6693192 175.4673157  18.1982479
  98.2225266 176.4334717  17.9637127  99.6022186 175.7316895  18.6961555
  98.9440689 174.8406219  16.8285694  97.9744568 174.3767700  16.1573143
 100.1249771 174.8727264  16.3936901  96.3936844 174.7375641  18.8601036
  95.7630615 175.7858734  19.0773067  95.7267075 173.6536102  18.4332275
  96.2258530 172.7960358  18.2447186  94.2696457 173.5864410  18.2240658
  94.0205383 174.4415283  17.5956783  93.7857056 172.2538300  17.5483646
  94.0057297 171.4325714  18.2304268  92.7323532 172.2973480  17.2714691
  94.5395203 172.0908508  16.2438259  94.6000977 172.9800873  15.6163816
  95.5259018 171.8455048  16.6374817  93.9528580 170.7083435  15.1606474
  92.2974167 171.2336578  14.5241585  92.3339691 172.1954346  14.0125427
  91.9167938 170.5460358  13.7689066  91.6802063 171.2536163  15.4223557
  93.5185699 173.7401733  19.5332718  94.0278778 173.1012573  20.4646702
  92.3750305 174.3811188  19.6301613  92.0252457 174.9303436  18.8580856
  91.5759583 174.5233002  20.8726196  92.0712585 173.9600830  21.6635532
  91.6194992 176.0579834  21.2579346  92.6316452 176.2525024  21.6126499
  91.4368362 176.5821533  20.3198586  90.6103134 176.4423981  22.2245789
  91.0246735 176.6342926  23.0690250  90.1222382 174.0414124  20.5878220
  89.5275574 174.4864960  19.5966434  89.4766693 173.2067261  21.4575138
  88.0814438 172.7944183  21.3211212  87.8671188 172.4007721  20.3275394
  87.5141754 173.6403503  21.7093391  87.8632812 171.6619873  22.3519306
  88.1585999 170.6846619  21.9701996  86.8370667 171.6401672  22.7186871
  88.8289719 172.0995789  23.4615498  89.1250076 171.3165588  24.1596451
  88.3049469 172.9064178  23.9739113  90.0541611 172.6345215  22.6802197
  90.5392761 173.4484406  23.2190170  91.0074463 171.4515686  22.4925804
  90.9334030 170.8732300  21.4218235  91.8091049 171.0934601  23.4979782
  91.7191620 171.6530457  24.3339653  92.7988968 169.9015198  23.4232006
  93.3495865 170.1049042  22.5047874  93.7712479 169.9455109  24.6889458
  94.2303848 170.9268036  24.5690727  93.1121597 169.9309692  25.5569820
  94.8227844 168.9001007  24.7616978  95.3137054 169.0056458  25.7291470
  94.3994980 167.8961334  24.7302952  95.9122772 168.9878387  23.6960487
  95.8112488 169.6214142  22.6507149  97.0598526 168.3375702  23.9544926
  97.8017960 168.4243164  23.2747116  97.1485596 167.7270508  24.7541714
  92.0935440 168.5518036  23.3524914  92.6736450 167.5399628  22.9652939
  90.8544388 168.4977570  23.8882408  90.3630524 169.3620453  24.0661793
  90.0554886 167.3149261  24.3255978  90.2756958 166.4756775  23.6658363
  90.4450378 166.9787598  25.7806911  89.7526245 166.2110291  26.1260300
  91.4934616 166.6840057  25.7356453  90.3654709 168.1287842  26.7985573
  90.8764496 169.0291443  26.4574451  89.3164368 168.4216309  26.8417454
  90.6598892 167.6587219  28.2538681  90.2728348 168.3772888  28.9763355
  90.2469482 166.6648712  28.4265766  92.1421204 167.5741730  28.4933071
  92.5284882 166.9052277  27.7243271  92.6168823 168.5518036  28.4099827
  92.4719391 166.8418579  29.7858982  92.1062164 165.9039917  29.8680935
  93.4699936 166.9091797  29.9253807  92.1482086 167.4244537  30.5447769
  88.5666122 167.5878906  24.2252579  88.0313568 168.6591492  24.5934868
  87.8570862 166.5355682  23.8047695  88.3559952 165.7057343  23.5174046
  86.3888550 166.4539032  23.8506508  86.0276794 166.7941589  24.8211575
  85.7149353 167.4197998  22.8233433  84.6714783 167.5979767  23.0832672
  86.2184830 168.3781128  22.9506054  85.7701874 167.0697632  21.3764191
  86.8610001 167.5916443  20.6221733  87.5316391 168.3448639  21.0085678
  87.0256653 167.2714844  19.2985744  87.7953873 167.6552887  18.6453972
  86.1059799 166.3928375  18.6920204  86.3625336 166.0720978  17.6931667
  84.9330292 166.0365143  19.3678360  84.1560440 165.4671326  18.8794746
  84.7711029 166.4040222  20.6918678  83.8566818 166.1292419  21.1965733
  85.8555145 165.0588837  23.7418995  86.6070557 164.1334686  23.4693031
  84.5763397 164.8725281  23.8418941  84.1045761 165.7207489  24.1213017
  83.8787689 163.6336975  23.6520958  84.5875092 162.9397888  23.2001400
  83.4021759 162.9923859  24.9684944  82.4673157 163.4544830  25.2856979
  83.1399689 161.9494324  24.7907753  84.3349533 163.0228424  26.1136246
  84.6884537 164.1383820  26.8102379  84.2497025 165.1035309  26.6043930
  85.6044617 163.8611755  27.7639408  86.0730057 164.5007019  28.3897057
  85.7754593 162.4643707  27.8532772  86.5345154 161.6681519  28.7125797
  87.0733185 162.1888733  29.4903641  86.5759659 160.2245941  28.4979839
  87.0984879 159.5747223  29.1843147  85.8816223 159.7206268  27.3849659
  85.8659210 158.6774750  27.1057129  85.1611252 160.5773621  26.5213718
  84.6379166 160.1166229  25.6965218  85.0799942 161.9697418  26.7365093
  82.7429810 163.7841339  22.6333733  81.9922562 164.7714539  22.7021656
  82.7216034 162.8991241  21.6751156  83.3007965 162.0744629  21.7426929
  81.6132431 162.7603760  20.6539803  80.9671478 163.6221008  20.8215675
  81.9142075 162.7407684  19.6065331  80.7796860 161.5174713  20.9497738
  81.1144638 160.4062347  20.6409512  79.6984329 161.7159271  21.7047291
  79.4147644 162.6813202  21.7922573  78.8719559 160.7215424  22.3372326
  79.4085999 159.7900238  22.5171986  78.4174652 161.2604370  23.6909924
  77.7542877 162.1187897  23.5837078  77.8568649 160.5208435  24.2626915
  79.4984131 161.7608032  24.6501503  80.1431427 162.5035248  24.1802750
  78.8687515 162.3904419  25.9059982  78.2920914 161.6444550  26.4528866
  79.6611404 162.7116547  26.5820408  78.2109756 163.1969604  25.5820599
  80.3991852 160.6201324  25.1948986  80.8723297 160.1139069  24.3534870
  81.1754303 161.0462494  25.8304863  79.7658234 159.9705811  25.7990856
  77.5373993 160.3591003  21.6022129  76.9704437 161.3678741  21.2220554
  77.1513138 159.1138000  21.3166237  77.6714935 158.3689423  21.7578812
  76.0404205 158.7509918  20.4743404  76.0855789 159.3405457  19.5586452
  76.1089249 157.2449036  20.0304775  75.1069260 157.0578156  19.6443367
  77.0489883 157.0304413  18.9301815  78.0523529 157.4178619  19.1069698
  77.0653152 155.9968872  18.5843201  76.6966782 157.6199188  18.0837250
  76.4507217 156.4390717  21.1638947  75.8523560 155.6884155  21.1721554
  74.7661667 158.9800568  21.2093887  74.5290756 158.5698242  22.3268566
  73.9196777 159.8065186  20.5456390  74.2100220 160.0351562  19.6056786
  72.6801834 160.3762207  21.0532036  72.8969269 160.5808258  22.1016579
  72.3818359 161.7281952  20.3006496  71.7774811 162.3716125  20.9400883
  73.3563614 162.1919556  20.1479187  71.6674042 161.5652313  18.9648972
  72.2682724 162.1332703  18.2546959  71.6081696 160.5145721  18.6808109
  70.2120132 162.1099701  18.9831734  70.0331650 163.0641174  19.4788971
  69.8892746 162.4627533  18.0036297  69.2217941 161.1512146  19.4351482
  69.0477142 161.1593781  20.4299984  68.5748215 160.1808014  18.7572136
  68.7751770 159.8732300  17.5352974  69.4404297 160.4092255  16.9965534
  68.1064301 159.2307434  17.1351891  67.5998840 159.5314789  19.4377480
  67.2728043 159.8049164  20.3533611  66.9555511 158.9204254  18.9565582
  71.4945755 159.3695679  21.0836697  70.5401230 159.4525452  21.7849350
  71.7063675 158.2310944  20.3391457  72.5040741 158.2534943  19.7200546
  70.9664459 156.9507751  20.3999481  69.8841858 157.0784454  20.3769035
  71.3572006 156.0733490  19.2210388  70.8948059 155.0863190  19.2138233
  70.9928055 156.6000977  18.3390789  72.7529602 155.8807831  19.3276100
  73.1242523 155.3035278  18.6564140  71.1890640 156.2012634  21.7538929
  70.2620010 155.7503967  22.3334370  72.4372482 156.2201691  22.3169346
  73.1259079 156.6668243  21.7284107  72.7805786 155.5964203  23.6465816
  72.1127472 154.7598877  23.8523331  74.2273560 155.0391388  23.5390835
  74.8907013 155.8882294  23.3743439  74.5583267 154.6287079  24.4930782
  74.3431549 154.3407745  22.7102509  72.5345840 156.5476074  24.8853168
  72.4705276 156.0349579  25.9775085  72.3071823 157.7916565  24.7080345
  72.5038681 158.2114868  23.8107262  71.9398499 158.6929932  25.8294926
  72.5259628 158.3704681  26.6900463  72.4445190 160.2002869  25.5093517
  71.9216537 160.4711761  24.5921097  72.1241531 160.8168945  26.3491573
  74.0002975 160.3544617  25.3902016  74.4057236 159.5926666  24.7243195
  74.3037720 161.7748871  24.8376637  73.8642349 162.4740601  25.5490494
  75.3890457 161.8762970  24.8393211  73.8483582 161.9088135  23.8564587
  74.6239090 160.2232208  26.7361927  74.5422287 159.2294006  27.1763744
  75.6807098 160.4631195  26.6190701  74.1690216 160.9317932  27.4283638
  70.4371567 158.7184601  26.2323933  69.5845184 158.5444489  25.4171276
  70.2247849 159.0157623  27.5329762  71.0206223 158.9745026  28.1534958
  68.8769531 159.2344208  28.1865635  68.1510010 159.3137512  27.3773632
  68.4696960 157.9605560  28.9148369  68.5388260 157.1054840  28.2423973
  69.1899567 157.8538361  29.7259769  67.0678940 157.9202423  29.5053406
  67.0112534 158.8486633  30.0736008  65.9455109 157.8147430  28.4748592
  66.0335617 156.9200287  27.8585663  64.9046249 157.8783417  28.7920361
  66.1442719 158.5888672  27.7336788  66.8082123 156.8206635  30.4778595
  67.4097900 156.9184875  31.3815384  65.7609100 156.8868103  30.7726307
  66.9191589 155.8214722  30.0566502  68.8619843 160.4745483  29.1216202
  69.6668625 160.5337982  30.0958424  67.8566818 161.3966522  29.0769844
  67.0617371 161.7052460  27.9326553  66.0761414 161.2642670  28.0818253
  67.4772339 161.2082214  27.0560532  67.0206451 163.2332916  27.7807884
  66.0306015 163.4609222  27.3857136  67.8112946 163.6406097  27.1506481
  67.1693268 163.8119965  29.1486359  66.1812515 164.1994019  29.3971004
  67.8956528 164.6222839  29.2116585  67.6865005 162.6141510  29.9716721
  68.6432724 162.9307861  30.3869038  66.8202057 162.2890167  31.1880798
  65.9047318 163.0236511  31.4777374  67.1575546 161.2637329  31.9961758
  68.0218124 160.7782135  31.8027248  66.4719391 160.9138336  33.2721214
  65.4000854 160.8149872  33.1004868  66.9713135 159.5320892  33.8557091
  66.8862915 158.8020630  33.0507698  68.0381165 159.6867371  34.0173378
  66.1780243 159.2366486  35.1740875  66.3485489 160.0499420  35.8794746
  65.1113510 159.2621918  34.9512100  66.5742416 158.0031891  35.8731079
  67.6567154 157.8775940  35.8490715  66.2059250 158.0481720  36.8980141
  65.8962250 156.8206329  35.2644920  65.6500931 156.8030548  34.2851028
  65.5634537 155.7816467  35.9914360  65.7212601 155.7427368  37.2532043
  66.0091019 156.5324097  37.8132515  65.5474167 154.9014435  37.7843361
  65.0799255 154.7063446  35.4257507  64.7901764 154.7613678  34.4597702
  64.5508270 154.0732269  36.0082626  66.7205582 162.0118408  34.3276405
  65.7314606 162.5476074  34.8376389  67.9058762 162.3343353  34.6451874
  83.9834824 154.6672211  13.9197083  84.5415039 153.4165192  14.2361250
  82.6561279 154.5943756  13.9958038  83.7453308 152.3847046  14.7886171
  81.9370651 153.7819214  14.4712811  82.3309402 152.5213318  14.9335823
  84.0822754 151.2241974  15.4080782  81.9077530 151.4007263  15.6123400
  82.8624344 150.5837402  15.0568151  84.0123062 151.2436981  16.7768269
  82.1922760 151.4003296  16.9954472  82.7294388 149.2302246  14.9218912
  83.2530136 151.8629150  17.7983685  83.6724319 148.5305176  14.5344534
  84.3253098 156.1412201  11.4243784  84.7098236 156.6858978  12.4493999
  84.7473297 155.8589325  13.6599360  85.0756454 158.1026611  12.4701862
  85.0296402 156.6903839  14.6057644  85.3577194 158.8681946  13.6735096
  85.2812271 157.8195648  14.7314711  85.6590118 160.0683746  13.7547045
  85.0448532 158.6468811  11.6161070  85.8586349 153.2147675  14.1142063
  86.4411087 152.0565948  13.8864689  81.4731674 148.8172150  15.2310495
  81.0098724 147.4286194  14.9318686  81.0861511 147.2007294  13.4580708
  79.6434860 147.2842712  15.3984261  81.8376312 146.4456177  15.6471567
  83.1491470 150.5422668  17.9742546  83.1336823 149.3865204  18.8642597
  83.7472839 149.3702545  20.1843834  82.7332993 148.0493469  18.5441761
  83.7959213 148.3302917  20.8777905  82.8041153 147.0849457  19.2413883
  83.4349060 147.2465363  20.3309155
