Cpptraj Generated Restart                                                       
   35  4.0000001E-01
  88.1348343 150.4963074  18.3164864  88.2530060 150.7838593  16.8700123
  87.4738083 149.3520660  17.6494198  87.9634399 150.6033173  15.6463795
  86.9011459 148.7688446  16.6562519  87.1219482 149.3436737  15.2187548
  87.8123169 148.4325867  14.3130493  85.9013367 149.4858856  14.1660681
  86.7920074 148.7630157  13.6432819  85.4410477 150.7143402  13.7946091
  84.2562103 151.4300232  14.1877232  86.3429489 151.7463684  13.2116728
  83.8126373 152.7448730  14.1804600  85.9240265 152.9048004  13.2854023
  84.8474197 153.6296234  13.7194195  84.6783066 155.0127411  13.6395855
  85.0701828 155.9460907  12.5165672  84.4224167 155.7913055  14.6363630
  85.3785553 155.5464478  11.4179449  85.0950851 157.3821564  12.7503357
  84.5294876 156.9361877  14.9338169  84.9602203 158.0419159  13.9898567
  85.1181564 159.2453918  14.1667070  85.4035645 157.8647003  11.9145317
  82.5980835 153.1879272  14.5643559  81.6524048 152.3226013  15.0144014
  89.0876923 149.6755676  17.8986397  93.4182739 146.5447540  17.5359650
  92.4390640 148.0184479  17.8016815  91.0726395 148.0332336  17.7186108
  92.9285889 149.2025146  18.1391621  90.3300858 146.9863739  17.5323296
  90.5112991 149.3402252  17.8735561  92.6471329 150.3702087  18.2328491
  91.4081192 150.4410400  18.1700211
