Cpptraj Generated Restart                                                       
   37  4.0000001E-01
  84.0216980 153.9717102  13.6059217  84.5351562 152.9276428  12.7827110
  83.0488434 153.5191956  14.3780336  83.9373627 151.7109070  13.0043812
  82.3320312 152.3318634  14.6627035  82.7903137 151.2154236  13.8393946
  81.8075027 151.7403717  15.8043318  82.4411774 150.0736542  14.4819021
  81.2718658 150.6531830  15.0640192  82.6931152 151.1292725  16.6833439
  83.1656494 149.7387238  15.5738039  80.0300369 150.0660400  15.2871161
  83.0962982 149.8472137  17.0040703  79.6998138 149.0740814  14.6924219
  84.5208588 155.6884003  11.2951612  84.6632156 156.1613464  12.3966980
  84.5419388 155.3134918  13.5915394  84.9891586 157.5872040  12.5343876
  84.6943817 156.1023865  14.6365833  85.1859894 158.2875214  13.7999830
  84.9709320 157.2219086  14.8234606  85.4627686 159.4704895  13.9444981
  85.0446320 158.2036133  11.7321835  85.6132507 153.1223450  11.9167604
  86.2759018 152.0831909  11.4359798  79.3339539 150.6541443  16.3184853
  78.0681381 150.0806732  16.8571377  76.9517136 150.1922455  15.9221306
  77.6597137 150.9010620  17.9960651  78.1676712 148.6752167  17.2872772
  84.2210236 150.5682526  16.5974503  85.6309128 150.6022339  16.5430679
  86.4309921 151.4508820  15.7064419  86.4140778 149.5695496  17.1696625
  87.6418457 151.2752380  15.6429081  87.6373367 149.4794159  16.9756069
  88.1729813 150.3137512  16.2076607
