Cpptraj Generated Restart                                                       
   39  4.0000001E-01
  84.5548935 154.0882111  13.7804317  85.8931580 153.6971130  13.4992809
  83.5458374 153.1569519  14.0013819  86.2404404 152.3429718  13.7148972
  84.1000824 151.9884949  14.0793962  85.2900314 151.3614197  13.9784584
  87.4427719 151.6635132  13.6446295  85.9196472 150.1065826  13.9882059
  86.8406525 150.5344543  13.0341291  87.9722214 151.1821442  14.7606611
  86.7321167 149.8578949  15.0422297  87.5193481 149.6741638  12.0963230
  87.5687485 150.5460510  15.9580107  88.6447144 149.8640137  11.6233921
  84.3230286 155.6164246  11.3666677  84.4015961 156.1992340  12.4490013
  84.2061081 155.4294281  13.7124796  84.7665253 157.6200867  12.5073309
  84.4755478 156.2900696  14.6649008  85.0085220 158.3997650  13.6961985
  84.7901306 157.4032745  14.8012533  85.3351898 159.5662689  13.8126507
  84.7568665 158.1618805  11.6512051  86.8578110 154.6358643  13.1439734
  87.4081650 154.4644775  11.9504929  82.1776123 153.4349365  14.1622753
  81.3821487 152.4056854  14.4724388  86.7521896 148.5848541  11.8872137
  87.2846832 147.3890228  11.1478262  88.3788605 146.7490845  11.8601933
  87.5617828 147.7073212   9.7058411  86.1770096 146.3621674  11.2222376
  88.3634567 149.6251068  15.2926092  89.5861664 148.8776093  15.2754793
  90.0878525 148.0106812  14.2615948  90.5806274 149.1267700  16.3075638
  91.2107849 147.4922028  14.3644829  91.5856094 148.3849030  16.3827991
  91.9186401 147.7246857  15.3801785
