Cpptraj Generated Restart                                                       
   36  4.0000001E-01
  81.7930450 148.5911407  12.8959732  80.7968292 148.3320618  13.5975885
  80.9017410 148.3091278  14.9756365  79.5018387 148.1439819  12.9915972
  79.9020233 148.2292938  15.8308916  78.2625427 147.9303894  13.4184027
  79.1929550 148.0998688  11.7055073  78.5095978 148.1289520  16.0005894
  77.7704468 148.0388794  14.7033195  77.8111877 147.8212891  12.1782084
  78.0765686 148.3796539  10.9298058  77.9270325 148.1410828  17.2452869
  76.5039139 147.9708862  15.1257515  76.5603638 148.0409088  17.2511177
  75.7609787 147.8450470  16.1398067  81.7968063 148.5374146  15.3919563
  75.9115219 148.2143860  18.4744968  76.0677261 149.4657440  19.2875023
  75.7567444 147.2531433  19.3343945  76.0493546 150.5647125  18.7826366
  76.0128555 149.3924713  20.7606678  75.7676010 147.1369171  20.5153046
  75.9274445 148.2092743  21.5172329  76.1045761 148.0622253  22.7056770
  76.2921677 150.2145386  21.2829399  78.7110062 148.2004242  18.3889503
  79.0720367 149.3860321  18.7966251  74.3720322 147.7349243  16.1073380
  73.9400635 146.5354004  16.3281994  78.3571014 147.0870514  10.8472347
  78.7222900 146.0319977   9.9349871  79.9986115 145.3122101   9.8658581
  77.9202118 145.7954865   8.7539206  80.2284088 144.5455933   8.9142590
  78.4263000 145.2236481   7.7637324  79.4226913 144.4545441   7.9333754
