Cpptraj Generated Restart                                                       
 6188  4.0000001E-01
  90.2689514 180.8136902  24.0776596  91.2525711 180.7889862  23.8496513
  89.9970551 179.8762360  24.3371906  90.0841675 181.4275818  24.8580952
  89.3356323 180.9469757  22.8867817  88.3111115 180.7920380  23.2250919
  89.4727707 182.2651825  22.1058502  90.4792862 182.2058716  21.6917229
  88.7579346 182.2149353  21.2845211  89.2928619 183.5542755  22.9453983
  88.4921341 183.3984985  23.6683502  90.1649246 183.6076965  23.5971394
  89.2046356 185.1517639  22.1386719  87.4314804 185.2878876  21.6370258
  86.8616486 185.3273468  22.5653763  87.3430939 186.2652740  21.1626759
  87.1453400 184.5094604  20.9297123  89.4197540 179.8126831  21.8971424
  90.4765244 179.2894897  21.5363960  88.3542709 179.4613037  21.1994534
  87.4841080 179.8901367  21.4805756  88.2968140 178.4286652  20.1266155
  88.9260101 177.5834045  20.4054394  86.8943253 177.7418671  20.0240593
  86.1975708 178.5293732  19.7368755  86.8662567 176.6146088  18.9568348
  87.3785019 175.7230530  19.3184948  85.8492508 176.2546692  18.8011341
  87.2845154 176.9489288  18.0074100  86.4374008 177.2583008  21.4129410
  85.8128738 176.3791046  21.2545567  87.3296814 176.8959045  21.9234371
  85.6174927 178.2711029  22.2317982  84.7090836 178.5592804  21.7027798
  85.3082581 177.7675018  23.1476917  86.1485519 179.1902161  22.4793873
  88.8724594 179.0182953  18.8449707  88.7627411 180.1548767  18.4771709
  89.6939011 178.1772003  18.1713676  89.8053360 177.2368469  18.5226688
  90.3667526 178.3966522  16.8957214  89.9058838 179.2810364  16.4557495
  91.8412933 178.6564941  16.9854050  92.2616577 178.8469696  15.9979258
  91.9213715 179.5811920  17.5569267  92.6633148 177.5434875  17.6927776
  92.3572845 176.3270264  17.6486835  93.6669388 177.8033600  18.4527626
  94.1516266 177.0601196  18.9352341  94.1169662 178.7064514  18.4080296
  89.9293289 177.3955536  15.8125992  90.2121735 177.5665894  14.6278992
  89.2084351 176.3656158  16.2393036  89.0914383 176.2670593  17.2376499
  88.8022385 175.2267456  15.4259195  89.5819473 174.7867584  14.8041763
  88.2249222 174.0879974  16.2772408  89.0057220 173.5734100  16.8372860
  87.3640671 174.4666748  16.8282757  87.6142502 173.0086823  15.4351006
  88.4522858 172.2017365  14.6797485  89.5193787 172.3682251  14.6775608
  87.9449463 171.2358246  13.7986097  88.6346893 170.5855408  13.2811451
  86.5306549 171.0894928  13.7084293  86.0768967 170.3996429  13.0122843
  85.7147598 171.9699249  14.4454784  84.6491470 171.8910065  14.2884674
  86.1950455 172.9332581  15.3432722  85.5884476 173.5798798  15.9599590
  87.8185196 175.8277740  14.3875790  86.8812866 176.5858459  14.6403284
  88.0649948 175.4841003  13.1077042  88.8157501 174.8519897  12.8691826
  87.1786118 175.9766235  12.0114527  86.8846512 177.0185242  12.1384678
  87.8645020 175.9305573  10.6820383  88.7453079 176.5691986  10.7485476
  88.1453552 174.9114532  10.4162846  87.0474396 176.4847260   9.4993315
  86.1156387 177.2692566   9.7770939  87.3562393 176.2450867   8.3060904
  85.8964386 175.1061707  11.9280300  85.7336426 174.0070190  11.3815460
  84.8539124 175.6895447  12.5396643  85.0884323 176.5984650  12.9124241
  83.5197601 175.0552216  12.8314438  83.6432190 174.1694794  13.4545908
  82.6275711 176.0611572  13.6479006  81.5778275 175.7712555  13.6019840
  83.0425568 176.0709839  15.1106091  84.0810928 176.3903198  15.1975451
  82.3946152 176.6584473  15.7611113  83.0781937 175.0227509  15.4072981
  82.5996246 177.3735962  13.1212521  82.0573349 177.9367828  13.6783323
  82.6847076 174.5634308  11.5943079  81.7333221 173.8147430  11.7100124
  83.1240463 175.0028534  10.4160900  84.0052261 175.4894409  10.3332405
  82.6161118 174.4877167   9.1617432  81.5812836 174.1701508   9.2897253
  82.6306610 175.5932922   8.1359520  81.8399734 175.4003296   7.4109159
  82.4448776 176.5923462   8.5302715  83.8514328 175.6461639   7.5495267
  84.3260193 176.4733124   7.6599736  83.2745895 173.1330261   8.7237082
  82.7288132 172.4935150   7.8325300  84.3134384 172.6723785   9.4245186
  84.8176498 173.2036743  10.1199179  84.9818726 171.4082642   9.0368557
  85.0960617 171.4943085   7.9562707  86.2851639 171.2589569   9.7634497
  86.1273041 171.4766235  10.8197641  86.6804657 170.2431641   9.7587690
  87.4008408 172.2007294   9.1995440  87.1045380 173.2351227   9.3736610
  88.7303009 172.0423126   9.9615946  89.2855682 171.1170197   9.8079519
  89.3777542 172.8955078   9.7591867  88.4614563 172.0043335  11.0172348
  87.6360016 171.8757172   7.7213736  86.7889099 172.2083893   7.1214771
  88.5275574 172.4183350   7.4070582  87.8753662 170.8175964   7.6156034
  84.1268234 170.1412201   9.1468458  84.2556839 169.2541656   8.2807417
  83.2424240 169.9638824  10.1556282  83.1031570 170.6776581  11.4113865
  82.3634567 171.4703064  11.2989264  84.0261765 171.1252594  11.7798662
  82.5611038 169.6004791  12.4173908  82.1531982 170.1087189  13.2911196
  83.3601837 168.9010315  12.6630564  81.5686874 168.8388214  11.5026608
  80.5707855 169.2667542  11.4068851  81.5642242 167.8077545  11.8562174
  82.1777420 168.9123383  10.1065311  82.7664185 167.9984741  10.0265169
  81.1185303 169.0165100   8.9647789  80.7360306 168.0132751   8.4545813
  80.6668320 170.2192535   8.6462355  81.1979218 171.0160522   8.9674330
  79.5199127 170.5311737   7.7667956  78.7362137 169.8102417   7.9995308
  78.9032898 171.9056702   7.9861526  78.2279434 172.1628113   7.1701293
  77.9528961 171.8981323   9.2164917  78.6342850 171.8348846  10.0649090
  77.2749557 172.7314453   9.0318508  77.3307190 171.0032043   9.2064142
  79.8272781 172.9901276   8.1654148  80.2714996 173.0768585   7.3188076
  79.8353729 170.3420410   6.2595420  79.0094376 170.0704498   5.4145703
  81.1869812 170.3033600   5.9280653  81.9214630 170.4708252   6.6008258
  81.6850510 169.8598175   4.6443806  80.9077072 170.1410980   3.9339409
  82.9200211 170.5857239   4.1595731  83.2896652 170.1844482   3.2159405
  82.6173935 171.6145477   3.9645424  83.9218369 170.5298462   5.1465626
  84.5354767 171.2435455   4.9576550  81.9411545 168.3503723   4.5811057
  82.2010574 167.8769684   3.4277625  81.8442688 167.6003571   5.6936202
  81.5608063 168.0996552   6.5245490  81.9393921 166.1205750   5.7041798
  82.0441513 165.8661041   6.7588687  80.6136398 165.4600067   5.2723017
  80.3801422 165.8167725   4.2691550  80.7942734 164.3857117   5.2355595
  79.5466003 165.7673492   6.3412695  79.4949570 165.1103210   7.5245414
  78.4944000 165.6577606   8.1484108  78.0930786 165.2536316   9.0660257
  77.9267502 166.6838684   7.4999166  77.1497498 167.2415619   7.8244858
  78.5902176 166.7630615   6.2855477  78.2483139 167.3144531   5.4221492
  83.2332306 165.5337830   5.0977039  83.2413406 164.4467926   4.5190940
  84.4022141 166.2172852   5.2166786  84.4525833 167.0467529   5.7907553
  85.6927261 165.8763733   4.5144782  85.5266724 166.1622314   3.4758229
  86.8473282 166.6995087   5.0512552  86.9064407 166.5733795   6.1323180
  87.7438965 166.2267609   4.6502843  86.7591019 168.1626740   4.7008138
  86.7107086 168.2325134   3.6141307  85.8015671 168.4837646   5.1108584
  87.9989014 169.3117218   5.3550539  89.4836121 168.5606232   4.6353974
  89.3426056 168.4194641   3.5638120  90.3146057 169.2610168   4.7190957
  89.6622467 167.6244049   5.1642642  86.0475616 164.4010010   4.6175737
  86.5419006 163.8665924   3.5848408  85.8194962 163.7570801   5.7772508
  85.1423416 164.2150879   6.3703752  86.1395035 162.3397980   5.9548125
  87.2233353 162.2355804   5.9042020  85.7669907 161.9143524   7.3678236
  86.2128830 160.9479523   7.6030879  86.1755295 162.6598358   8.0500660
  84.2167587 161.9228058   7.4848075  83.5791931 163.1521759   7.8618355
  84.1688004 164.0364227   8.0538731  82.1793137 163.1259003   7.9095140
  81.7083664 164.0005493   8.3333120  81.3945770 161.9989471   7.5387526
  80.0638428 161.9129639   7.6704755  79.6799927 162.7792511   7.5161819
  82.0927200 160.7863312   7.3122272  81.5582809 159.8518372   7.2255363
  83.4799805 160.7317352   7.1818218  84.0332031 159.8306885   6.9616981
  85.4980774 161.4163361   4.9154973  86.0444870 160.3263245   4.7331710
  84.4219971 161.7470398   4.1993752  84.0407333 162.6750336   4.3157773
  83.7334442 160.9351349   3.2362115  83.8002625 159.8764038   3.4866810
  82.2631683 161.3452301   3.3018162  81.9642029 161.3389282   4.3499951
  82.2065430 162.3695831   2.9335835  81.2128220 160.4527130   2.5388162
  81.5175552 160.2130432   1.5200945  80.8669739 159.1331482   3.2698622
  80.0744553 159.3458710   3.9873381  80.3481903 158.4813232   2.5669403
  81.7794724 158.7292175   3.7083642  79.8650436 161.2175751   2.3976941
  80.0778351 162.0688019   1.7509819  79.1418686 160.5688477   1.9034586
  79.4727631 161.6027985   3.3388796  84.3151550 161.0544739   1.7901905
  84.1266785 160.1520691   0.9558011  85.0106354 162.1475525   1.5166885
  85.3179550 162.7458496   2.2701478  85.7226944 162.3127441   0.2036285
  86.7555542 161.9651337   0.2251757  85.2336807 161.7318726  -0.5783918
  85.7197647 163.7588806  -0.3376020  84.6555252 164.4013672  -0.3079554
  86.8442383 164.2499084  -0.8597162  87.6736755 163.6741486  -0.8344845
  86.9130402 165.4740753  -1.7184854  86.2393494 166.2189941  -1.2950288
  88.3416977 166.0205688  -1.5094179  88.4278488 166.9738617  -2.0308774
  88.5853500 166.1848450  -0.4597759  89.1956253 165.0418854  -2.0986972
  89.9918137 165.4693451  -2.4226904  86.6413879 165.1878662  -3.2260129
  86.6312790 164.0140381  -3.6472199  86.3363876 166.1900024  -4.0139480
  86.4407120 167.1349945  -3.6730492  85.9059372 165.9705200  -5.3684273
  85.5394135 166.9368896  -5.7146802  87.1400146 165.4994812  -6.2216296
  87.9620590 166.1094513  -5.8470736  87.4335175 164.4707336  -6.0127554
  87.1072083 165.7922363  -7.7679744  86.2152557 166.4555511  -8.3094282
  88.0089798 165.2136383  -8.4403868  84.6531830 165.0291595  -5.5760651
  84.7901077 163.9768829  -6.2087922  83.4467392 165.3941803  -5.0463171
  83.3336105 166.1976776  -4.4449048  82.1791916 164.7226410  -5.3722324
  82.3464966 163.7688904  -5.8726993  81.3685455 164.5222321  -4.0572000
  81.3040848 165.4921722  -3.5640883  80.3665314 164.1673889  -4.2983446
  82.1029053 163.4486542  -3.2050560  82.2286682 162.5356445  -3.7870429
  83.0845795 163.8652191  -2.9794641  81.4302826 163.0566254  -1.5866332
  79.9703598 162.1238708  -1.9762752  80.2344284 161.3959198  -2.7433805
  79.5951080 161.6676331  -1.0602342  79.1684799 162.7740936  -2.3259714
  81.4264069 165.6019897  -6.3956318  81.5998688 166.7943878  -6.5298076
  80.5279312 165.0357208  -7.1848011  80.1907883 164.0942383  -7.0432396
  79.6701355 165.8424683  -8.1002874  80.2611847 166.6382141  -8.5536489
  79.1683578 164.8583679  -9.2217636  80.0039063 164.3863831  -9.7386684
  78.7165298 164.0040131  -8.7177353  78.1944275 165.3229218 -10.3103113
  77.2688675 165.6474304  -9.8347712  78.5699387 166.2174072 -10.8072958
  77.9149933 164.2015228 -11.3210754  77.6198349 163.0445557 -10.9050121
  77.9227982 164.4960785 -12.5539989  78.4941635 166.5212250  -7.3905935
  77.5437088 165.8184814  -7.0793161  78.4966354 167.8855133  -7.2211819
  79.3126602 168.3345642  -7.6117625  77.4111862 168.6221619  -6.6378121
  76.9511032 168.1422882  -5.7740102  77.8602448 170.0126495  -6.2412338
  78.3451004 170.5162506  -7.0775294  77.0011826 170.6338348  -5.9877887
  78.9044647 170.0289917  -5.0420113  78.4581680 169.5562286  -4.1671300
  79.8488159 169.6016693  -5.3792138  79.1835632 171.5073700  -4.5866842
  78.6261139 172.4782562  -5.2530522  79.9430771 171.7590485  -3.6032367
  76.3235550 168.8421021  -7.6458349  76.5618820 169.0298309  -8.8412857
  75.0453186 168.7975616  -7.2375469  75.0653229 168.7093506  -6.2316060
  73.7637253 169.1088257  -7.9258533  73.9135361 169.1454010  -9.0048933
  72.7182465 167.9949341  -7.5500317  72.6489716 167.9595032  -6.4628119
  71.7781067 168.3374786  -7.9823594  73.0669708 166.6500244  -8.1955662
  72.8781128 166.4069214  -9.5876617  72.5376053 167.1694489 -10.2724981
  73.0761414 165.0876923 -10.1123896  72.8453217 164.8809357 -11.1469765
  73.5300446 164.1027222  -9.2637787  73.7254257 163.0929260  -9.5932531
  73.6122437 164.3245850  -7.8649282  73.8576508 163.5319824  -7.1735868
  73.4196091 165.6061096  -7.3378072  73.3967743 165.6893463  -6.2612615
  73.3096695 170.5104675  -7.4676642  73.7495041 171.0924225  -6.4577961
  72.3192978 171.0753174  -8.1348686  71.9900742 170.6062622  -8.9665480
  71.8107529 172.5102386  -7.9682736  72.0472183 172.8802032  -6.9706168
  72.4318924 173.4757385  -9.0157013  72.0596771 174.4878235  -8.8568106
  73.4897766 173.5592041  -8.7666578  72.4338837 172.9873505 -10.4639378
  73.2214127 171.9169312 -10.9200945  73.0364761 171.8778534 -12.2490864
  73.4352646 171.0953217 -12.8775797  72.2231827 172.8488922 -12.6542387
  71.9086838 172.9338379 -13.6102591  71.8583755 173.6211243 -11.5559921
  71.2618103 174.5204926 -11.5153084  70.2593384 172.6133728  -8.0199728
  69.6232986 173.2317963  -7.1260619  69.6364517 172.0019226  -9.0041332
  70.1542892 171.5494995  -9.7439041  68.1530228 171.9923096  -9.2007456
  67.7707596 173.0051117  -9.3280640  67.9479904 171.4932709 -10.1478529
  67.4340820 171.2911072  -8.0734682  67.9887466 170.3275909  -7.5172405
  66.2404556 171.7406921  -7.6337733  65.7426758 172.5107574  -8.0572386
  65.4991302 171.1668701  -6.4418168  66.1137314 170.4575958  -5.8874698
  65.2087936 172.3448792  -5.4522886  64.5362930 173.0671387  -5.9151034
  64.8133545 171.9293976  -4.5254116  66.4302216 173.1753082  -5.0265007
  66.8489685 173.5319824  -5.9675274  66.1637878 173.9986572  -4.3637710
  67.5220032 172.2973175  -4.3080168  67.0447311 171.7553253  -3.4915833
  67.9033661 171.6163177  -5.0688767  68.6886292 173.0594330  -3.8560824
  69.5613861 172.8207550  -4.3048801  68.6681824 173.9354401  -2.8542416
  67.6988831 174.2883301  -2.0721049  66.7470474 174.0027161  -2.2524886
  67.8294678 174.9624939  -1.3314618  69.7746582 174.6092682  -2.5923619
  70.6060944 174.5720215  -3.1645813  69.8901901 175.2268982  -1.8016146
  64.1328506 170.4578857  -6.6883845  63.3526649 170.8883820  -7.4919024
  63.7981415 169.4056549  -5.9439917  64.4197464 169.1107330  -5.2045803
  62.4916382 168.7534027  -5.8804026  61.9236145 168.9495544  -6.7897844
  62.6737289 167.1962585  -5.9002895  63.2779427 166.8389740  -5.0664001
  61.3706207 166.4189606  -5.8198714  60.7630196 166.4454651  -6.7244253
  61.6369629 165.3975983  -5.5478654  60.7890205 166.7333221  -4.9532590
  63.2455826 166.8190308  -7.1342692  62.7701569 165.9958038  -7.2679472
  61.7367821 169.2032318  -4.5828714  62.1541443 168.7860107  -3.4968917
  60.5992088 169.9303284  -4.7716575  60.3718185 170.2813873  -5.6909776
  59.5539627 170.0644226  -3.7696531  59.7900543 169.3644867  -2.9681265
  59.6607285 171.4327240  -3.0691721  59.6136742 172.1466064  -3.8915174
  58.7396126 171.6980896  -2.5502944  60.8305473 171.6897888  -2.2348285
  61.7131386 171.5013885  -2.8460884  60.8852577 173.1737671  -1.8315374
  60.0265198 173.3455811  -1.1825762  61.8049393 173.2790527  -1.2560326
  60.8523560 173.9319916  -2.6139166  60.9928665 170.8576813  -0.9442042
  61.1601906 169.8358917  -1.2848619  61.8434982 171.2574005  -0.3921655
  60.1122169 170.9373169  -0.3068545  58.1785011 169.8170319  -4.4492993
  57.7992668 170.6758423  -5.2814403  57.6403046 168.6545868  -4.1605043
  58.1151581 168.1594086  -3.4192801  56.2343330 168.1907349  -4.4195285
  56.1194611 168.1652069  -5.5031581  56.0834045 166.7937317  -3.8134091
  56.0713882 166.7972412  -2.7234809  55.1080055 166.4216614  -4.1268754
  57.0239868 165.7509003  -4.3128390  58.1719704 165.4334717  -3.6060903
  58.8181839 164.4847412  -4.3572621  59.7071953 163.9640656  -4.0333052
  58.1902924 164.3092651  -5.5323386  58.3933754 163.5347900  -6.1480064
  57.0651398 165.1882477  -5.5264511  56.3344650 165.1968689  -6.3217111
  55.2825546 169.1497955  -3.8008447  55.5121880 169.8260193  -2.7475386
  54.0448456 169.1941528  -4.3662572  53.8281898 168.5771484  -5.1359744
  52.9472656 169.9536591  -3.9077351  53.2474709 171.0011902  -3.8819342
  51.6858635 169.8561401  -4.8220325  51.4945908 168.8161469  -5.0864687
  50.8150902 170.2233887  -4.2789145  51.9640846 170.7343750  -6.0454564
  51.9069290 171.9914398  -5.8974719  52.0885925 170.1745605  -7.1791959
  52.5400620 169.6278076  -2.4451811  52.4745789 168.4671631  -2.0155418
  52.1182289 170.6470490  -1.6597252  52.0878220 171.5447998  -2.1214714
  51.5755119 170.3529053  -0.3856947  52.3236465 169.8190155   0.2002743
  51.3817444 171.6563873   0.3635245  50.6005936 172.2335663  -0.1312085
  50.9671364 171.4090271   1.3407763  52.7342453 172.3722992   0.6208532
  53.6678810 171.7763367   1.2184645  52.8107338 173.5400696   0.2278868
  50.2488441 169.5394287  -0.4221896  49.4031830 169.7196503  -1.3119719
  50.1990395 168.6074677   0.5219382  50.9714317 168.5538483   1.1704997
  49.3195305 167.4481659   0.6286540  49.7079315 166.7997131   1.4139985
  47.8495598 167.9616089   0.9507236  47.5762253 168.6522980   0.1530230
  47.0677490 167.2026672   0.9807559  47.7685623 168.6823120   2.3169608
  48.4528694 168.2453308   3.2883773  47.0471992 169.7118378   2.3741677
  49.2414818 166.5053864  -0.6037591  48.3503838 165.6849670  -0.7266104
  50.1327019 166.7043762  -1.5760502  50.8400650 167.4251099  -1.5597012
  50.0998077 165.7681274  -2.6865826  49.0790253 165.7380676  -3.0676248
  50.9205132 166.2669830  -3.8915904  50.6732178 165.6072388  -4.7232561
  50.6054268 167.2596436  -4.2132421  52.3298950 166.1005859  -3.8258929
  52.7471199 166.7196503  -3.2223372  50.5256271 164.2947083  -2.2868819
  51.3960114 164.1598358  -1.4139614  49.9460411 163.2624664  -2.8803937
  49.2352333 163.3906097  -3.5863924  50.1487923 161.8709412  -2.5484283
  50.5032959 161.8672485  -1.5176928  48.8015709 161.0435028  -2.7591219
  48.0429878 161.4998016  -2.1231627  48.4449158 160.9286041  -3.7826920
  48.9460144 159.3203125  -2.0690174  48.1510010 158.6763611  -2.9281867
  51.2113228 161.2576904  -3.4399297  51.0965538 161.3632507  -4.6420956
  52.2803383 160.6962891  -2.8573382  52.2451172 160.7510986  -1.8494413
  53.5076103 160.2827911  -3.5337083  53.2923775 160.1422577  -4.5929666
  54.5872040 161.3262177  -3.2372787  54.8045044 161.2406158  -2.1725941
  55.4836311 160.9701538  -3.7449648  54.3201790 162.8152771  -3.5711460
  53.4042625 163.1722565  -3.1002278  55.0479240 163.5249023  -3.1775494
  54.0940361 162.9946899  -5.0852017  54.2907486 162.1787720  -5.9551144
  53.5344162 164.1176910  -5.5904317  53.3832550 164.2653809  -6.5780787
  53.2312317 164.8700714  -4.9886713  53.8569908 158.8807068  -3.0972228
  53.4328995 158.4597015  -2.0500312  54.7719917 158.1881561  -3.8573785
  54.9876785 158.6175690  -4.7457347  55.4267578 156.9562073  -3.4732668
  55.2047310 156.8265076  -2.4140303  54.8236008 155.6629639  -4.1635947
  53.7593727 155.6048431  -3.9352529  54.8998680 155.8691101  -5.7173324
  55.9265289 156.0479431  -6.0368376  54.4920921 155.0029907  -6.2385201
  54.2440605 156.7168121  -5.9159155  55.4699326 154.2989197  -3.8959799
  55.2005501 153.9203491  -2.9099665  55.1806030 153.4566650  -4.5244737
  56.5497971 154.3280792  -4.0413837  56.9447060 157.0379333  -3.6629570
  57.4693298 157.5310669  -4.6649981  57.6889534 156.5885010  -2.6443651
  57.2802315 156.1881866  -1.8120196  59.1120644 156.9079742  -2.4597871
  59.5317421 157.0874176  -3.4496224  59.2671127 158.2380981  -1.6543475
  59.1267471 157.9671631  -0.6079288  60.7075996 158.9067230  -1.6265538
  60.9840469 159.3694458  -2.5739431  60.8117447 159.7126617  -0.9001186
  61.4434738 158.1285706  -1.4238834  58.2840538 159.3789062  -2.1043448
  58.4080620 159.4817810  -3.1823707  57.2649536 159.1232147  -1.8142480
  58.3398399 160.8441010  -1.4954615  59.0585022 161.4352722  -2.0630441
  57.3782616 161.3359222  -1.6423786  58.5072632 160.8456726  -0.4183972
  59.9553795 155.8065338  -1.8162334  59.6155128 155.1820068  -0.7947223
  61.1237946 155.4885712  -2.4056144  61.7260780 156.0490112  -3.6297395
  61.8632660 157.1291199  -3.5783181  61.0354156 155.7713470  -4.4259691
  63.0760422 155.3785095  -3.8286166  63.8759575 155.9575195  -3.3671167
  63.2720184 155.0301361  -4.8426805  62.9844398 154.1150665  -2.9998746
  63.9291344 153.7636414  -2.5849662  62.5700302 153.3387451  -3.6430628
  61.9837074 154.4571686  -1.8700681  61.2564621 153.6687317  -1.6762292
  62.7618103 154.9701233  -0.6071179  63.1174622 156.1207886  -0.4878993
  62.9760628 154.0179443   0.2703754  62.5730095 153.1124115   0.0763381
  63.7420197 154.0792542   1.5013367  64.1209946 155.0973969   1.5900524
  62.7814407 153.7528839   2.7009313  62.5164795 152.6955872   2.6971009
  63.5235825 153.8439026   4.0816355  63.7104340 154.8957825   4.2977715
  62.8588409 153.5007019   4.8743753  64.4676437 153.2991486   4.0716577
  61.5633659 154.5899353   2.9079750  60.9004364 154.4616852   2.0523019
  61.0367699 154.2010956   3.7795305  61.8671379 155.6255493   3.0606701
  64.8657913 153.0449677   1.3606470  64.5833893 151.8742523   1.0422064
  66.0968018 153.4626923   1.6677783  66.3155746 154.4277496   1.8700118
  67.1729660 152.5075226   1.7837939  67.2205124 151.9285278   0.8615077
  68.4782791 153.2252655   1.8607446  68.3716583 153.9628601   2.6561553
  69.2138901 152.4405212   2.0372424  68.9544601 153.9910583   0.6070054
  68.1217499 154.5349731   0.1610645  69.9765701 155.0596008   0.9771200
  70.8667297 154.7438812   1.5212164  70.2335434 155.5606537   0.0438472
  69.4637833 155.7193146   1.6770638  69.7366257 153.0231781  -0.3158299
  69.1391602 152.1178894  -0.4234169  70.0025711 153.4776154  -1.2702162
  70.6632156 152.7052307   0.1621480  66.8827362 151.6709595   3.0899029
  66.7460022 152.2285767   4.2056265  66.8068695 150.3305817   2.9519527
  66.9475555 149.5433350   1.7810082  67.9588165 149.6904602   1.4017874
  66.1026459 149.7511749   1.1244818  66.9621658 148.0873718   2.2123940
  67.9421997 147.6425171   2.3848138  66.4070358 147.5806885   1.4229670
  66.1790390 148.1242065   3.5388620  66.5482559 147.3449402   4.2055874
  65.1130142 148.0200348   3.3367884  66.5209656 149.4867859   4.1008954
  65.5931396 149.8785858   4.5177078  67.6072311 149.5249634   5.2398376
  67.1931686 149.2989044   6.3547120  68.8877487 149.7360992   4.9734316
  69.2406464 149.7371216   4.0270910  69.8822632 149.9255981   6.0812278
  69.5294266 149.3258209   6.9202023  71.2481537 149.4705353   5.6455183
  71.6424103 150.1317749   4.8738813  71.9973450 149.5811768   6.4294658
  71.3444138 148.0145111   5.2192321  70.8601227 147.4867859   4.0227323
  71.2122421 146.1517029   4.0494022  71.0864258 145.4205933   3.2645130
  71.7283173 145.9141846   5.2617970  71.9318466 144.9882355   5.6100841
  71.9073486 147.0396729   5.9625082  72.4480438 147.1675873   6.8886261
  69.8393097 151.2942505   6.7845817  70.7381210 151.4844971   7.6371675
  68.9239960 152.2648468   6.5494661  68.2302399 152.0933075   5.8357649
  68.8530884 153.5538330   7.2325678  69.8117447 153.9197540   7.6002192
  68.4306412 154.6201630   6.2077322  67.5168839 154.3108521   5.7003074
  68.1688614 155.9710236   6.8978930  69.1536026 156.2287140   7.2877579
  67.9814301 156.7622681   6.1720138  67.3729095 155.8773193   7.6366615
  69.4754944 154.7909241   5.0933418  69.5290146 153.8963165   4.4729176
  69.2482681 155.6183929   4.4212193  70.4760132 154.8983612   5.5123105
  67.8879776 153.4122467   8.4349251  66.7536087 153.2050934   8.2343292
  68.3899384 153.5396729   9.6844177  69.3876724 153.5005951   9.8364115
  67.5834808 153.3253174  10.8627615  66.6340714 152.8624115  10.5936146
  68.3057404 152.2650452  11.8286791  69.2991028 152.6345673  12.0831852
  67.7687759 152.1945801  12.7746201  68.4083481 150.9307098  11.0900726
  67.4024429 150.5290985  10.9677534  68.7949371 151.1631470  10.0977926
  69.4043961 149.5986938  11.8351755  69.8174438 148.8070221  10.2827005
  70.4222794 149.4801178   9.6750727  70.4544220 147.9570923  10.5276308
  68.8943787 148.4365997   9.8367805  67.2346115 154.5928955  11.6815367
  66.3066559 154.5643768  12.4944143  68.0378799 155.6444702  11.4558372
  68.6768112 155.6266632  10.6738234  67.8490677 156.9578247  12.0993423
  67.6206055 156.7711487  13.1486568  69.1373596 157.8274231  12.0451698
  68.8960571 158.7337952  12.6004734  70.3200378 157.2499084  12.9350071
  70.7223663 156.2892456  12.6135206  71.2397614 157.8325500  12.9872417
  69.9790955 156.9840851  13.9356070  69.5468216 158.1505127  10.6130123
  68.6618729 158.3439178  10.0067501  70.2036057 159.0204010  10.6159668
  70.0367508 157.2473145  10.2492571  66.6456909 157.7687073  11.5641260
  66.1031723 157.4789734  10.4900560  66.1676865 158.6772156  12.3442879
  66.6083679 158.6719513  13.2530642  65.1818771 159.6661835  11.9803867
  64.4630051 159.1448364  11.3483171  64.4028320 160.0153046  13.2614603
  64.0100708 159.0532532  13.5905552  65.0488129 160.4480286  14.0253639
  63.1325989 160.8753052  12.9005852  63.3995323 161.7244415  12.2714424
  62.4706879 160.2911682  12.2612419  62.1760674 161.4723816  14.3106813
  62.3513489 160.1199799  15.4817705  63.4076691 160.0018463  15.7232838
  61.8245811 160.3991241  16.3942909  61.8668213 159.2516327  15.0353260
  65.8215942 160.9391327  11.4361105  66.8243637 161.3470612  12.0488224
  65.4001770 161.4308929  10.2858410  64.5920563 161.0418549   9.8214188
  65.8920135 162.6570129   9.7334852  66.8757553 162.8838806  10.1444283
  66.1736832 162.5321350   8.1652212  66.6012955 161.5627441   7.9092350
  65.2298431 162.5013733   7.6208563  67.0467529 163.6161041   7.5430818
  66.5995789 164.5859985   7.7608709  68.4478302 163.4964905   8.0070076
  68.8278961 162.4832611   7.8766317  69.0445251 164.2825470   7.5442128
  68.4490204 163.5877991   9.0931797  67.0404816 163.4370117   6.0604939
  66.0473404 163.6641693   5.6729717  67.7179565 164.1453094   5.5835896
  67.2608185 162.3912811   5.8459926  64.9215012 163.8232574  10.0299559
  63.7282333 163.6840210   9.6507559  65.3395462 165.0055389  10.4866800
  66.3156204 165.1216736  10.7188196  64.5031509 166.2524567  10.5883837
  63.4585533 165.9430847  10.6232491  64.7761383 167.0029297  11.9042292
  65.8298950 167.2804565  11.9305553  63.9427872 168.3115997  12.0431032
  62.9602547 168.0792999  11.6322803  63.7784615 168.5816803  13.0862503
  64.4801102 169.1146240  11.5385885  64.4419098 166.0875092  13.0649986
  65.1433411 165.2552490  13.1235552  64.5668869 166.5985260  14.0196428
  63.0621071 165.4870758  13.2023878  62.8735275 164.6271362  12.5597019
  63.0001831 165.1169891  14.2257643  62.2246437 166.1671600  13.0466890
  64.7609024 167.1150055   9.3784943  65.8752747 167.0523682   8.8325129
  63.7750206 167.7765045   8.8041735  62.3490906 167.6531219   8.9003429
  62.0423660 168.0360565   9.8736782  62.0285339 166.6114044   8.8872623
  61.7466850 168.3337708   7.6514802  60.7917862 168.8274689   7.8318467
  61.5035248 167.5309906   6.9553933  62.7853355 169.3005219   7.2135878
  62.7067184 170.2617188   7.7215695  62.6939316 169.4864502   6.1434579
  64.1028442 168.6554260   7.6014252  64.3976364 168.0079041   6.7756515
  65.1821976 169.6107941   7.9237933  65.4262314 169.9649200   9.1054497
  65.9528656 170.0360107   6.9319396  65.7906570 169.6941376   5.9955020
  67.1287384 170.9078064   7.1798019  67.2608337 171.6076813   6.3546844
  66.7856293 171.5243988   8.0105753  68.3977280 170.2220612   7.5872135
  69.4963531 170.7001648   7.2574682  68.2656021 169.0020294   8.1355009
  67.3102188 168.7255096   8.3112421  69.3420410 168.1673584   8.6757832
  70.0000839 168.8252106   9.2435017  68.7638092 167.0910492   9.6516037
  68.1484299 167.6349182  10.3682642  68.1771927 166.3528900   9.1046953
  69.9249115 166.4250946  10.3793592  70.4842834 165.8316498   9.6561613
  70.6453323 167.1513977  10.7556286  69.3593903 165.5081940  11.4744883
  68.1437454 165.2673187  11.6351538  70.2408066 164.8399048  12.2375088
  70.1269531 164.0524292  12.8596296  71.2014542 164.8722076  11.9273415
  70.0764084 167.6063232   7.4713774  69.4759750 167.0041962   6.5780439
  71.4079819 167.5788422   7.5562906  71.8075027 168.0884399   8.3313961
  72.3572311 167.0073395   6.5473995  71.7874146 167.1438599   5.6282835
  73.7476196 167.7473450   6.4699330  74.1372986 167.6156616   7.4793415
  74.7769775 167.2424316   5.4399190  74.2373047 167.1508942   4.4973245
  75.6236115 167.9268799   5.3864722  75.1791229 166.2620850   5.6954575
  73.5946655 169.1585388   6.2684135  74.4207611 169.6459503   6.3083496
  72.4770660 165.5163574   6.8522372  72.4007950 165.1312256   8.0199728
  72.7495270 164.5833435   5.8952332  72.5583954 164.8864899   4.9509482
  72.8579865 163.1475677   6.0268703  73.0589828 163.0306244   7.0917773
  71.4327316 162.6076202   5.7437000  70.6749115 163.0321655   6.4021630
  71.1496048 162.8742218   4.7254357  71.3593674 161.0616455   5.8147945
  72.0834351 160.6385345   5.1185112  71.7978973 160.4803925   7.1624789
  71.2436600 160.9804688   7.9567370  71.5249634 159.4288177   7.2508311
  72.8738403 160.5658875   7.3145938  69.9518356 160.5668640   5.4213214
  69.6000595 161.0249786   4.4969301  69.9395905 159.4944763   5.2265830
  69.2176056 160.9051514   6.1524658  73.9807205 162.5662079   5.0268168
  73.7112045 162.4343414   3.8208728  75.1352539 162.3119354   5.4849873
  75.5710220 162.6553345   6.8406305  74.9958267 162.1976013   7.6454563
  75.5318451 163.7419739   6.9165058  77.0879059 162.2185211   6.9348779
  77.2039413 161.2816162   7.4797101  77.7015076 162.9797821   7.4166417
  77.5457611 162.0627594   5.5246568  78.2889252 161.2886047   5.3336434
  77.9003296 162.9717102   5.0386677  76.2286987 161.6709747   4.7667446
  76.2971878 161.9870453   3.7258258  75.9620285 160.1835327   4.7762704
  75.4925766 159.6544800   5.7832770  76.2078400 159.4637299   3.7099471
  76.5457306 159.8870239   2.8574507  76.1465759 157.9815674   3.6568890
  76.1622772 157.5418854   4.6541524  74.6959839 157.5930023   3.1701798
  74.7643433 158.0451965   2.1807637  74.6049271 156.5097656   3.0901191
  73.4081116 158.0872040   3.8763831  73.4990692 159.1664886   3.9987502
  72.1576385 157.7710724   3.0217772  72.1821060 156.7325745   2.6915617
  71.3318100 157.9459839   3.7113464  72.0902557 158.4342346   2.1593606
  73.2534256 157.2588959   5.1589446  74.0626373 157.5062866   5.8460283
  72.2775803 157.4347839   5.6115828  73.3334808 156.1977539   4.9229689
  77.1954498 157.3711853   2.7584934  77.6807938 157.9833679   1.7815716
  77.5810013 156.0911865   3.0561514  77.3185272 155.8113403   3.9904432
  78.3442078 155.2100983   2.1700261  78.3800964 155.6650238   1.1801481
  79.7667236 155.0514221   2.7826157  80.2633896 156.0214233   2.7597995
  79.5972443 154.6848602   3.7950459  80.7098923 154.0640717   2.0787387
  80.2195129 153.0906372   2.0707216  80.8571014 154.3638458   1.0411602
  82.1184540 154.0071564   2.6130810  82.5989456 155.0161743   3.1399674
  82.8281479 152.8986053   2.4088202  83.8114471 152.9045715   2.6394172
  82.3694305 152.0380249   2.1459577  77.5200729 153.9232330   1.9601537
  77.1740952 153.2265625   2.9219315  77.2317123 153.5390015   0.6843992
  77.5454102 154.1409149  -0.0635358  76.3512421 152.4758148   0.3696034
  75.9898987 151.9360046   1.2449018  75.0848846 152.9441376  -0.4090609
  75.3475800 153.1835175  -1.4394938  74.4556122 152.0579681  -0.4917550
  74.2584839 154.1630554   0.0781775  74.9252090 155.0251160   0.0574551
  73.0991974 154.5492249  -0.8867164  72.3921432 153.7551880  -1.1269093
  72.5422897 155.4001770  -0.4944765  73.6344528 154.7960815  -1.8035961
  73.6409760 153.9565735   1.4617537  74.4961395 153.6953583   2.0851066
  73.2799072 154.8991089   1.8732948  73.0516663 153.0409241   1.5105867
  77.1953888 151.4924469  -0.4645250  77.6034164 151.7869263  -1.6036788
  77.4755096 150.2952881   0.1247302  77.2843857 150.2304230   1.1143575
  78.2760391 149.1994629  -0.4300240  78.7540665 149.5200653  -1.3556619
  79.3654480 148.8090057   0.6318617  79.9575195 147.9405823   0.3430606
  80.0946121 149.5975494   0.8179163  78.8008347 148.4621277   2.0867875
  78.4727097 149.4837036   2.9887390  78.6936188 150.4975128   2.6891203
  77.7185364 149.1504364   4.1536808  77.3516922 149.9751892   4.7466373
  77.5565033 147.8273315   4.5167594  77.0747452 147.5484161   5.4422388
  77.9429779 146.8096771   3.6314454  77.5539246 145.8397064   3.9038041
  78.4633026 147.1550293   2.4009132  78.6115646 146.3379517   1.7103881
  77.3918304 147.9119873  -0.8294980  77.8913269 147.0847778  -1.5865970
  76.1763077 147.7827911  -0.2973272  75.9110565 148.3917084   0.4635617
  75.2434998 146.6786652  -0.5997887  75.8113861 145.7570648  -0.4721795
  74.1623154 146.5058289   0.5002478  73.7521286 147.4813385   0.7614389
  73.3222351 145.9385986   0.0994640  74.7176056 145.7506409   1.6874834
  74.9243088 144.3389893   1.5698178  75.0715942 143.9223328   2.8533301
  75.3317108 142.9065247   3.1119647  75.0478516 144.9990234   3.6892998
  75.1497040 145.0547638   4.6926041  74.6343231 146.1036682   2.9799511
  74.2183990 147.0207520   3.3702734  74.6613998 146.7704315  -2.0663991
  74.3885727 147.9148254  -2.4634569  74.5634079 145.6151733  -2.8487124
  74.5952148 144.2330475  -2.3657792  74.1536255 144.0714111  -1.3824298
  75.6348724 143.9060822  -2.3485970  73.8803177 143.3453369  -3.4325237
  72.8341599 143.2324066  -3.1480670  74.5052795 142.4525452  -3.4113438
  73.9923782 144.2172852  -4.7108002  73.1656265 144.1241150  -5.4150043
  74.8660583 143.9263458  -5.2940125  74.1843185 145.6958160  -4.2754011
  74.9556808 146.0930023  -4.9352131  72.9279404 146.5197601  -4.4901652
  72.8535233 147.4175110  -5.3607883  71.8448410 146.2757111  -3.7565317
  71.9108047 145.5075531  -3.1041021  70.4824829 146.8904877  -3.8844116
  70.3020248 146.8182831  -4.9569426  69.3810654 146.0712433  -3.0667131
  68.3985291 146.3735962  -3.4290714  69.4442749 145.0325012  -3.3909428
  69.3114548 146.0938568  -1.5413169  69.5524292 147.1290283  -1.2995749
  68.3319397 145.7944031  -1.1685053  70.3815002 145.2034302  -0.8469385
  71.4661942 144.9607697  -1.3136126  70.0207748 144.6706543   0.3090922
  70.6497803 144.0211029   0.7591470  69.0728302 144.8275909   0.6203479
  70.6060791 148.3510742  -3.5202193  69.9616241 149.1844482  -4.1414537
  71.3960953 148.7362518  -2.4923561  71.9717407 148.0914307  -1.9699091
  71.5453796 150.1536255  -2.1255736  70.5743866 150.6311340  -1.9942203
  72.3132019 150.3294983  -0.8276224  73.3153152 149.9028931  -0.8709232
  72.3471146 151.4122162  -0.7064613  71.5834885 149.8321533   0.4408597
  70.5350876 150.1276398   0.4814368  71.5817795 148.7425690   0.4102933
  72.3060989 150.2950439   1.7106507  73.4860764 149.9488831   1.8665625
  71.6825256 150.9887085   2.5334797  72.2431564 150.9775848  -3.2070158
  71.8611526 152.0844421  -3.4538481  73.2265167 150.4022522  -3.8885281
  73.6035995 149.5283661  -3.5505383  73.9031372 150.9588928  -5.0796304
  74.3239822 151.9322510  -4.8275042  75.0400391 150.0233917  -5.6041126
  74.7502670 148.9733124  -5.6423516  75.5994720 150.4984283  -6.9480786
  75.7788239 151.5735168  -6.9373193  76.5400467 150.0109863  -7.2046275
  74.9282303 150.2779236  -7.7780871  76.1747284 150.1881104  -4.4529614
  75.9121323 149.7940369  -3.4712057  77.0865707 149.6765594  -4.7611094
  76.4359970 151.2367706  -4.3110280  72.8387680 151.1595917  -6.2282763
  72.6479950 152.2708435  -6.6717257  72.1458511 150.0928192  -6.6433139
  72.3328705 149.2236023  -6.1641541  71.1550522 150.0303955  -7.7130060
  71.6520309 150.3439941  -8.6310320  70.5938416 148.6324768  -7.9157467
  71.4499207 147.9619446  -7.9906597  70.1302643 148.2698212  -6.9983182
  69.8933716 148.5603638  -9.1622343  69.2797089 147.8228302  -9.1950588
  70.0741730 151.0886078  -7.5495124  69.8750992 151.9589691  -8.3925629
  69.4050674 151.1232605  -6.3987222  69.5940170 150.4305267  -5.6884232
  68.3434143 152.0820465  -6.1585817  67.5273514 151.9536896  -6.8696828
  67.7846451 151.8271790  -4.7835469  67.6021576 150.7525635  -4.7816405
  68.4549332 152.1212158  -3.9758599  66.3804855 152.4382629  -4.4985089
  65.6798325 152.0258026  -5.2244925  66.0952454 152.0662384  -3.5144696
  66.2666397 154.2359924  -4.5150471  67.1444626 154.6940155  -3.0767987
  68.1859131 154.3723450  -3.0739000  67.0665665 155.7737579  -2.9495707
  66.6292343 154.1689301  -2.2724869  68.8296127 153.5599823  -6.2971311
  68.2978821 154.3421631  -7.0832958  69.8978424 154.0053711  -5.6135230
  70.4369278 153.3164062  -5.1087394  70.3815460 155.3674469  -5.8186173
  69.4876862 155.9752808  -5.6784492  71.4527893 155.8069916  -4.8319154
  71.7505493 156.8395386  -5.0142822  70.9771957 155.7505493  -3.4041111
  70.8239059 154.6979675  -3.1660335  71.6313782 156.3140259  -2.7388010
  69.9841919 156.1989288  -3.3725798  72.7320404 154.9729004  -5.0223608
  73.1411819 155.1526031  -6.0165439  73.4761429 155.2445068  -4.2736068
  72.5805969 153.9009552  -4.8954806  70.8265305 155.6946716  -7.2384233
  70.6596222 156.8606720  -7.6743236  71.4036484 154.7346344  -7.9523721
  71.4761124 153.8133240  -7.5449014  71.8824768 154.9088898  -9.3890963
  72.4694595 155.8252106  -9.4518538  72.7072678 153.6904907  -9.8955460
  73.5118027 153.5682526  -9.1703634  72.0470352 152.8294678  -9.9995699
  73.4075928 153.9767303 -11.1871567  72.8249969 154.4435577 -11.9813461
  74.1710205 154.7261658 -10.9783258  74.1493530 152.7527771 -11.7744617
  73.4261093 151.9403534 -11.8450613  74.4303513 152.9918976 -12.8001165
  75.3877029 152.4398193 -10.9825010  75.9236374 153.2091827 -10.6070442
  76.0278778 151.2717133 -10.8924570  75.6277008 150.2078705 -11.5076723
  74.8051758 150.3635712 -12.0727482  76.3008270 149.4610443 -11.6038666
  77.1331329 151.1802368 -10.2345257  77.5552597 152.0502472  -9.9430027
  77.4933167 150.2422791 -10.1315269  70.6216965 155.2412720 -10.2458868
  70.5613022 156.2941132 -10.8787251  69.5930710 154.4481812 -10.0872803
  69.7600403 153.6918793  -9.4390278  68.3495636 154.3895264 -10.8467197
  68.4764481 154.4236908 -11.9287701  67.6015549 152.9920654 -10.4953833
  67.3529892 153.0355530  -9.4349947  66.6390991 152.9332275 -11.0036230
  68.3792801 151.6990509 -10.8589296  69.3913345 151.6451874 -11.5513086
  67.9637985 150.5096588 -10.3982038  68.5678558 149.7188416 -10.5708885
  67.1381531 150.4070435  -9.8255930  67.3857193 155.5349426 -10.5518055
  66.5604477 155.8724823 -11.4391155  67.5170975 156.1642914  -9.3768501
  68.0847321 155.6934509  -8.6867857  66.8597870 157.4430084  -8.9940939
  65.8327942 157.4851227  -9.3568878  66.6668167 157.4169006  -7.4418979
  66.0448227 156.5547028  -7.2014322  67.6453400 157.2883301  -6.9792228
  66.1145477 158.6109619  -6.6964884  66.7790833 159.4467163  -6.9156303
  64.7289276 159.0134888  -7.2470593  64.0625610 158.1623383  -7.1070757
  64.2687531 159.8431854  -6.7104502  64.9111938 159.2935791  -8.2845716
  66.0946121 158.3053589  -5.2198906  67.0969162 158.3222351  -4.7918692
  65.5850372 159.1010132  -4.6764092  65.5081100 157.4090271  -5.0181632
  67.6484985 158.6649933  -9.5388126  66.9734192 159.6209869  -9.9279499
  69.0101166 158.6956024  -9.5310154  69.4403152 157.8585815  -9.1643467
  69.8603439 159.8954926  -9.7414160  69.4835739 160.6680908  -9.0711641
  71.3383636 159.6354828  -9.3108568  71.3895187 158.8336487  -8.5742846
  72.3473816 159.2683258 -10.4628305  72.3926620 160.1684875 -11.0758018
  73.3311234 159.1017151 -10.0239840  71.9388199 158.4474945 -11.0522566
  72.0672913 160.7537842  -8.5069685  73.1257782 160.5093536  -8.4177561
  71.9713974 161.7268982  -8.9885874  71.5732422 160.8319855  -7.0782075
  72.0345688 160.1009369  -6.4142485  71.9508972 161.8016052  -6.7536845
  70.4929352 160.6905975  -7.0460591  69.7877579 160.4582672 -11.1709089
  69.9869766 161.6591797 -11.3295765  69.4371796 159.6856079 -12.1715326
  69.5036163 158.6908722 -12.0096350  69.1530075 160.1777649 -13.5388327
  69.9796677 160.8391266 -13.7983351  69.1703491 158.9931335 -14.5423031
  68.7306976 158.1420746 -14.0222111  68.4921341 159.2038879 -15.3691711
  70.5177536 158.6639557 -15.1557674  70.3405609 157.8155975 -15.8168297
  70.7548141 159.4932556 -15.8222265  71.6443863 158.5043793 -14.1607466
  72.5059357 159.3534698 -13.9727058  71.7391586 157.4341583 -13.4604921
  72.5001221 157.3977203 -12.7973843  71.1296082 156.6726837 -13.7226171
  67.7898636 160.9610443 -13.6000910  67.5032349 161.6994629 -14.5569429
  66.9641495 160.7677917 -12.5569067  67.3824234 160.2154694 -11.8219862
  65.6521149 161.3963165 -12.2768745  65.4969788 162.1247864 -13.0727072
  64.4207306 160.5267944 -12.5796213  63.5607986 161.1788330 -12.4264545
  64.4578629 160.2281799 -13.6272640  64.4029770 159.2188110 -11.7205925
  65.2572250 158.6136780 -12.0242052  64.4991226 159.5613251 -10.6902857
  63.0500793 158.5302734 -11.9081650  62.8594322 157.8606720 -11.0694885
  62.2062073 159.2200165 -11.8926773  62.9184418 157.7012329 -13.2202578
  62.6359367 158.2889709 -14.0936737  63.8519516 157.1483765 -13.3252373
  61.7723694 156.6874390 -13.0899954  60.8843460 157.1676331 -13.1203976
  61.8148079 156.0509796 -13.8730822  61.8380966 156.0856476 -12.2815275
  65.5677795 162.3073273 -11.0325432  66.4465103 163.1784668 -10.9248743
  64.5564041 162.1602478 -10.2207813  63.9886665 161.3511658 -10.4285440
  64.1530151 162.9897614  -9.0690079  64.0932388 163.9890747  -9.5001783
  62.8176346 162.5371094  -8.4780998  62.4472847 161.7255096  -9.1043968
  63.0116806 162.1165619  -7.4913931  61.6927071 163.5906982  -8.4576845
  61.9612656 164.7389832  -8.3365116  60.5162201 163.2770538  -8.6348724
  65.1483231 163.1194305  -7.8853540  64.9348450 164.0385284  -7.0482106
  66.1727753 162.2610779  -7.7120318  66.3301926 161.6078033  -8.4660568
  67.0857391 162.2721710  -6.5689850  67.7493362 161.4117279  -6.6549325
  68.0492020 163.4694366  -6.4912753  67.4861908 164.4027710  -6.4871621
  68.5879745 163.4520416  -5.5438972  68.9598694 163.3600006  -7.7750292
  69.5240936 162.4274445  -7.7661538  68.3857193 163.3365173  -8.7012615
  70.0323334 164.4001923  -7.9768229  70.6965714 164.4350586  -7.1133008
  70.6788254 164.0194855  -8.7675285  69.4288025 165.7259216  -8.3806152
  69.4415665 165.8733521  -9.3797150  68.9639969 166.5913544  -7.5738401
  69.1471939 166.6296082  -6.2544909  69.6571503 165.9478149  -5.7111664
  68.6991577 167.3743744  -5.7400093  68.2342453 167.5876617  -8.0526857
  67.9916840 167.6063080  -9.0329552  67.9757767 168.3639374  -7.4604983
  66.4600601 162.1139526  -5.1069503  67.1959305 161.8030090  -4.1613503
  65.1775208 162.4109955  -4.8505206  64.7589722 162.8890991  -5.6355929
  64.4954224 162.2252197  -3.5712659  65.1734390 162.6447906  -2.8280578
  63.1975517 163.0711975  -3.4350262  62.5995827 162.7446442  -2.5841975
  63.4329605 164.5595703  -3.3588305  63.7632256 164.9353638  -4.3272367
  62.3971748 164.8977051  -3.3286731  64.0007858 164.8309937  -2.4688833
  62.3924065 162.8725128  -4.5847287  61.9362755 162.0287323  -4.6244411
  64.2607727 160.7409058  -3.2012551  63.4736290 160.0022125  -3.7823362
  64.8817139 160.2884064  -2.0991187  65.5053482 160.9595337  -1.6739380
  64.4441528 159.0872040  -1.3640350  63.6808472 158.5075226  -1.8831091
  65.7119446 158.1866455  -1.3121487  65.3889313 157.1999054  -0.9803309
  66.1564941 158.0741577  -2.3009956  66.6637573 158.5540161  -0.2144128
  67.8074188 159.3994446  -0.5006520  67.7997742 159.7971802  -1.5047135
  68.8005066 159.6045837   0.4258784  69.7088242 160.0878143   0.0974498
  68.7136307 159.0231934   1.7430989  69.5306778 159.0813751   2.4469826
  67.5667038 158.2357483   2.0533133  67.5886536 157.6354218   2.9508276
  66.6093140 157.9593048   1.0736858  65.8521957 157.2471619   1.3669579
  63.7491264 159.5320435  -0.0934684  63.4818993 160.7068481   0.1240350
  63.3099403 158.5557709   0.7319182  63.5147209 157.6173401   0.4196599
  62.8195190 158.8491364   2.0635109  63.0291023 159.8855896   2.3279650
  61.2842293 158.6700134   2.0958695  61.1009140 157.7477570   1.5445397
  60.8006630 158.4999847   3.0578258  60.8358536 159.5098114   1.5650295
  63.6053734 158.1076965   3.2005465  64.1322861 157.0395813   3.0931540
  63.4335060 158.7477875   4.3835154  62.9872360 159.6449127   4.5104499
  63.8463783 158.1421509   5.6885796  64.3097000 157.1997986   5.3963304
  64.9599457 159.0214081   6.3763480  64.5374298 160.0187073   6.4987803
  65.2939301 158.3056641   7.7582521  65.2004318 157.2199097   7.7361722
  66.3025360 158.5498199   8.0917358  64.6072006 158.6713409   8.5216494
  66.2083511 159.0686340   5.4768019  66.0363083 159.8322296   4.7182398
  67.0856705 159.4803619   5.9756866  66.4411316 158.0893097   5.0586443
  62.6068497 158.0583954   6.5640230  61.9955025 159.0853119   6.8277388
  62.1937027 156.8482666   7.0361838  62.7224007 156.0538940   6.7051835
  61.0533638 156.7061768   7.9809155  60.2783928 157.4548035   7.8163414
  60.4012947 155.3148193   7.8407416  61.1114693 154.5533447   8.1630802
  59.5857735 155.2938690   8.5636444  59.8936043 154.8573761   6.4237118
  60.6098099 155.0328064   5.6209874  59.4773827 153.3558655   6.4375167
  58.7770729 153.0252075   7.2045369  59.1037445 153.0491486   5.4605737
  60.3372345 152.6977234   6.5623732  58.6967430 155.6557922   5.9756017
  59.0105209 156.5843048   5.4986186  58.1075706 155.1132965   5.2362294
  57.9784546 155.7460327   6.7904773  61.4080544 156.9697876   9.4737663
  62.5370140 156.6765747   9.8771210  60.4893646 157.4768677  10.2587376
  59.5590286 157.6994019   9.9346209  60.6369286 157.6119385  11.6928301
  61.6887169 157.7158356  11.9593811  59.8821449 158.8062439  12.2361774
  58.8000755 158.6956177  12.1655216  60.2185211 158.8332977  13.2726221
  60.2087860 159.7246857  11.7484589  60.2001991 156.2879944  12.3055544
  59.0244751 156.0274658  12.6148081  61.1859703 155.3876343  12.3294439
  62.1483955 155.6427460  12.1598549  60.9361572 154.0346680  12.9087963
  60.1105919 153.6596985  12.3038616  62.1212807 153.1293640  12.6538649
  62.9824448 153.5714722  13.1549025  61.9473152 152.1930084  13.1840467
  62.3529320 152.7807465  11.2020102  61.4105453 151.9387665  10.4705639
  60.5673370 151.5637054  11.0315781  61.4727898 151.6659546   9.0889130
  60.7209587 151.1310577   8.5276299  62.5551834 152.2024384   8.4118671
  62.7117958 151.9910278   7.0417929  62.6051254 151.0603333   6.8319392
  63.5185699 152.9598694   9.0587044  64.3601074 153.3263397   8.4895725
  63.4356384 153.2783508  10.4650192  64.1622162 153.9213562  10.9393997
  60.5181885 154.0452728  14.3844223  61.4056396 154.1258545  15.2671089
  59.2202415 154.0190125  14.7201252  58.5461311 153.9737091  13.9693747
  58.6177101 154.0926819  16.0742340  59.1495552 154.8557587  16.6425476
  57.1405869 154.3701324  15.9501076  56.5982285 154.2189941  16.8834362
  56.9830170 155.3839569  15.5820837  56.6460838 153.4512329  14.9209194
  55.7204666 153.2104340  15.0037146  58.8479843 152.7538452  16.8357124
  58.9685135 152.7511902  18.0607319  59.0740204 151.6325989  16.1163464
  59.0011902 151.8034668  15.1235723  59.6638489 150.3424988  16.5663586
  60.2971535 150.5127411  17.4370213  58.4943581 149.5177155  17.1079178
  58.0764122 150.0171204  17.9819965  57.7380943 149.3568115  16.3396244
  58.9494858 148.1353302  17.4080353  59.7743607 147.4404297  16.7482529
  58.5213203 147.5319672  18.4569683  58.8627167 146.6017761  18.6526566
  57.7161789 147.9560089  18.8951836  60.6062355 149.8037262  15.4453058
  60.1148415 149.2048798  14.4832935  61.9010887 149.9847717  15.5999279
  62.2215958 150.2032318  16.5324783  62.8464890 149.6632690  14.5544930
  62.4512825 149.8807983  13.5622263  64.0463181 150.6412354  14.7458801
  63.6867638 151.6661377  14.8374653  64.8138809 150.2675476  16.0588284
  65.1240997 149.2231293  16.0260754  65.7268295 150.8515472  16.1753464
  64.1819763 150.4120483  16.9351330  65.0619736 150.5738983  13.5860624
  64.6555023 150.9743500  12.6573391  65.8288727 151.2841492  13.8951015
  65.5132217 149.6012268  13.3901243  63.1581497 148.1478424  14.4528036
  63.7872543 147.7479248  13.5228186  62.6992073 147.3424835  15.4452238
  62.0610657 147.7757416  16.0972805  62.8133049 145.8966522  15.4860592
  63.7381516 145.6543427  14.9625692  62.9989014 145.4919281  16.9480152
  63.7740860 146.1481934  17.3436203  62.1123085 145.6439972  17.5635891
  63.4825745 144.0392456  17.1081352  62.7108879 143.4733734  16.5862198
  64.5121460 143.9518890  16.7610645  63.5645294 143.6302948  18.6082115
  64.2998810 144.2884674  19.0710106  62.5653458 143.8481140  18.9854259
  63.8337288 142.1560974  18.8254108  64.7781906 141.8955688  19.0708103
  62.9766655 141.1520538  18.7123260  61.7000351 141.3135223  18.4827080
  61.2420959 142.2132874  18.5113564  61.0685997 140.5428467  18.3170357
  63.3720741 139.9144592  19.0281925  64.3129425 139.7114563  19.3342228
  62.7052689 139.1560516  19.0454311  61.6978226 145.1607361  14.6884451
  61.9475136 144.2170715  13.9488010  60.4372025 145.6096954  14.7511473
  60.2277107 146.2973480  15.4606180  59.3936310 145.3102570  13.7894211
  59.5636101 144.2877655  13.4521952  58.0039749 145.3080139  14.4570999
  57.9812279 146.2586975  14.9898062  57.2167969 145.3059082  13.7031460
  57.7702942 144.1938934  15.4824867  58.6612015 144.1762543  16.1102352
  56.8858948 144.2668457  16.1154308  57.6776466 142.8277893  14.7652473
  56.8111115 142.5741119  13.8598938  58.5295944 141.9214935  15.0259018
  59.3779640 146.1137390  12.4932299  58.7848511 145.7275696  11.5144215
  60.1201859 147.2468109  12.4991407  60.5806313 147.4115295  13.3828611
  60.1931610 148.3303680  11.5191584  60.8140678 149.1346130  11.9138451
  60.7691803 147.8115692  10.2142916  60.0412941 147.2587891   9.6203804
  61.0548630 148.6172180   9.5379782  61.9720192 146.8836975  10.3615017
  62.5430069 147.1538391  11.2498093  61.5850410 145.8724060  10.4866180
  62.8945503 146.9853668   9.1032457  63.5970688 146.1520691   9.1166496
  62.3070221 146.8955078   8.1895485  63.5874748 148.2781219   9.0942020
  63.1931381 148.9422302   9.7450190  64.6555634 148.5463104   8.3020287
  65.2255402 147.6988983   7.5178289  64.9845428 146.7260895   7.6430268
  65.9019394 147.9661865   6.8170156  65.2425003 149.7235870   8.3086805
  64.9525070 150.5071869   8.8761196  66.1193008 149.7140045   7.8074589
  58.8426971 149.0637817  11.2586546  58.3780327 149.2875214  10.1166983
  58.1089897 149.2750092  12.2734480  58.4748764 148.9804840  13.1675854
  56.9478836 150.1463165  12.3213530  56.3121910 149.8186188  11.4987888
  56.0792084 149.9860687  13.6417618  56.6311073 150.2978973  14.5284805
  55.2517776 150.6612549  13.4236269  55.5836182 148.5626373  13.9212017
  55.2835960 148.0861969  12.9878798  56.3711052 147.9387817  14.3439999
  54.4617081 148.5466614  14.9399757  54.7131538 148.8547821  16.1520920
  53.3234901 148.1626434  14.4961786  57.3766594 151.5995941  12.1182756
  58.3350334 152.0861816  12.7622385  56.5892448 152.3721008  11.2813196
  55.8149338 151.9530792  10.7863779  56.6462669 153.8730011  11.2968874
  56.8824463 154.3114929  12.2664490  57.7988777 154.2767792  10.3843536
  57.6532402 153.8818970   9.3788919  57.8791046 155.3620453  10.3222895
  58.7465553 153.9421539  10.8062792  55.3545990 154.5582275  10.8047943
  54.6299782 153.9799500  10.0148344  55.0093956 155.7049255  11.3369694
  55.5852356 156.1346588  12.0467815  53.7923317 156.3954010  10.9074183
  53.2206001 155.7670135  10.2245197  52.9418755 156.7373352  12.1548576
  53.5985756 157.3127594  12.8073378  51.9882927 157.2315216  11.9689579
  52.5687599 155.5081635  12.9851789  51.6354523 154.4875336  12.5523901
  51.6450729 153.5453949  13.5266972  51.0975266 152.6183777  13.4416571
  52.3160057 153.9597626  14.5628042  52.4588356 153.3847351  15.3807573
  52.8782768 155.1733246  14.2575693  53.4230385 155.8119354  14.9371386
  54.0447502 157.6440582  10.0187645  53.1879234 158.0444946   9.2000332
  55.2146606 158.3089600  10.1670618  55.7576828 158.1272736  10.9990606
  55.6758957 159.4670410   9.3863926  55.1125145 159.5087128   8.4542093
  55.4529915 160.7155151  10.2987947  56.1336250 160.6087341  11.1434450
  55.7274551 161.6737366   9.8576727  54.0302620 161.0115051  10.7943707
  53.2886047 162.0667725  10.1352415  53.6308403 162.5729065   9.2446823
  52.0258636 162.3847504  10.6785545  51.4683189 163.1894531  10.2224941
  51.5680618 161.8033142  11.8804379  50.5947304 161.9949188  12.3074169
  52.3365555 160.7602081  12.5084734  51.9468079 160.2669220  13.3866320
  53.5804672 160.4128723  11.9831867  54.2434044 159.7334290  12.4982233
  57.1565666 159.4256897   8.9839191  57.8643875 158.4514008   9.2437258
  57.6845589 160.4892273   8.3675022  57.0498810 161.2625122   8.2284698
  59.0774536 160.5051117   7.9892783  59.7012978 160.5033722   8.8830996
  59.3714714 159.6631775   7.3625312  59.4556007 161.7923889   7.2758126
  58.7102890 162.7716522   7.3051686  60.6139221 161.7531128   6.7520628
  61.0048103 160.8222809   6.7224755  61.3314857 162.8647461   6.0527129
  60.4869652 163.5357361   5.8956442  62.3436470 163.5368500   6.9766507
  62.9068794 162.7460022   7.4720573  63.3480225 164.4796448   6.2755303
  62.8799744 165.3644714   5.8441181  64.1438675 164.7356415   6.9749517
  63.7971458 163.9705811   5.4227457  61.6430206 164.3251648   7.9066577
  62.0310478 164.1919250   8.7745743  61.8480988 162.4091339   4.6304617
  62.5338860 161.4092407   4.4600039  61.5562897 163.1858826   3.5706038
  60.9638596 163.9791718   3.7701309  62.1741791 162.9572601   2.2027042
  62.3064766 161.8871307   2.0432560  61.3741646 163.5120392   0.9880269
  61.8894806 163.3581696   0.0399371  59.9880409 162.8997192   0.8189401
  59.3330231 163.4074249   1.5269611  59.6133003 162.9899902  -0.2006298
  60.0214119 161.8289185   1.0199023  61.2793045 164.9064941   1.1686339
  62.1614456 165.2843628   1.1433922  63.5791283 163.5388031   2.2061942
  63.7942924 164.6961060   2.4968822  64.6014252 162.7654266   1.7946284
  64.3905487 161.7872925   1.6571420  65.9725418 163.1467133   1.5907274
  66.1156998 164.1022949   2.0951650  66.9154663 162.1152649   2.2316539
  66.8155670 161.1897736   1.6645683  67.9672546 162.3672333   2.0961995
  66.6325607 161.9765320   3.2751181  66.2125626 163.4466553   0.0685197
  65.9974518 162.5122375  -0.7122530  66.6852951 164.6588135  -0.3329346
  66.9100266 165.4153748   0.2973223  67.1831894 164.8691406  -1.7306390
  66.7385025 164.0721741  -2.3266432  66.7160187 166.2657318  -2.3037667
  65.6414719 166.2406921  -2.4849544  66.8589172 167.0377350  -1.5476668
  67.4016418 166.7145691  -3.6432815  68.4650803 166.7870483  -3.4153640
  67.2340088 165.9577484  -4.4095893  66.9101868 168.0437012  -4.2085624
  65.7538071 168.4671326  -3.9247520  67.6950455 168.5462494  -5.0278354
  68.7152786 164.6867981  -1.6723279  69.3519897 165.0833282  -0.7276875
  69.2437668 163.9690094  -2.6716104  68.5772324 163.4680023  -3.2415421
  70.7144012 163.7468872  -2.7999377  71.1716995 163.8103943  -1.8125401
  71.1429596 162.4066620  -3.4044390  70.5642624 162.3475952  -4.3262439
  72.6885681 162.4347229  -3.7527730  73.2813873 162.5160828  -2.8417025
  72.9817963 161.5204620  -4.2687564  72.8998184 163.2224731  -4.4759130
  70.8393936 161.2339020  -2.5199287  71.4801941 161.2294159  -1.6381963
  69.8024216 161.2662201  -2.1856449  71.0332870 159.8220367  -3.1519961
  72.0520554 159.6786041  -3.5120587  70.8807449 159.0527496  -2.3950129
  70.2941666 159.7422180  -3.9491384  71.3224716 164.9979706  -3.4611790
  71.1141052 165.1663818  -4.7081609  72.1361771 165.8050079  -2.7083275
  72.2860870 165.7223053  -1.7129406  72.8403854 166.9886932  -3.2611864
  72.2898407 167.2682343  -4.1594381  72.8048706 168.2933960  -2.3838704
  73.0334015 169.1530151  -3.0138853  71.7754364 168.4139404  -2.0464969
  73.6748276 168.2923126  -1.1341335  74.8772049 169.0483551  -1.0253030
  75.1693420 169.7165070  -1.8219366  75.6715164 168.9954529   0.1525050
  76.5569534 169.5946808   0.3052704  75.2287979 168.1786804   1.1879563
  75.9616089 168.0954132   2.3058493  76.4348755 168.9064636   2.5053682
  74.0118713 167.4880829   1.1004406  73.6929245 166.8381348   1.9018451
  73.1879959 167.5649414  -0.0237746  72.2341080 167.0591278  -0.0488235
  74.2443466 166.7406464  -3.8211894  74.7633133 167.6290741  -4.5280342
  74.9135590 165.6123352  -3.4535496  74.4837341 165.1379395  -2.6723402
  76.2933655 165.2183380  -3.8806133  76.3441620 165.6177521  -4.8935227
  77.3830643 165.9796753  -3.0552521  77.3471222 165.8779907  -1.9705977
  78.3222122 165.5472870  -3.4004190  77.5170441 167.0367126  -3.2850699
  76.5324631 163.7099609  -4.0768499  76.1200027 162.8845825  -3.2467434
  77.2709122 163.2736359  -5.1185336  77.8341599 163.9452057  -5.6203837
  77.3472748 161.8869019  -5.5592942  77.1753616 161.2852783  -4.6667757
  76.1313171 161.6549683  -6.4601464  75.2779694 162.0469513  -5.9067478
  76.2415314 162.2477112  -7.3682308  75.8525391 160.2696838  -6.9245300
  74.8505859 159.4175720  -6.3225303  74.2513428 159.8145142  -5.5164542
  74.7216492 158.1121216  -6.8586102  73.9255066 157.4540558  -6.5431466
  75.5060806 157.6261597  -7.9297085  75.2260056 156.3806915  -8.4973936
  74.8527145 155.7895966  -7.8394713  76.3861618 158.5162964  -8.5003290
  76.9425201 158.1762543  -9.3612833  76.5683136 159.8135223  -8.0357990
  77.1868591 160.4514771  -8.6496611  78.7087860 161.4654541  -6.1887250
  79.2897949 162.2802429  -6.9195204  79.2213974 160.2939911  -5.8645272
  78.5545959 159.7707825  -5.3152189  80.4414749 159.6119995  -6.3948221
  80.6260071 159.8092346  -7.4508290  81.5768051 160.1754761  -5.5162578
  81.3912888 161.1851959  -5.1499572  81.6138077 159.5443268  -4.6283455
  82.9780350 160.1643524  -6.1872234  83.0879288 159.2125854  -6.7069802
  83.0905075 160.9617157  -6.9218397  84.0571594 160.1879578  -5.1596770
  83.6978455 160.7956390  -4.3291783  84.1114273 159.1912537  -4.7217851
  85.2521362 160.8331451  -5.6872406  85.1284409 161.7588043  -6.0719037
  86.4697647 160.3561096  -5.8091583  86.7974625 159.1325073  -5.5002446
  86.1130524 158.5314636  -5.0638504  87.6644440 158.7727203  -5.8730884
  87.4558487 161.1473694  -6.1835794  87.2862091 162.1269226  -6.3618593
  88.4205704 160.8560944  -6.1159778  80.4611740 158.0374756  -6.2720861
  79.9272156 157.5013428  -5.2954402  81.0103455 157.3255768  -7.2777624
  81.2646561 157.8821259  -8.0813036  81.0099182 155.8500061  -7.3452859
  80.5884781 155.2980194  -6.5051646  80.2432251 155.4223785  -8.6270018
  80.5979156 156.0252991  -9.4629269  80.4562454 154.3887177  -8.8995361
  78.7086029 155.6193237  -8.4758406  78.4098663 155.0933990  -7.5690527
  78.5041962 156.6839752  -8.3625612  78.0418091 155.0183258  -9.7358313
  77.5997391 153.8547058  -9.7098389  77.8080597 155.8186188 -10.6911860
  82.4553833 155.3750305  -7.4759440  83.2425995 155.9189148  -8.2603760
  82.6901703 154.2563019  -6.8009324  81.9011078 153.8274384  -6.3388119
  83.9921341 153.5759583  -6.6296492  84.6315079 153.9549713  -7.4269357
  84.7466431 154.0571289  -5.3962469  84.2283707 153.5786438  -4.5652504
  85.8130112 153.8317413  -5.4087238  84.8320313 155.6155701  -5.2488155
  85.3114471 155.9719696  -6.1605401  83.8380356 156.0628052  -5.2560816
  85.6874237 156.1667633  -4.0662432  86.5947495 155.4057159  -3.5801013
  85.6289673 157.3976440  -3.7991452  83.9562683 152.0349884  -6.9335203
  82.9918289 151.3365021  -6.5832763  85.0366364 151.4480286  -7.4276323
  85.8270721 151.9896545  -7.7469177  85.1022034 149.9868011  -7.5919228
  84.3478394 149.5126343  -6.9640718  84.9791641 149.6723633  -9.1088037
  84.0148315 150.0878143  -9.4013052  85.7451172 150.1621094  -9.7101097
  85.1276550 148.1965637  -9.4393206  86.0925522 147.7167053  -9.2755957
  84.4147186 147.5957947  -8.8746099  84.7758789 147.8954010 -10.9231663
  85.5804443 147.3938751 -11.7287807  83.5376663 148.2125549 -11.3751612
  83.3911285 148.1355591 -12.3715038  82.9262390 148.7292480 -10.7593040
  86.4417877 149.4889526  -6.9512033  87.5834427 149.7727203  -7.4519567
  86.3261795 148.7366943  -5.8370962  85.4052353 148.4188995  -5.5707049
  87.4659958 148.1923218  -5.1208496  88.2685852 147.8855286  -5.7915468
  88.0474167 149.1767578  -4.0637259  87.3671646 149.2428741  -3.2146130
  88.9765930 148.7367249  -3.7016673  88.4736023 150.6212311  -4.4847908
  89.1788406 150.6050720  -5.3157444  87.5470810 151.1452637  -4.7194166
  89.1334000 151.5051575  -3.4713986  88.7671738 151.5124207  -2.2760623
  90.0434418 152.2192841  -3.9574189  87.2093201 146.8048553  -4.4305906
  86.0599823 146.5451660  -4.1567874  88.2400665 145.9394684  -4.2381330
  89.1725693 146.3048553  -4.3686690  87.9951859 144.5799103  -3.6705160
  88.9297485 144.0313416  -3.7878053  87.5771332 144.7264099  -2.1448905
  86.5096970 144.9470215  -2.1417811  87.7337494 143.7361145  -1.7172095
  88.3927917 145.7261810  -1.3595564  89.7124176 145.3669891  -0.9481589
  90.0778351 144.3735046  -1.1622549  90.4773865 146.1963501  -0.1567669
  91.4451904 145.8914948   0.2131285  90.0256119 147.5385895   0.0052148
  90.9110565 148.3835144   0.5918215  91.7636490 147.9884949   0.7884111
  88.8013153 147.9736938  -0.4427632  88.4641724 148.9734039  -0.2118210
  87.9643173 147.0477905  -1.0920929  87.0029831 147.4129028  -1.4221308
  86.9402390 143.7131653  -4.4590287  86.2439880 142.8571777  -3.8750691
  86.7194061 144.0233002  -5.7814379  87.3381958 144.7240906  -6.1636462
  85.7233810 143.3870544  -6.6421537  85.9759674 143.7301025  -7.6454625
  85.8228378 142.3019104  -6.6165357  84.3061142 143.8344116  -6.4216590
  83.4074860 143.2179871  -7.0375519  84.0725021 144.8914490  -5.6307974
  84.8793335 145.3922882  -5.2868662  82.6930771 145.4257050  -5.3301234
  81.9965515 144.6434784  -5.6318793  82.4449005 145.5999451  -3.7955985
  81.3605042 145.5809937  -3.6869116  83.0875320 144.4607544  -3.0219288
  84.1692123 144.5911713  -2.9896269  82.7785263 144.4665375  -1.9766617
  82.8248444 143.5243530  -3.5141094  82.8727341 146.9651337  -3.2695906
  83.9178619 147.1488647  -3.5186868  82.3367538 147.7392426  -3.8187573
  82.7326508 147.2726898  -1.7894369  83.3878250 146.6196289  -1.2129439
  83.0104904 148.2980347  -1.5453275  81.7004700 147.1455688  -1.4630353
  82.4479980 146.6991425  -6.1610560  83.3126373 147.5220795  -6.3210649
  81.1819458 146.8495941  -6.6598077  80.5301895 146.1047668  -6.4584422
  80.6564255 148.2071991  -6.9233546  81.4449081 148.8024597  -7.3838520
  79.5546875 148.0763702  -7.9964819  78.6990128 147.5669250  -7.5533457
  79.1585770 149.0610199  -8.2448187  79.8964386 147.3392944  -9.3316431
  80.8093567 147.6598663  -9.8335590  80.0649109 146.2813568  -9.1304426
  78.7710190 147.4963531 -10.3670549  78.0664139 148.5344238 -10.3970900
  78.5603256 146.5648651 -11.2072277  80.1395111 148.9038849  -5.6186690
  79.4996109 148.2145386  -4.7961106  80.4471664 150.1640930  -5.3624353
  81.1573410 150.5881195  -5.9420581  79.9479446 150.9038544  -4.1556454
  78.9869385 150.4412537  -3.9307609  80.8443832 150.5262299  -2.9969294
  80.7951202 149.4709320  -2.7285652  82.3309555 150.8523712  -3.2926407
  82.4384384 151.8464966  -3.7265468  82.8791809 150.8633270  -2.3506055
  82.7878189 150.1827698  -4.0213351  80.4881973 151.2445679  -1.8385720
  81.0046463 150.9839325  -1.0724461  79.7667999 152.4316864  -4.3736315
  80.1308517 152.9198456  -5.4612985  79.1686401 153.1816864  -3.4579945
  78.8487015 152.7660522  -2.5948706  78.7882690 154.6415405  -3.7162848
  79.6493759 155.0477295  -4.2469544  77.4880447 154.6757202  -4.6580410
  77.6676102 154.0932770  -5.5617146  76.1892090 154.1778259  -3.9621072
  75.8243027 154.8562317  -3.1909399  75.3864441 154.1672821  -4.6993709
  76.4020844 153.2139130  -3.4998477  77.0566711 156.0048828  -5.1448545
  77.8213806 156.3462982  -5.8425322  76.0829697 155.9422607  -5.6307302
  76.7722168 156.6970673  -4.3523488  78.7206650 155.5223389  -2.5159936
  78.3395462 155.0591888  -1.4133897  79.1782455 156.7854462  -2.6853788
  79.6818314 156.9844818  -3.5379524  79.2634811 157.7662811  -1.5983304
  78.9926071 157.3222351  -0.6404442  80.7093353 158.1508026  -1.5893673
  81.0334244 158.4891510  -2.5735357  80.8727341 159.0231171  -0.9565320
  81.6224213 156.9554901  -1.1400886  81.2862091 156.4885101  -0.2143511
  81.6101913 156.1095734  -1.8273805  83.0584793 157.5234833  -0.8555792
  83.2928467 158.3781586  -1.4901631  83.0178757 158.0137482   0.1170940
  84.2864685 156.5685120  -0.9033314  83.9431381 155.6786499  -0.3757259
  84.5966568 156.3490753  -1.9249630  85.5107956 157.2040405  -0.4088979
  85.3414993 157.5360107   0.5298467  86.1067123 156.4069366  -0.2368195
  85.9342117 157.8450928  -1.0645401  78.2881927 158.9723206  -1.9009686
  78.3729248 159.6552277  -2.9197841  77.3661423 159.2480469  -0.9803174
  77.3013611 158.7171021  -0.1235754  76.2841263 160.2071075  -1.2054783
  76.6362305 160.7861328  -2.0592062  74.9123230 159.6720886  -1.6092529
  74.3496933 160.5550842  -1.9123458  74.9785614 158.7974091  -2.8642173
  75.1907501 157.7539978  -2.6310759  73.9926529 158.7063904  -3.3200736
  75.7345657 159.1625977  -3.5593419  74.0401688 158.9155426  -0.4741041
  73.7738419 159.6365967   0.2987201  73.0944138 158.6247559  -0.9313779
  74.5554810 158.0033264  -0.1734136  76.1494293 161.1182098  -0.0008754
  76.1514435 160.6669617   1.1235218  75.8636093 162.3962402  -0.3195455
  75.8734207 162.6543427  -1.2959610  75.3885880 163.3139801   0.7367430
  75.3429794 162.7874298   1.6900325  76.4016724 164.5271149   0.8173881
  76.6231003 164.8675079  -0.1941463  75.8160324 165.2772522   1.3488184
  77.6268768 164.1547546   1.6102970  77.4392090 164.2936707   2.6749966
  77.8102417 163.0950012   1.4331352  78.9187164 164.8791199   1.2821831
  79.7362366 164.4599762   1.8687682  79.2619476 164.6235504   0.2796950
  78.8968964 166.3709259   1.4900436  78.0247879 166.7824097   0.9819002
  78.7225113 166.4527740   2.5628867  80.1386948 167.0033569   0.9955859
  80.0742416 167.0565186  -0.0109530  80.2181931 167.9552765   1.3236412
  81.0177155 166.5956116   1.2804900  74.0009232 163.7332001   0.3933123
  73.6732101 164.0860748  -0.7624246  73.1220703 163.8540649   1.4185761
  73.4710922 163.5389557   2.3124406  71.7331390 164.2583923   1.3505305
  71.5471725 164.7153015   0.3785466  70.8821259 162.9601593   1.2993031
  70.8516464 162.4470978   2.2605224  69.8617249 163.2446747   1.0424975
  71.3092117 162.2302551   0.6116036  71.2537689 165.2124939   2.3891866
  71.9874191 165.4720917   3.3225961  70.0411987 165.7940826   2.2152181
  69.7062683 165.6578369   1.2721586  69.5272064 166.8843994   3.0357871
  69.9216232 166.7940979   4.0479050  70.0019455 168.2652740   2.4620490
  71.0755463 168.2849884   2.2747102  69.3555984 168.6705475   1.1740866
  68.3049240 168.9520721   1.2442076  69.8987045 169.4716492   0.6727111
  69.3867493 167.8274078   0.4839697  69.7227707 169.4060211   3.5160306
  68.7033539 169.7349854   3.3143690  69.7289047 168.9828644   4.5205231
  70.6503830 170.6065979   3.4469402  70.6745300 171.0531464   2.4528995
  70.2261353 171.3793793   4.0879626  71.6029816 170.2206268   3.8098240
  68.0869980 166.7485352   3.0468674  67.3452911 166.4652405   2.1066730
  67.4712830 166.9662628   4.2048173  67.9985428 167.3295135   4.9859300
  66.0169678 166.7742920   4.3478975  65.7055054 165.8524475   3.8566856
  65.8908386 166.6426849   5.4225502  65.1650009 167.8948212   3.8506613
  65.2486420 169.0582733   4.3200612  64.3180847 167.6902771   2.8223116
  64.4174805 166.7808228   2.3943846  63.4301147 168.6627502   2.1371701
  63.8514214 169.6678314   2.1573181  63.3853493 168.2807465   0.6934401
  63.1761246 167.2116852   0.6557536  62.6625748 168.8379059   0.0973841
  64.6965332 168.4219971  -0.1541958  65.5721512 168.2651215   0.4757170
  64.6229782 167.7192535  -0.9841587  64.9892502 169.7656250  -0.8159463
  65.8661728 169.5787964  -1.4357984  64.1506042 169.9888306  -1.4754536
  65.2002182 170.8989563   0.1496258  64.3357697 171.2764130   0.5106636
  66.3164520 171.4566803   0.6310186  67.5055466 171.2331543   0.1087356
  67.6036453 170.6208954  -0.6885133  68.2518692 171.8825836   0.3120491
  66.2328033 172.4334564   1.5168662  65.3500977 172.7012634   1.9282132
  67.0964050 172.8851318   1.7819648  62.0937424 168.7951202   2.8339984
  61.6979408 169.9082794   3.1978228  61.4266739 167.6337280   3.0599248
  61.8663864 166.7467804   2.8597507  59.9143219 167.5273438   3.3553662
  59.6266861 168.5330200   3.6619074  59.1149902 167.1217194   2.1180365
  59.3160782 166.0626984   1.9563763  58.0493660 167.1872711   2.3377025
  59.3501625 167.9163818   0.8136479  59.0717239 168.9657745   0.9103761
  60.4139442 167.9555054   0.5792645  58.6368446 167.2615662  -0.3436871
  57.7388496 167.8404083  -0.8917170  58.9579277 166.0415344  -0.7192822
  58.5111885 165.8229980  -1.5983551  59.8181915 165.6156616  -0.4051615
  59.6617088 166.5649567   4.5089965  60.3556519 165.5581665   4.6065674
  58.5714226 166.7945709   5.2804403  58.0335503 167.6107788   5.0263143
  58.0032578 165.7992859   6.1854429  58.7560081 165.0815735   6.5115414
  57.4026680 166.5151978   7.4091530  56.7460556 167.3634338   7.2155857
  56.7770348 165.7858887   7.9237185  58.4866638 166.9734344   8.3743572
  59.0643196 166.0756683   8.5944099  59.1727982 167.6956787   7.9319859
  57.9923744 167.5111237   9.7150850  57.4188652 166.7317505  10.2168341
  58.7944107 167.7378693  10.4175310  57.1665649 168.7543793   9.6057539
  57.4956932 169.5213165   9.0369101  55.9158707 168.8928070  10.0480108
  55.2462502 167.9291229  10.5903358  55.6384354 167.0102539  10.7385988
  54.4882240 168.2240601  11.1890945  55.3840179 170.0719299  10.0805979
  55.9793625 170.8591309   9.8661518  54.4918976 170.3373566  10.4727306
  56.8863449 165.0222473   5.3494549  56.1352386 165.6509552   4.5405021
  56.4747925 163.8610077   5.8495378  56.9455833 163.3718567   6.5973301
  55.2713242 163.1997375   5.3790541  54.5017700 163.9392853   5.1577744
  55.5961494 162.4462738   4.0765615  54.6623955 162.0431061   3.6845658
  55.9616508 163.0825806   3.2705650  56.6600494 161.3213501   4.1856136
  56.4001160 160.1551056   4.9376168  55.3939095 159.9635468   5.2800331
  57.3933029 159.2250977   5.2538362  57.1670837 158.3006439   5.7643480
  58.6337280 159.3751678   4.7152991  59.3558083 158.5791626   4.8219995
  58.9058380 160.4210358   3.8113093  59.8767738 160.4747009   3.3414166
  57.9577789 161.4303741   3.6651437  58.2364388 162.3141174   3.1103837
  54.5479240 162.3363342   6.4705296  55.2008133 161.7938385   7.3546929
  53.1973915 162.0811920   6.2757430  52.7282104 162.6097412   5.5542130
  52.4891815 160.8977661   6.8224421  52.9497452 160.6796570   7.7859807
  50.9971085 161.1941986   6.9005237  50.8667374 162.2141571   7.2621613
  50.5410004 161.2241669   5.9109964  50.1623497 160.2322388   7.7748427
  50.3999939 159.2074280   7.4895959  50.4795113 160.4928589   8.7845898
  48.6417542 160.4589539   7.7883654  48.3061829 160.6572418   6.7704382
  48.1971741 159.5415955   8.1742735  48.0649910 161.6208191   8.6348438
  48.5481224 161.4145050   9.5898933  48.3449669 162.5986176   8.2429047
  46.5746269 161.6070404   8.7858076  46.2307205 160.7185364   9.1210756
  46.2385178 162.2930603   9.4464865  46.1351852 161.8005829   7.8972507
  52.6089935 159.6569061   5.9291897  52.5315208 159.8354645   4.6941319
  52.8618660 158.4326324   6.4532089  52.9214516 158.4169312   7.4613276
  52.7884102 157.0941162   5.8275967  53.2561607 157.2266235   4.8520207
  53.6656914 156.0873718   6.6153998  53.2956696 156.0915070   7.6406641
  53.5535469 154.7016907   5.9986930  54.0009804 154.7020721   5.0047598
  54.0596924 154.0684509   6.7273440  52.4971542 154.4442596   5.9221015
  55.1306114 156.5213470   6.6508799  55.2653275 157.5556488   6.9673872
  55.6782875 155.9649200   7.4114971  55.5863342 156.5348511   5.6608124
  51.3533058 156.5952759   5.6987462  50.6638718 156.2760162   6.6523705
  51.0631676 156.1239777   4.4725509  51.7374649 156.3669891   3.7609570
  49.8686562 155.4335175   4.0568190  49.1459351 155.6043701   4.8546824
  49.3650551 156.1362762   2.7932425  50.2692413 156.1211700   2.1847029
  48.6525650 155.4167633   2.3898005  48.7923050 157.5556641   2.8003569
  49.4904060 158.1539612   3.3858347  48.6129303 158.0334320   1.4020405
  47.8374939 157.4700012   0.8830587  48.3271828 159.0814209   1.3116288
  49.5359726 157.9779816   0.8249614  47.3747787 157.5867462   3.4465811
  47.5999374 157.4863586   4.5083413  46.8758240 158.5335999   3.2401295
  46.7593155 156.8340759   2.9538560  49.9309196 153.8851624   3.9010813
  49.1235542 153.1560364   4.4716644  51.0507736 153.5232391   3.3155122
  51.7369957 154.2277985   3.0857575  51.4178238 152.0949097   3.1839552
  51.2068176 151.5089722   4.0785198  50.5763206 151.5002289   2.0118759
  49.5222626 151.7158051   2.1867607  50.9752045 152.0601807   1.1660329
  50.6832695 150.0142517   1.6215787  51.7089081 149.6573334   1.7152656
  50.1223450 149.4550781   2.3704402  50.1929207 149.6074066   0.2336636
  49.4002533 150.3244171  -0.4246608  50.5126152 148.4738464  -0.2075154
  52.9583282 152.0091858   2.9601676  53.6373138 152.8751221   2.4514747
  53.5048218 150.8156586   3.4005671  52.9176979 150.0799561   3.7668076
  54.8794861 150.3818970   3.0637786  55.4077187 151.1067810   2.4444129
  55.8451843 150.2077789   4.2585731  55.4367714 149.3803253   4.8387718
  57.2480583 149.8754120   3.7412078  57.7410774 150.7057648   3.2357075
  57.8698692 149.7202759   4.6229029  57.2525787 148.9575806   3.1532755
  55.9418373 151.4645844   5.1688762  56.5126190 152.1861115   4.5843163
  54.9365654 151.8360138   5.3677988  56.6063423 151.2276306   6.5061226
  57.6171036 150.8196869   6.5119643  56.6887398 152.1586304   7.0669808
  55.9727211 150.5793152   7.1113591  54.7135925 149.1665039   2.1734483
  54.0810852 148.1929626   2.6420679  55.2313499 149.1193237   0.9422886
  55.6670609 149.9223175   0.5116453  55.4009323 147.9056091   0.1660632
  54.8699760 147.0251312   0.5279165  54.7506142 148.1082916  -1.2018118
  53.7428017 148.4315033  -0.9411347  55.3014832 148.9431305  -1.6350443
  54.6587105 146.8542786  -2.1139166  54.9788017 145.9226227  -1.6473814
  53.6053047 146.6057434  -2.2430449  55.3042450 147.0587616  -3.5292141
  54.8773499 147.9711304  -3.9457047  56.3636513 147.2460327  -3.3540227
  55.1230011 145.7958832  -4.3718972  55.3668022 144.8990784  -3.9764457
  54.7467270 145.8096161  -5.6427207  54.8285484 146.9315948  -6.3548870
  55.2422752 147.7471161  -5.9260883  54.7395782 146.8413696  -7.3569059
  54.3694420 144.6780090  -6.2354336  54.5307693 143.7543182  -5.8601170
  54.0347862 144.8442230  -7.1737723  56.8927536 147.5935364   0.0134477
  57.6424294 148.5181580   0.1093194  57.2671432 146.4185181  -0.4133648
  56.5363770 145.7536926  -0.6233396  58.7128792 146.1013947  -0.6926563
  59.2432289 147.0536194  -0.7036152  59.3655243 145.2814636   0.3998291
  58.9978867 144.2559967   0.4368366  60.8782654 145.2200928   0.3494198
  61.2939110 146.1030273   0.8349594  61.2724838 144.3323822   0.8440611
  61.1291580 145.1490631  -0.7089321  59.0598335 145.9479370   1.6172885
  58.2017403 145.7085724   1.9750371  58.8019142 145.3894806  -2.0130639
  57.9561691 144.5480194  -2.4077008  59.8523483 145.7543335  -2.7722409
  60.4674683 146.4675293  -2.4074292  60.2356033 145.0880127  -4.0790720
  59.4098740 144.5572815  -4.5529718  60.7847557 146.1179352  -5.0967612
  61.5453110 146.6921997  -4.5677285  61.3466225 145.5423126  -5.8323293
  59.6842422 146.8938751  -5.7869868  59.0332031 146.2411499  -6.3685293
  58.9925537 147.1939392  -4.9998255  59.9916420 148.2553864  -6.3980618
  60.3794823 149.2149658  -5.7724142  59.7169724 148.4354706  -7.6924105
  59.9022179 149.3323517  -8.1183186  59.2380142 147.8038025  -8.3182611
  61.2153358 143.9144745  -3.7640324  61.9128876 143.9379578  -2.7341628
  61.3041611 142.9744263  -4.6609998  60.7660484 143.1684875  -5.4933910
  61.9627800 141.6956940  -4.5613618  61.4410782 141.1405792  -3.7817595
  61.8307190 140.9446716  -5.8191290  62.2797279 141.4681244  -6.6632280
  62.3662109 139.9999390  -5.7251015  60.4487419 140.6770020  -6.1223025
  60.2696342 139.9430389  -6.7146144  63.4314804 141.8466949  -4.2435532
  64.0500031 141.0530853  -3.5775187  64.1257477 142.8232422  -4.8405046
  63.6585388 143.4440308  -5.4858336  65.5155640 143.1159058  -4.4875965
  66.1611404 142.2433319  -4.5873771  65.9670410 144.0945282  -5.5918298
  67.0505447 144.0419159  -5.6983542  65.7237244 143.6459961  -6.5550098
  65.4368439 145.4940338  -5.4726624  64.5102234 145.7525787  -4.7398872
  66.0860138 146.4231262  -6.0259042  65.7119064 143.6628723  -3.0142460
  66.8080902 143.7353210  -2.4574146  64.6212082 143.9210510  -2.3007696
  63.7300873 144.0004730  -2.7694860  64.5788879 144.0616455  -0.8143877
  63.6563339 143.5842285  -0.4841308  65.4068451 143.5058899  -0.3742600
  64.6160431 145.4637756  -0.2677166  64.7604065 145.6647034   0.9205945
  64.4853745 146.4853058  -1.1268446  64.5462265 146.3051605  -2.1187859
  64.2617416 147.9099731  -0.7096257  64.7195663 148.0115967   0.2743298
  64.9705124 148.9603424  -1.6339747  64.9605255 149.9423828  -1.1611036
  66.4667053 148.6147003  -1.8170311  66.5447845 147.7307892  -2.4500389
  66.8313599 149.5466461  -2.2490342  67.0256882 148.3827362  -0.9104834
  64.2989731 149.0299683  -3.0669761  65.0286255 149.0819550  -3.8750627
  63.8690109 148.0442657  -3.2448597  63.3198547 150.1380615  -3.2023349
  63.8566818 151.0667572  -3.0088985  62.7965698 150.1390839  -4.1585112
  62.4723282 150.0528107  -2.5222321  62.7806892 148.2198029  -0.5485720
  61.9929199 147.6374969  -1.3155679  62.4298782 149.1419678   0.3784897
  63.1403351 149.5628204   0.9600698  61.1061058 149.4471588   0.6810930
  60.5151405 148.6516266   0.2272393  60.8650932 149.5334473   2.1928728
  61.1471596 150.5350647   2.5174017  59.7800827 149.4587708   2.2654874
  61.4031372 148.3639069   3.0298481  61.2283669 147.4452515   2.4698226
  62.4881401 148.3321075   3.1291850  60.7795372 148.1719971   4.4631567
  61.2984238 148.7300720   5.4610767  59.7451515 147.3640442   4.5031877
  59.2868004 147.2395630   5.3945484  59.4461098 146.8254852   3.7027926
  60.6700325 150.6654510  -0.0849336  61.5240974 151.5793762  -0.4408644
  59.3739815 150.7494354  -0.3923648  58.7794685 149.9707489  -0.1468046
  58.7330933 151.8938751  -0.9785028  59.4437256 152.7055817  -1.1342108
  58.2475243 151.4860992  -2.3214386  57.6875648 150.5511627  -2.3003380
  57.5167084 152.2178650  -2.6657119  59.3445473 151.2373657  -3.3510365
  60.2618294 150.8114777  -2.9444535  58.9641075 150.4782867  -4.0345426
  59.7368126 152.4546051  -4.1931629  59.2098846 153.5462036  -4.0283337
  60.5335312 152.3037262  -5.2442617  60.7410240 153.1468048  -5.7602806
  60.8539658 151.3839264  -5.5114741  57.5454140 152.2914886  -0.0518568
  56.5224762 151.5534363   0.0812178  57.6283646 153.5123444   0.4756555
  58.4342995 154.0914154   0.2878942  56.5290222 154.0375977   1.2700382
  55.9605293 153.2900238   1.8232543  57.1940308 155.0072327   2.2367005
  57.6023445 155.8845825   1.7350451  56.5198402 155.2847900   3.0469668
  58.0854912 154.5549927   2.6712899  55.5953560 154.7795868   0.2790280
  56.0353966 155.6775513  -0.4706394  54.3025589 154.5531311   0.4421873
  54.0019073 153.8268280   1.0763644  53.2620583 155.5067596  -0.0166728
  53.5601273 156.0077972  -0.9376620  52.0196075 154.8495941  -0.4636218
  51.5148964 154.3416138   0.3581618  51.3010979 155.6392517  -0.6833434
  52.1369247 153.8704987  -1.6871324  53.0729332 153.9281006  -2.2427199
  52.1972351 152.8761139  -1.2447866  50.9557419 154.1673889  -2.6609294
  50.0568008 153.8476868  -2.1338680  50.8581161 155.2447357  -2.7947316
  50.8978348 153.5565796  -4.1029496  50.1135902 154.0936432  -4.6364565
  51.8302040 153.7788544  -4.6219687  50.5972214 152.1034241  -4.1577201
  49.7087708 151.8548126  -3.7466824  50.5689240 151.8656616  -5.1389284
  51.3175011 151.6212769  -3.6392267  53.0621262 156.6143188   1.0381650
  52.8627739 156.2558289   2.2431529  53.1774940 157.8773499   0.6654007
  53.3444633 158.0556030  -0.3146224  53.0379524 158.9802094   1.6103063
  52.6270981 158.5462799   2.5218997  54.4559937 159.4797821   1.9658873
  54.4328194 160.0502930   2.8943670  55.4084625 158.3202972   2.2640936
  55.7531357 157.8400116   1.3483245  56.3121834 158.7519073   2.6943269
  54.9548302 157.6257629   2.9711664  55.1359329 160.2899475   0.8608210
  54.6846313 161.2723541   0.7218503  56.1596870 160.4525757   1.1978425
  55.1545792 159.6948547  -0.0522078  52.1366882 160.1544495   1.1744379
  51.8021393 160.2681274  -0.0056239  51.7198486 161.0738220   2.1281359
  51.9423943 160.6980896   3.0388479  51.1598816 162.4322510   1.9238560
  51.1592979 162.5601349   0.8413845  49.7180099 162.5285645   2.5013244
  49.0784531 161.7725677   2.0457673  49.6361008 162.5140076   3.5881495
  49.0394783 163.9039154   2.1833692  49.4246674 164.6618958   2.8654282
  49.3078766 164.2100067   1.1722434  47.5252838 163.9277039   2.2536056
  46.7988052 163.0105133   1.8446366  46.9662094 164.9789581   2.8681107
  45.9586487 164.9734802   2.9380651  47.5417175 165.6827393   3.3081014
  52.1230087 163.5557861   2.4662642  52.4275780 163.5702362   3.6840782
  52.5557823 164.5330505   1.6200043  52.2183456 164.4443970   0.6721774
  53.5833817 165.5325775   1.9656837  54.3262787 165.0805664   2.6228704
  54.2720909 166.1030884   0.6805491  53.5772285 166.0276794  -0.1558602
  54.7065926 167.5982513   0.8541916  55.5554085 167.6371002   1.5369037
  54.9370918 168.0406952  -0.1149342  53.8905334 168.2414093   1.1835765
  55.4751358 165.2659760   0.2759716  55.8395309 165.5573578  -0.7091251
  56.2895050 165.5100861   0.9581101  55.3632126 163.7458191   0.1742102
  54.6608772 163.4128876  -0.5899730  56.2855606 163.2077179  -0.0444660
  54.9893074 163.3348999   1.1119968  52.9244232 166.6340790   2.8217127
  51.8785782 167.2092743   2.4623380  53.4888382 166.9050598   3.9730759
  54.4023056 166.5065613   4.1370201  52.9481163 167.8095856   4.9695950
  51.8681717 167.8580170   4.8300076  53.2572556 167.1458130   6.3027210
  54.3280945 166.9452362   6.2685361  53.0871124 167.8489075   7.1180878
  52.5283279 165.7920227   6.5891008  52.6535988 165.1148834   5.7441874
  53.0683479 165.1086884   7.8766570  53.0200806 165.7983246   8.7193747
  52.4564209 164.2472382   8.1441565  54.0691948 164.6922150   7.7628489
  51.0061874 166.1189880   6.6589828  50.5402451 166.1038208   5.6737037
  50.4935722 165.4434967   7.3438439  50.8894615 167.0870972   7.1460638
  53.4673462 169.2299347   4.9845524  54.6476860 169.4197845   4.7121549
  52.5791779 170.2402039   5.2158442  51.1239967 170.2132721   5.2340517
  50.8949814 169.6641388   6.1473475  50.6743393 169.6380463   4.4247103
  50.5682182 171.6492767   5.2428021  50.2355003 171.9061127   6.2485003
  49.7594376 171.7011566   4.5139112  51.7998390 172.4441528   4.8742189
  51.7455788 173.4714661   5.2344761  51.8810387 172.4788818   3.7877972
  53.0224724 171.6044464   5.2822800  53.8315697 171.8160248   4.5832119
  53.4114914 171.9287567   6.7017097  52.8424072 171.4953766   7.6947722
  54.2087021 172.9228821   6.8174758  54.5547256 173.2140961   5.9143896
  54.3610420 173.8679199   7.9511280  54.4450340 173.3416138   8.9019413
  55.6310921 174.6977692   7.7438002  55.8023872 175.0377502   6.7224422
  55.5958252 175.5228577   8.4551907  56.7989922 173.7507324   8.0187922
  56.6549263 172.7440948   7.6263132  57.6651459 174.2445831   7.5783567
  57.1173897 173.6663055   9.5386343  57.6289749 174.6930542  10.0769892
  56.9119453 172.5561218  10.1014395  53.1116180 174.8137817   7.9744573
  52.7207985 175.4618073   6.9681334  52.3540192 174.7270355   9.0426359
  52.4698219 174.0339508   9.7681170  51.0944633 175.5596619   9.1429815
  50.6076622 175.6497498   8.1718960  50.0673370 174.8963165  10.0793552
  50.4755669 174.7704926  11.0821581  49.2052383 175.5566101  10.1737328
  49.4307747 173.6112518   9.5493803  49.0215874 173.6964874   8.5427008
  50.2708397 172.9452667   9.3522739  48.5238495 172.9127960  10.5623055
  48.3324203 171.9452667  10.0982447  49.0093765 172.7633209  11.5266819
  47.2392845 173.6152191  10.6022320  46.9788742 173.9466095   9.6843719
  46.3823738 173.8037567  11.6156769  46.6304321 173.3213654  12.7948923
  47.3472443 172.6246948  12.9395895  45.8802490 173.3217773  13.4711494
  45.3100624 174.5280151  11.4936342  45.2467995 174.9405975  10.5739193
  44.5187607 174.5559845  12.1206608  51.4132843 177.0117798   9.6038170
  51.2598953 177.3831482  10.7497253  51.7991028 177.8703918   8.6489344
  51.9244118 177.5573120   7.6968927  52.4656372 179.0961456   9.0244637
  53.1265335 179.0416260   9.8895311  53.4293900 179.5072479   7.8340349
  52.8154945 179.8519897   7.0019355  54.1323624 180.8303375   8.2028017
  54.9163933 180.7086945   8.9501982  54.4551735 181.3036041   7.2754860
  53.4078560 181.4604034   8.7187519  54.4642944 178.4019623   7.2778797
  53.9068069 177.7906342   6.5682473  55.2828674 178.9552002   6.8174739
  54.8730431 177.8176880   8.1022835  51.4473648 180.2484589   9.3303528
  50.7434120 180.7893829   8.4695120  51.2915497 180.5532227  10.6510420
  51.7953949 180.0448151  11.3636160  50.3820877 181.5615540  11.2055368
  49.4621925 181.4589386  10.6298990  50.0443802 181.1612091  12.6241121
  50.9076157 181.0592041  13.2817774  49.3683434 181.9216003  13.0151091
  49.3089905 179.8212585  12.8880892  49.9375153 179.0152435  12.5093842
  49.0992355 179.6190338  14.4483795  48.5792847 180.4989166  14.8272934
  48.4194984 178.7728577  14.5484896  50.0525398 179.4373932  14.9446802
  47.9344330 179.8244171  12.1644115  48.0587883 179.8296051  11.0815392
  47.6095581 178.7903900  12.2798290  47.3455315 180.6553345  12.5528345
  50.8054848 183.0308838  10.9840775  51.9224396 183.4169922  11.3173342
  49.8765488 183.9363251  10.6080551  48.4775276 183.6445465  10.2078371
  47.8676872 183.0360107  10.8755884  48.5248451 183.1652527   9.2300129
  47.7942772 184.9968872  10.0890541  47.3230820 185.2794342  11.0304575
  47.0314560 185.0034790   9.3104916  48.9892998 185.8924561   9.7965250
  48.7024422 186.9181519  10.0283394  49.2032814 185.7947693   8.7322092
  50.1580124 185.3728180  10.5662050  51.0213699 185.5650177   9.9291973
  50.2388573 185.9200592  11.9983377  49.9004135 185.2531281  12.9755325
  50.5104408 187.2244720  12.0974789  50.6225204 187.7067108  11.2171469
  50.5968132 187.9489136  13.4219084  51.3647003 187.4871216  14.0425501
  50.9613037 189.4298248  13.1978092  51.8480988 189.6303101  12.5965605
  50.1803169 189.9984436  12.6929979  51.0829086 190.0566406  14.4226198
  51.3069000 190.9818878  14.2986917  49.2586708 187.8688507  14.1253729
  48.1612282 188.0586090  13.5943060  49.3333015 187.5267639  15.4125671
  50.2424164 187.4631958  15.8479662  48.2383766 187.2500916  16.2921925
  47.7282028 186.3683167  15.9045057  48.7162132 186.9416351  17.7136669
  47.9395676 187.1170502  18.4580784  49.1865501 185.4608154  17.8890972
  50.0150070 185.2518921  17.2122555  49.5840912 185.3519287  18.8981590
  48.4006424 184.7480316  17.6392918  49.8011589 187.8443756  18.0797176
  50.1996956 187.5075531  18.8855171  47.2825127 188.4256592  16.4378014
  46.0925980 188.2018738  16.5909138  47.8603668 189.6215057  16.3349667
  48.8638115 189.6467438  16.2229023  47.1932487 190.8641205  16.4504700
  46.3045998 190.7641144  17.0736885  48.1454887 191.9265137  17.1265602
  49.0105057 192.1879120  16.5170345  47.6198540 192.8799591  17.1790905
  48.5928345 191.6835632  18.5418129  48.9417038 190.6510010  18.5567188
  49.4916725 192.2536774  18.7766800  47.4175835 191.9417877  19.9142666
  46.5039597 190.3471680  20.0575256  47.2531090 189.5652008  19.9335384
  45.9918633 190.3760986  21.0193062  45.7925301 190.1641541  19.2522411
  46.6936493 191.3732147  15.0985737  45.8680267 192.2588654  15.0744095
  47.1170197 190.8293457  13.8687544  47.8145332 190.0989532  13.8585062
  46.6478271 191.3589783  12.5531445  46.6156120 192.4469910  12.6104212
  47.6906395 191.0755615  11.4004230  47.5049286 191.7032928  10.5288982
  48.6304398 191.5505219  11.6819963  47.8148117 189.7344818  10.9512711
  48.4862633 189.6243134  10.2740583  45.2133217 190.9414520  12.2640686
  44.5683212 191.5340729  11.3891411  44.6755981 190.0506134  13.0255699
  45.2614136 189.4286499  13.5641708  43.2307053 189.6857758  13.1940775
  42.8339462 189.7776642  12.1830196  42.9785271 188.2644348  13.6397295
  43.7048225 188.0950165  14.4346485  41.9733124 188.0701904  14.0137806
  43.1871452 187.5283356  12.8633766  42.4807587 190.7260895  14.0941296
  41.3127022 190.4698181  14.4265242  43.1278458 191.8307648  14.5259180
  44.1184578 191.9816589  14.3993740  42.4130211 192.8415527  15.3759460
  41.4381599 192.9086456  14.8929806  42.2874527 192.3177185  16.8065472
  42.2311783 191.2366943  16.6786842  43.5506592 192.5396118  17.7173252
  43.5865631 193.5885773  18.0114269  43.4080734 192.0580292  18.6847134
  44.5328979 192.2807465  17.3219852  40.9882584 192.7326355  17.4632359
  40.1120148 192.2414093  17.0401649  40.9528313 192.3845673  18.4955616
  40.8108368 193.8049316  17.3807545  42.9589729 194.2528687  15.3513556
  42.2086220 195.1817780  15.6131296  44.2343559 194.4567108  14.9080267
  44.8351364 193.6614990  14.7443171  44.7906837 195.8032074  14.7528172
  44.3810349 196.5284729  15.4558735  46.3043098 195.7626648  15.0606127
  46.6143456 196.8022003  15.1671448  46.5068512 195.3662567  16.0555668
  47.2449875 195.1029663  14.0394135  47.4422760 194.1203003  14.4678459
  46.7808876 194.9850159  13.0602312  48.6541519 195.7102051  13.9520750
  49.1904449 196.1568756  14.9423428  49.3376770 195.4799805  12.8268471
  50.2134743 195.9171143  12.5778608  48.7908516 195.0126801  12.1178303
  44.4226761 196.3944092  13.4363317  45.2704124 196.9960632  12.7052965
  43.1628799 196.2122650  13.0244131  42.5513420 195.7057190  13.6485415
  42.4440193 196.9106140  11.9525690  43.1558762 197.1046600  11.1502504
  41.3195343 195.9929199  11.3950682  40.5053291 195.9024658  12.1140881
  40.7921638 196.5334320  10.6090469  41.8421822 194.6477356  10.7691431
  42.8131828 194.8665009  10.3248453  42.0133286 193.5317535  11.8128204
  41.2805061 193.4747162  12.6176901  42.0738754 192.5821838  11.2810755
  42.9845505 193.6757507  12.2861986  40.8378601 194.0742798   9.7829561
  40.6378250 194.8376617   9.0310745  41.1469765 193.1944580   9.2186375
  39.9008217 193.9095154  10.3148575  42.1228676 198.4015656  12.3634396
  40.9369736 198.7789307  12.4386749  43.1589050 199.1599731  12.7892447
  44.0532303 198.8035583  12.4838848  42.9796906 200.5569458  13.2611437
  42.1380539 200.9114685  12.6661119  42.6284637 200.5842590  14.7722063
  42.2440300 201.5657654  15.0496244  41.7628174 199.9237518  14.8219900
  43.7239723 200.0723114  15.7258587  44.3811340 199.3314667  15.2704468
  44.3880234 200.8916321  16.0012493  43.2156448 199.4243927  17.0772171
  43.7907791 198.5042267  17.5787125  42.1272240 199.8283081  17.6043987
  41.7679100 199.2306366  18.3349915  41.5881271 200.5271301  17.1133518
  44.1935921 201.3510590  12.8581200  45.2084961 200.8034363  12.4229994
  44.1872864 202.6832733  12.9712982  43.3834534 203.0631561  13.4505205
  45.2659798 203.6400146  12.5951920  45.3426743 203.6564789  11.5080175
  44.8716164 205.0220184  13.0807028  45.6936569 205.6994019  12.8493795
  44.0001640 205.3584290  12.5190115  44.7329865 204.9746704  14.5311384
  44.2029991 205.7530670  14.7176895  46.6964951 203.2243652  13.0749722
  47.6865005 203.7070312  12.4963255  46.7907524 202.5651093  14.2263794
  45.9255447 202.3305359  14.6916704  47.9956284 202.1915283  14.9910975
  48.6381073 203.0686493  15.0685511  47.6156883 201.7772369  16.4071903
  46.7626801 201.1125336  16.2705956  48.4085693 201.1242676  16.7719746
  47.4040146 202.8745880  17.4084415  48.1700096 203.6442261  17.3135109
  46.0727043 203.5326233  17.2097187  45.2297401 202.8544464  17.3423214
  45.9238548 204.3538818  17.9107857  46.1034470 203.9245758  16.1930923
  47.3593292 202.2702026  18.8384666  48.2920113 201.7215118  18.9693928
  47.2215576 203.0568848  19.5802593  46.4902191 201.6245270  18.9643211
  48.8523941 201.0867920  14.3053961  49.9030609 200.7214813  14.8051138
  48.3609695 200.4859467  13.2480564  47.4524956 200.7969666  12.9349508
  49.0277176 199.3471680  12.5792847  49.0565376 198.5876770  13.3605890
  48.0756836 198.7755432  11.5285501  48.5337067 197.8665619  11.1385794
  47.1630402 198.5255280  12.0695486  47.7665100 199.7838898  10.5050354
  47.1198463 199.3881683   9.9161062  50.4552574 199.5802917  12.0062408
  51.3508453 198.7428436  12.0960808  50.6603813 200.7984924  11.4665356
  49.8381042 201.3819427  11.4069185  51.9860535 201.3731995  10.9672108
  52.4627533 200.6455536  10.3104095  51.7040863 202.6667633  10.1879902
  52.5473328 202.9185944   9.5448599  50.9108200 202.4623108   9.4689436
  51.3050690 203.8118591  11.0721960  50.4485779 203.4788513  11.6584015
  52.0650902 204.0811615  11.8056421  50.9574165 205.0827637  10.3045559
  51.7262840 205.8241425  10.0870428  50.6007080 204.7565613   9.3275967
  49.7668800 205.6433716  10.9741983  49.0599823 205.0416870  11.3721571
  49.3904381 206.8763885  10.8471909  50.1368065 207.8439484  10.5278034
  51.0531769 207.7167053  10.1226101  49.8527908 208.8115692  10.5839844
  48.2088089 207.1298218  11.2227812  47.5836945 206.3856812  11.4977226
  47.9533272 208.1041107  11.2975798  53.0785866 201.6090698  11.9868908
  54.0796165 202.3177948  11.6949883  52.8347855 201.1630554  13.2096901
  52.0209084 200.5949707  13.3967466  53.8719101 201.2566681  14.2512665
  54.3427849 202.2382965  14.1986885  53.1948433 201.2698822  15.5728645
  52.5352211 200.4025574  15.5452614  53.8345146 201.1420441  16.4461212
  52.3736229 202.5891113  15.7412434  52.9889641 203.4834595  15.6432505
  51.6672897 202.6687317  14.9148884  51.6910934 202.6399689  17.0991726
  50.8878365 203.3749390  17.0473137  51.1888618 201.7126617  17.3747730
  52.5472183 203.0520782  18.1964989  53.4228554 203.4349976  17.8697853
  52.2063408 203.1480865  19.4583397  51.0721054 202.7873077  19.9598331
  50.3239403 202.3646240  19.4290829  50.8687477 202.8646545  20.9461231
  53.0952415 203.6269073  20.2947788  54.0485229 203.6779175  19.9650002
  52.7963753 203.7701111  21.2488613  54.9957733 200.1862183  14.0530720
  55.1662178 199.2368774  14.7933645  55.7291870 200.3069305  12.9226437
  55.5531540 201.1027222  12.3261299  56.6493759 199.2665253  12.4002361
  56.2047348 198.3131256  12.6856031  56.6508217 199.3303833  10.8269691
  55.7295303 199.7418365  10.4146252  57.5238075 199.8757019  10.4683151
  56.7725296 197.9842377  10.0858669  57.6759109 197.7039948   9.0528126
  57.3973007 196.4422455   8.6128836  57.8225555 195.8554688   7.8121009
  56.3648186 195.8999176   9.3424358  55.9690094 194.9872131   9.1680565
  55.9306984 196.8959808  10.1959629  55.0247345 196.8169250  10.7785387
  58.0047302 199.3128510  13.0405092  58.2074585 199.9912109  14.0811377
  58.9681053 198.5937653  12.4816217  58.6701965 198.1308594  11.6348200
  60.1414337 197.9990234  13.0969400  59.9787560 198.0904083  14.1708508
  60.0510559 196.4695129  12.8394299  60.8592415 195.9681702  13.3719568
  58.7029610 195.9849854  13.3065004  57.8457794 196.3179016  12.7212648
  58.7881203 194.9002686  13.3716078  58.6199760 196.3408813  14.3334112
  60.2390327 196.3576660  11.3153915  59.3134613 196.6963959  10.8499117
  61.0559387 197.0108795  11.0086927  60.5480194 194.9763184  10.7820435
  59.9410133 194.2087860  11.2621765  60.2676239 194.9139557   9.7305737
  61.6156578 194.7715454  10.8615351  61.5370255 198.6376343  12.9407883
  61.7419891 199.3686218  11.9667110  62.6388855 198.3538208  13.7103701
  63.4374657 198.8126526  13.2958384  62.9931984 197.1497803  14.5227413
  63.9404831 197.4692535  14.9571314  62.0651779 196.9959564  15.7747040
  61.1247101 196.5443115  15.4590635  62.5822105 196.3605347  16.4937420
  61.6762619 198.3133850  16.5221710  62.5959129 199.3651428  16.6933575
  63.6535530 199.2830963  16.4906940  62.2676086 200.5850067  17.3031883
  62.9877853 201.3763123  17.4501286  60.9727783 200.7919617  17.7275276
  60.7717667 201.7285767  18.2262859  60.0319633 199.7378387  17.6274929
  59.0465584 199.8277588  18.0602608  60.3914986 198.4867554  17.0464172
  59.6198158 197.7439117  16.9082432  63.3894081 195.7976837  13.7808342
  63.6286583 195.8964539  12.6102037  63.4813690 194.5960236  14.4166260
  62.4575539 194.0437927  15.2126408  61.4867134 194.4132843  14.8824129
  62.5490990 194.1903992  16.2888508  62.4563904 192.4735718  14.9932642
  61.9619560 192.1383057  14.0815477  62.0488319 191.8982544  15.8245268
  64.0001678 192.2601624  14.7560873  64.2146149 191.3639984  14.1738529
  64.4923325 192.1075897  15.7166052  64.5849152 193.6332550  14.2574234
  65.3462372 194.0460052  14.9193335  65.2293625 193.5432739  12.8357992
  64.5500641 193.2374115  11.8568506  66.5688782 193.4080048  12.7040100
  66.7962112 193.2359009  11.7350931  67.6500626 193.9082947  13.6203575
  68.5922546 193.9043732  13.0723104  67.8822250 192.9062805  14.8262014
  68.7356262 193.2227325  15.4259224  66.9990692 192.9794769  15.4608440
  68.0482941 191.6119995  14.3237772  67.5959625 190.9864197  14.8944349
  67.5157013 195.3678284  14.1714239  66.5805817 196.0293579  13.7387943
  68.3637924 195.9323425  15.0681534  69.1442337 195.4288025  15.4649401
  67.9244003 197.1435242  15.7562723  67.4634933 197.7432556  14.9714308
  66.6775665 196.8778839  16.6812172  66.1160736 196.1105957  16.1482048
  67.1499710 196.4305420  17.5557575  65.8173370 197.9850616  16.9325523
  66.0331879 198.4419556  17.7488022  68.9147797 198.1848145  16.3529434
  68.7043533 198.6811218  17.4257450  70.0716705 198.4920044  15.7675323
  70.6153870 199.1293182  16.3317089  70.7671509 198.0158386  14.5511379
  71.6613541 198.6190338  14.3941689  69.7877808 198.2935791  13.3386011
  68.8790283 197.6930695  13.3794918  69.4562073 199.3318939  13.3452606
  70.3980713 197.9614258  11.8537369  70.4965439 196.8783569  11.9270821
  69.6258469 198.2333069  11.1341181  71.8197784 198.5918732  11.5602341
  72.3682556 198.8049011  12.4777765  72.4497528 197.8570862  11.0588970
  71.8448639 199.8189850  10.6191902  70.8091354 200.1468353  10.5304890
  72.3687820 200.6360626  11.1151581  72.4939880 199.4816132   9.3050575
  71.9600983 198.8326569   8.7447548  72.6990356 200.3333282   8.8024387
  73.4021149 199.0524292   9.4109421  71.4290237 196.5883331  14.7392569
  71.4977951 195.7856598  13.7745113  72.0174026 196.2591248  15.9360294
  71.5263519 196.4256439  17.2556973  70.4446793 196.3882294  17.3848476
  71.9919815 197.3588257  17.5726891  72.0680389 195.3099670  18.0994835
  71.2951813 194.6682281  18.5225201  72.7283859 195.7875519  18.8233204
  72.9349518 194.5103149  17.1915073  73.8918915 194.2628021  17.6509590
  72.3587189 193.6210632  16.9360294  73.1236420 195.3568420  15.9654455
  73.1391830 194.6627655  15.1251402  74.4795456 196.0106659  16.0238609
  75.4489822 195.2622528  16.0046120  74.5345154 197.3486481  16.2217827
  73.6477280 197.8292084  16.1690960  75.7762756 198.1509247  16.2727737
  76.2875900 198.0006714  15.3219442  75.3866348 199.6557770  16.4413662
  74.3328552 199.8108521  16.2098484  75.5610199 199.8575439  17.4982357
  76.2683029 200.6171265  15.6153345  77.2736206 200.2115479  15.5016108
  75.7922134 200.6460876  14.6352301  76.3313599 202.0678406  15.9860935
  76.6521606 202.1213989  17.0264397  77.0811005 202.5175323  15.3351221
  75.0977020 202.9401093  16.0174236  74.6235962 202.8000183  15.0459776
  74.4079971 202.5578918  16.7699623  75.5092087 204.3901215  16.2542114
  76.2587814 204.6588135  15.6328840  74.7193756 205.0021515  16.1069851
  75.8863678 204.6180420  17.1630020  76.7020264 197.6013794  17.3705444
  77.9051285 197.5091095  17.2083969  76.0934982 197.1853790  18.5087433
  75.0857086 197.1932373  18.4424019  76.7624435 196.8474731  19.7723789
  77.7183838 197.3663788  19.7015419  76.0999985 197.5380554  20.9917793
  76.9391098 197.5565033  21.6872349  75.7919693 199.0143280  20.6387501
  74.7588959 199.2411041  20.3752384  75.8537064 199.4646606  21.6294537
  76.5461197 199.4054871  19.9558506  74.8691101 196.8910828  21.6549110
  75.0316315 195.8335724  21.8631496  74.6192856 197.4744720  22.5411053
  74.0060806 197.0090942  20.9996605  77.2444077 195.3797760  19.9959412
  77.6705322 195.0269318  21.1285629  77.2532501 194.5246887  18.9444084
  77.1011581 194.9162903  18.0259228  77.9387360 193.2206116  19.0534573
  77.8752060 192.6622925  18.1194668  79.4561539 193.4234161  19.2693501
  79.6594620 193.6215363  20.3217335  80.0845642 192.5600586  19.0506916
  80.2590790 194.4569550  18.4627781  80.7604675 195.6258698  18.9787788
  80.5993347 195.8743439  20.0173836  81.4008713 196.3462982  17.9993401
  81.7132187 197.3012695  18.1022015  81.7212982 195.5029449  16.9353924
  82.4870453 195.6871338  15.7237434  83.0536880 196.5950928  15.5791054
  82.4463501 194.6737518  14.7365351  83.1406784 194.7480927  13.9126568
  81.6043167 193.5695343  14.9347439  81.6750336 192.7373657  14.2499905
  80.8629303 193.3696442  16.0897121  80.2996826 192.4703522  16.2907906
  80.8292770 194.3398285  17.0971317  77.3644257 192.1483765  20.0899887
  77.9052582 191.0380707  20.1633148  76.3410263 192.4810944  20.8833351
  75.9575348 193.4066620  20.7554550  76.0275955 191.7393341  22.0834675
  76.9958115 191.2803802  22.2835445  74.9963684 190.5718384  21.8777218
  74.4437943 190.5215912  22.8159313  74.3057175 190.8997345  21.1008205
  75.7021942 189.2619019  21.6354103  74.9985962 188.4316254  21.5746956
  76.1071472 189.1903076  20.6259613  76.7832718 188.7932892  22.6909008
  77.0063782 189.3458557  23.7015438  77.5455246 187.7661591  22.2896042
  78.3318787 187.5054016  22.8673172  77.3485489 187.3394318  21.3956280
  75.5609970 192.4199829  23.3783131  74.4784393 193.0567627  23.4588737
  76.2843552 192.0087891  24.4369564  77.0726471 191.3942566  24.2919292
  75.8648376 192.1654968  25.8109169  75.0440750 191.4723511  25.9952908
  77.0504684 191.7386627  26.6998730  76.9597626 192.0970764  27.7252541
  77.0894089 190.6536407  26.6032810  78.4515305 192.3410187  26.4183388
  78.6036377 193.5426025  26.1596870  79.3990402 191.5177307  26.5796432
  75.3527222 193.5461426  26.2403049  75.6105881 194.5806427  25.6517372
  74.5920029 193.5349274  27.3384361  74.5566788 192.6037598  27.7280369
  73.8546448 194.6100464  27.9776649  73.0718460 194.1933441  28.6114655
  74.7021027 195.3948212  29.0648079  74.1444550 196.2583618  29.4273167
  74.9518356 194.7375488  29.8977222  76.0579605 195.9613037  28.6399422
  76.6334991 195.9842224  29.5653229  76.5352249 195.3095703  27.9081287
  76.0311279 197.4296417  28.0086193  75.1516876 197.9891052  28.3275013
  76.8346786 198.0468292  28.4104481  76.3108368 197.4427185  26.5365200
  75.6354141 197.7772522  25.8642063  77.4556885 197.2038422  25.9633255
  78.6080246 196.9315796  26.6015339  78.5388489 196.7489319  27.5924683
  79.4099274 196.5640717  26.1095982  77.4153290 197.2084503  24.6478672
  78.2429810 196.9236298  24.1439114  76.6163559 197.4781799  24.0920010
  73.0172729 195.3757019  27.0445976  72.5173187 194.7010193  26.0669003
  72.7558594 196.6193085  27.2181702  73.0041122 196.9051056  28.1545410
  71.9824677 197.5740509  26.4371872  71.9876709 198.5194397  26.9797096
  72.7035065 197.7670135  25.1151257  73.1220551 196.8474731  24.7060165
  72.0588379 198.2013092  24.3509979  73.5399094 198.4471130  25.2763309
  70.4858780 197.2776642  26.1830635  69.5781479 197.9916687  26.6182423
  70.1822586 196.2651978  25.3684902  70.9410172 195.7867737  24.9042778
  68.8111420 195.9018707  24.9709282  68.2874527 196.8539734  24.8851795
  68.7453079 195.3609314  23.5382481  67.6948242 195.1134338  23.3855095
  68.9523087 196.1893616  22.8607769  69.6317368 194.1663666  23.2261810
  69.2552109 192.8590393  23.6651859  68.4840164 192.6432648  24.3898277
  69.9441147 191.7461090  23.2066746  69.7116013 190.7558899  23.5697079
  70.9591904 191.9440460  22.2441063  71.4832458 191.1064301  21.8080082
  71.3085403 193.2550659  21.7712688  72.0069504 193.3603210  20.9542351
  70.5877609 194.3483276  22.2387581  70.7606812 195.3699341  21.9341106
  67.9593506 195.2083588  26.0341187  67.2514114 194.2446289  25.7014294
  67.9457626 195.7083588  27.2587566  68.5996323 196.4447327  27.4830608
  67.0964890 195.1727905  28.3093796  66.8291473 194.1324463  28.1241379
  67.8344803 195.2328644  29.6598110  68.1562958 196.2541199  29.8636990
  67.2448120 194.7953033  30.4653683  69.1948776 194.3519592  29.6770687
  68.9154663 193.4383850  30.2018566  69.4913635 194.1263428  28.6527176
  70.2744751 195.2125702  30.4289951  71.2105255 194.6545715  30.4060020
  70.4547653 196.1894684  29.9803600  69.8597412 195.4139557  31.7998714
  69.7465515 194.5040588  32.2234116  69.7612915 196.5363312  32.4272003
  69.9557495 197.6896820  31.8790550  70.1582565 197.7683563  30.8926964
  69.7718353 198.5493622  32.3762589  69.3236923 196.5912170  33.6819649
  68.9500351 195.7847900  34.1617203  69.2017059 197.4357605  34.2222939
  65.7225113 195.8465424  28.2641792  64.7510300 195.1700287  27.9963379
  65.6910629 197.1924438  28.5248165  66.6016998 197.5995026  28.6833534
  64.4244308 197.9187164  28.4797039  63.7697754 197.5865326  29.2854214
  64.8769836 199.3962402  28.7725391  65.7876511 199.6805420  28.2453308
  64.0206528 199.9856873  28.4448814  65.2082596 199.6188812  30.3087215
  64.3307037 199.2939606  30.8676701  65.9228058 198.8724670  30.6556950
  65.6219177 201.0106812  30.7957344  65.8181229 201.8899231  29.9808369
  65.9375000 201.1625214  32.0744019  66.3011856 202.0508728  32.3885040
  65.8548126 200.3576355  32.6789055  63.6019554 197.7923737  27.1675625
  62.3734703 197.8987732  27.1581917  64.2456436 197.5521698  26.0027523
  65.2546463 197.5862732  26.0317612  63.6103821 197.4693756  24.6986752
  62.8559952 198.2561188  24.7060528  64.5828400 197.7198639  23.5924625
  64.8928528 198.7589111  23.7036572  65.4253540 197.0449066  23.7431583
  64.0149231 197.4699707  22.1709652  63.4712372 198.3898315  21.2995625
  63.2421951 199.4119568  21.5625954  62.9811630 197.7420654  20.1883717
  62.5767822 198.2526398  19.4164371  63.2637825 196.3891449  20.1919823
  62.9437485 195.3211365  19.3124466  62.2491875 195.5186768  18.5093517
  63.4857025 194.0605469  19.5749588  63.3617172 193.3321381  18.7872639
  64.2403641 193.8603058  20.7428951  64.6656952 192.8881836  20.9440956
  64.5556870 194.8715057  21.6536751  65.0017242 194.6867523  22.6197567
  64.0243073 196.2067413  21.4393139  62.8588066 196.1575012  24.5224800
  61.8946342 196.1548767  23.8202362  63.1866798 195.0828247  25.2824860
  64.0875244 195.0875092  25.7391663  62.3618355 193.8503265  25.1547985
  62.1762619 193.7927094  24.0822582  63.1605530 192.5548401  25.5410480
  63.8479233 192.8764954  26.3234577  62.4299736 191.8281555  25.8964062
  63.7726898 191.9705963  24.3620529  65.0983124 191.8179779  24.1366158
  65.8711700 192.2224731  24.7733822  65.3172760 191.0920715  22.9850979
  66.2313080 190.8882294  22.6067982  64.1450500 190.7481079  22.3849983
  63.7665291 189.9754791  21.2514305  64.5149536 189.7569885  20.5040874
  62.3869629 189.6019592  21.0873718  62.0557899 188.9365082  20.3038559
  61.4586067 190.0769196  21.9270477  60.4330406 189.7863312  21.7533531
  61.7669563 190.8119812  23.0869064  61.0006256 190.9714355  23.8310261
  63.1218185 191.2172546  23.2717953  61.0191116 193.9646149  25.8407612
  60.0233345 193.4368134  25.2497635  60.9226570 194.8376007  26.8687782
  61.7978897 195.1288605  27.2801628  59.6456413 195.3010864  27.4191170
  59.0315399 194.4141388  27.5749798  59.8262177 195.9439392  28.8193378
  60.4319878 196.8433228  28.7086601  58.8504066 196.1917725  29.2370319
  60.5352516 194.9678802  29.8261032  59.9673691 194.0709686  30.0733948
  61.5609741 194.7140656  29.5585785  60.6309586 195.6455994  31.2157669
  60.9020615 196.8615417  31.3232918  60.6810951 194.8752136  32.2759743
  61.0683975 195.2533112  33.1287041  60.6104126 193.8677216  32.2678070
  58.8778229 196.2293243  26.4403934  57.6635437 195.9890747  26.2409649
  59.5486984 197.1604004  25.8656673  60.5002899 197.2034149  26.2014008
  59.0468826 198.2515564  25.0205936  58.3552742 198.8893280  25.5710678
  60.1421127 199.1741638  24.6681519  60.7593842 199.3673553  25.5455074
  60.7649574 198.7086182  23.9043331  59.7349396 200.5491180  24.0677586
  59.1494484 200.3842621  23.1632576  59.1379128 201.1099854  24.7868481
  60.9803925 201.3669434  23.6423988  61.7073898 201.3550568  24.4544563
  61.4222946 200.8927002  22.7660885  60.7333832 202.8792419  23.3544788
  61.6809921 203.3372955  23.0710678  59.9911156 203.0214844  22.5690422
  60.2899818 203.6806030  24.5190182  60.8698387 203.5332794  25.3327503
  60.3552513 204.6625366  24.2917728  59.3670349 203.4053345  24.8231602
  58.4469070 197.6752167  23.7381420  57.3990288 198.1433563  23.2839222
  59.1239166 196.6937408  23.0959911  59.9961014 196.3844452  23.5006313
  58.6445541 196.0554199  21.8705349  58.3526192 196.7871857  21.1172752
  59.8126068 195.3806915  21.2727032  60.6065292 196.0751343  20.9978638
  60.1774559 194.6289062  21.9725552  59.5427628 194.4100189  20.0871315
  59.2610664 194.9225159  18.8096924  59.2651863 195.9906006  18.6496944
  59.1038437 194.1269989  17.6728020  59.0631866 194.5745392  16.6907349
  59.0019302 192.7022858  17.8224068  58.6497993 191.9207001  16.7922363
  58.6638527 192.3171082  15.9180174  59.1587830 192.1819000  19.1072102
  59.0862656 191.1235657  19.3097992  59.4064178 193.0232697  20.1866398
  59.5361137 192.5446167  21.1460533  57.4247856 195.1100464  22.1094246
  56.4013824 195.3408966  21.4689960  57.4576416 194.2964630  23.1850986
  58.3289261 194.2895050  23.6958981  56.2798119 193.6099548  23.6609745
  56.0224228 192.8371582  22.9366589  56.6803703 192.8264771  24.9544392
  57.3240700 191.9977264  24.6595840  57.2806129 193.4566040  25.6107578
  55.4826393 192.2863617  25.8191891  54.8325348 193.1299744  26.0511246
  54.8916817 191.5921936  25.2216892  56.0763512 191.6580658  27.0562859
  55.8988419 190.4710388  27.1977501  56.5447273 192.4330750  27.9763203
  56.6638985 192.0674591  28.9102478  56.4112053 193.4231873  27.8281078
  55.1329765 194.5727386  23.9832039  54.0068283 194.2720490  23.5125751
  55.3459663 195.6114655  24.8021526  56.2260513 195.6879730  25.2917461
  54.2742538 196.6884003  25.0078640  53.4127998 196.1466370  25.3983536
  54.7626266 197.7264709  26.0703564  55.1760292 197.1076660  26.8667717
  55.5194283 198.3935852  25.6576729  53.6683998 198.6555939  26.6420517
  53.3487740 199.2754822  25.8043919  52.8482780 198.1413422  27.1431065
  54.2793045 199.6664734  27.6735420  54.6243553 199.1303864  28.5576572
  55.0937042 200.2560120  27.2524796  53.2542572 200.6406403  28.1613903
  53.2987595 201.4368591  27.4183178  52.2315178 200.2650909  28.1939259
  53.5885124 201.1483459  29.5228996  54.5563622 201.4364929  29.5045509
  52.9868813 201.8972168  29.8348637  53.5703011 200.4662018  30.2675133
  53.7851906 197.3571777  23.6836262  52.6932411 197.8903198  23.7090721
  54.6128616 197.4437103  22.5728931  55.5713959 197.1910858  22.7665348
  54.1980896 198.0738373  21.3289051  53.5232239 198.8959198  21.5673332
  55.5007019 198.7081757  20.7350292  55.8794479 199.2700195  21.5888348
  56.2633057 197.9728851  20.4783382  55.1041946 199.5613098  19.5382748
  54.6970215 198.9371185  18.7428608  54.2822876 200.2219086  19.8142853
  56.2781410 200.4089966  18.9257622  57.0283890 199.7047119  18.5662956
  55.8956032 200.9953308  18.0903053  56.7963257 201.3290253  19.9191895
  56.5664902 201.0856781  20.8721085  57.4607201 202.4526978  19.7414227
  58.0677719 202.6969452  18.5699711  57.9476395 202.0803223  17.7791233
  58.3716431 203.6286011  18.3254356  57.5278206 203.3808441  20.7076683
  57.0381851 203.3417969  21.5901833  58.2778168 204.0561371  20.6677780
  53.4672966 197.1793365  20.3452320  52.3911743 197.6076202  19.8318348
  54.0856018 196.0106354  20.1500168  54.9993973 195.8077393  20.5293808
  53.5908089 195.0496063  19.1980324  53.4497414 195.5576630  18.2440510
  54.7271767 194.0280457  18.9060535  55.6573296 194.5336304  18.6466217
  54.9645538 193.5381927  19.8504047  54.3262939 192.9117279  17.9266663
  53.6103325 192.2221375  18.3738365  53.7812653 193.3066559  17.0692921
  55.5465584 192.1424561  17.3925934  56.2723503 192.8689575  17.0271873
  55.9605064 191.5476837  18.2068424  55.1839676 191.1200104  16.3245316
  55.9732437 190.3685608  16.3458347  54.2388725 190.6377258  16.5741272
  55.1906624 191.6709137  14.9434805  56.1296349 191.9180756  14.6653681
  54.8384628 190.9871368  14.2888803  54.6369591 192.5144501  14.8990602
  52.3108101 194.3979187  19.6502552  51.5195656 193.9235229  18.8724251
  52.1377335 194.3085785  20.9669209  52.8997726 194.5674744  21.5771446
  50.9657211 193.6500244  21.6160965  50.3280869 193.3566895  20.7821426
  51.4132500 192.4410553  22.5285988  52.0877495 192.8393402  23.2865734
  50.4630890 192.0339203  22.8743572  52.1387672 191.4416962  21.6868267
  51.5486221 190.6677399  20.6836052  50.4731827 190.6735992  20.5846119
  52.2916908 189.7705688  19.8614864  51.8495674 189.1138916  19.1268463
  53.6638184 189.6080017  20.0966358  54.2291107 188.9603882  19.4428349
  54.2672729 190.3850098  21.0981274  55.3341103 190.4021301  21.2653732
  53.5266304 191.3007660  21.7711620  54.0586357 191.9064178  22.4898815
  50.0161629 194.6042480  22.3621292  49.1932411 194.1235199  23.0667858
  50.0708427 195.9241943  22.1160793  50.7947006 196.2376099  21.4852791
  49.1259804 196.9123230  22.7126102  49.2190247 196.8480988  23.7967300
  49.5049515 198.3156128  22.1559372  50.5194588 198.5570068  22.4731178
  49.4774666 198.2401581  21.0688992  48.6211090 199.5081482  22.4061031
  48.9485092 200.5408936  23.2646809  47.8792915 201.3285370  23.2427521
  47.7808418 202.2347107  23.8220463  46.9353256 200.8599548  22.4187851
  45.9894562 201.2139282  22.4075470  47.4028740 199.6946716  21.8335476
  46.9449806 199.1064758  21.0520420  47.6493416 196.5671997  22.3508682
  46.7212143 196.8267365  23.1583881  47.3990784 195.9376373  21.2159824
  48.1953964 195.9129944  20.5951977  46.0537758 195.5534668  20.7521572
  45.3656197 196.3718109  20.9639568  46.0633392 195.4980621  19.2198868
  46.8195114 194.7742615  18.9158840  45.1202888 195.0827179  18.8645763
  46.5504341 197.1067505  18.5533390  45.3602829 197.7109375  18.4951630
  45.4234772 194.2847595  21.3305435  44.2299995 193.9815063  21.2774620
  46.1909409 193.6507568  22.1848602  47.1427383 193.9881134  22.2037964
  45.7473373 192.6473541  23.1654663  45.3626328 191.7997894  22.5982475
  47.0009499 192.1091003  23.8484020  47.4253960 192.9414368  24.4098072
  46.7238693 191.4774475  24.6923981  47.6184349 191.5964355  23.1108398
  44.7240906 193.1869507  24.1598473  43.9669571 192.3828583  24.7353382
  44.5128098 194.4926910  24.2724075  45.1262360 195.1500092  23.8122463
  43.5460320 195.1289825  25.1790295  43.7104721 194.7442932  26.1855412
  43.7896118 196.6515808  25.2111397  43.2106590 197.1755219  25.9716625
  44.8563576 196.8015900  25.3774261  43.4760361 197.2188721  23.8685684
  43.7628479 198.1350098  23.8761044  42.1281204 194.8681946  24.7413063
  41.2330170 194.8313751  25.5751801  41.8340416 194.6489716  23.4547367
  42.6482162 194.6618652  22.8571892  40.5486832 194.3592377  22.8776207
  39.7691803 194.9872742  23.3089676  40.4870148 194.5685730  21.3686295
  40.9376526 193.6955109  20.8966236  39.4863777 194.6463318  20.9434471
  41.2246132 195.7914429  20.8050442  42.2773972 195.6844635  21.0663891
  41.1104355 195.8999939  19.2684917  40.0927849 195.7847900  18.8953819
  41.4854126 196.8700867  18.9422665  41.7877808 195.1071472  18.9511776
  40.6443672 197.0950623  21.3896599  40.8682213 196.9763489  22.4498024
  41.2316971 197.9066162  20.9600925  39.5566483 197.1449738  21.3398418
  40.0479736 192.9375305  23.1965942  38.8323975 192.6769257  23.4294567
  41.0152626 192.0178070  23.2337608  41.9569778 192.3677063  23.1296272
  40.9632492 190.5882263  23.5713329  39.9836197 190.2686005  23.2159863
  41.9238319 189.6887817  22.8809547  41.6120758 188.6803894  23.1530552
  41.9477959 189.7541962  21.3811722  42.3121338 190.7142334  21.0155411
  42.4929047 188.9271393  20.9262829  40.9346924 189.5722351  21.0225277
  43.2494507 189.8637543  23.3724174  43.7171440 189.0845490  23.0630779
  41.0333099 190.3473206  25.1031513  41.3044167 191.2491913  25.8917294
  40.7057304 189.1468964  25.5715733  40.4536819 188.4142303  24.9236736
  40.6076546 188.8176575  27.0236015  40.2310715 189.7010498  27.5392380
  39.6032944 187.7191162  27.1572647  39.5043755 187.3974304  28.1940079
  38.6295128 188.0477142  26.7941151  39.9642639 186.6041107  26.3508015
  40.5583725 186.1035614  26.9147949  41.9550323 188.5092468  27.7083912
  41.9824181 188.1062317  28.8787422  43.0344200 188.7167664  27.0548038
  42.9903030 189.3463898  26.2663040  44.4150581 188.3387756  27.4693565
  44.3896217 187.8274231  28.4316387  45.0101433 187.2797241  26.5368595
  45.2092628 187.7061310  25.5536842  46.0262413 187.0070801  26.8220119
  44.1146278 186.1016235  26.2762852  43.4346619 185.8237457  25.1482391
  43.4923363 186.3579407  24.2113724  42.7069244 184.6063690  25.2541313
  42.0427055 184.2596741  24.5768452  42.8258858 184.1009216  26.5545635
  42.2992668 182.9510498  27.1749725  41.4777412 182.3914490  26.7526608
  42.7840500 182.5927429  28.4566326  42.3354988 181.6935272  28.8523788
  43.6532860 183.4133148  29.1641922  43.9940262 183.1577301  30.1566505
  44.0623627 184.6476593  28.5610104  44.6847839 185.2718201  29.1850452
  43.7149239 185.0408325  27.2475338  45.4439774 189.4207001  27.5817680
  45.4711113 190.2453156  26.6877537  46.3480682 189.4338226  28.5660343
  46.5250702 188.3888245  29.6149445  46.6165543 187.3965607  29.1731815
  45.6387634 188.4099426  30.2490711  47.7692566 188.7274323  30.3756199
  48.5532799 188.1523285  29.8830032  47.7114029 188.4568481  31.4299145
  47.9715767 190.2159576  30.1381474  49.0257721 190.4913025  30.1691017
  47.3087769 190.8050690  30.7719955  47.3421631 190.4505005  28.7452679
  46.8757820 191.4356689  28.7397099  48.3985786 190.3578491  27.6531792
  48.7550774 189.2624207  27.1695690  49.1579971 191.4974213  27.3775368
  48.9048958 192.8249207  27.9626522  49.3995934 192.8306427  28.9339123
  47.8428497 193.0113525  28.1220436  49.4955978 193.8086395  27.0047913
  49.7780266 194.7174835  27.5361614  48.7896729 194.1392822  26.2429161
  50.6704559 193.0232697  26.4444180  51.5282326 193.0936737  27.1132641
  51.0729294 193.3928375  25.5012684  50.1344948 191.5477448  26.2837868
  49.6068192 191.3968201  25.3420448  51.2559547 190.4614563  26.3397694
  51.5774460 189.8565369  25.3088074  51.7346611 190.0904846  27.5084286
  51.4594116 190.5598602  28.3593292  52.7277107 189.0397797  27.7306252
  53.5096664 189.4541168  27.0942516  53.2307777 189.0689392  29.1596527
  53.9633102 188.2678070  29.2580700  53.8643265 189.9487000  29.2724819
  52.3149414 188.8891144  30.2979240  51.8448753 189.8635101  31.1233788
  52.0190811 190.9236298  31.0128613  50.9584618 189.3542786  32.0445137
  50.3958054 189.8583069  32.7149467  50.8590698 187.9748840  31.8723240
  50.0400467 186.9729156  32.4366074  49.3277016 187.2007294  33.2157516
  50.0935516 185.6381073  32.0271225  49.4725800 184.9231262  32.5463486
  51.0246658 185.2577972  31.0497303  51.0604324 184.2721558  30.6096859
  51.8553276 186.2249146  30.4576683  52.4396553 185.9927673  29.5795631
  51.7336731 187.6255798  30.8164921  52.3863716 187.6260223  27.2745323
  53.2782822 186.9143829  26.7652950  51.1115608 187.1677551  27.2710476
  50.3510132 187.8010101  27.4727287  50.7260513 185.8704834  26.7408714
  51.3580818 185.1999969  27.3231831  49.2624893 185.5233612  27.0689030
  49.0738945 185.5997772  28.1397419  48.7459373 186.2873993  26.4879379
  48.8102951 184.0926514  26.5751743  48.9156418 184.0628815  25.4906864
  49.5031776 182.9362946  27.2948933  49.4439964 183.0258331  28.3795948
  49.1466980 181.9331665  27.0608883  50.5550995 182.8875732  27.0134964
  47.3030548 183.9457397  26.7299442  46.8897133 184.7762146  26.1576233
  46.9684258 183.0012817  26.3008728  47.0630417 184.0669861  27.7862549
  51.1095238 185.6479340  25.2509289  51.6365929 184.6235199  24.8987179
  50.7889061 186.6355591  24.4279804  50.4976807 187.5236206  24.8109016
  51.1270332 186.5653229  23.0081444  50.6019897 185.6415863  22.7649879
  50.4187546 187.7017975  22.2641602  50.7473145 188.6567688  22.6742344
  50.7784691 187.7123566  21.2352791  48.8782120 187.6126404  22.2057438
  48.2147713 186.5738983  21.5328789  48.8516731 185.8388977  21.0632553
  46.7968369 186.4779205  21.5491562  46.3450165 185.6534729  21.0176239
  46.0811462 187.4492493  22.2464657  44.7486191 187.4978638  22.2965641
  44.3924942 187.0050659  21.5536423  46.7593918 188.5160675  22.8903027
  46.2609253 189.2612000  23.4925747  48.1637268 188.5773621  22.9228268
  48.5720978 189.3643799  23.5394650  52.6332474 186.4663239  22.6946030
  52.9861870 185.7544708  21.7853107  53.4979782 187.0672150  23.5335350
  53.0865517 187.6179504  24.2734795  54.9421692 186.8521881  23.3800697
  55.2998772 187.2490692  22.4299927  55.7394295 187.6086884  24.4114265
  55.4163818 187.2912903  25.4028931  56.7858620 187.3777466  24.2120667
  55.5987358 189.0486908  24.3968658  56.1133766 189.4135132  25.1204967
  55.4028206 185.3666687  23.5334969  56.3587074 184.9419403  22.9405251
  54.6348763 184.5303040  24.2033939  53.7783318 184.8795013  24.6089821
  54.9065971 183.0595703  24.4475517  55.9889374 182.9900513  24.3388729
  54.3386917 182.5603943  25.8062706  53.2614098 182.4825592  25.6596107
  54.7993584 181.5805817  25.9320908  54.5968246 183.3639069  27.1397686
  53.8948441 184.1959076  27.0842667  54.2856178 182.6497345  28.5102749
  55.0951805 181.9362946  28.6643105  54.4103165 183.4875946  29.1962433
  53.2829514 182.2246552  28.4647923  56.0408669 183.9521484  27.3268089
  56.1235008 184.6663971  26.5075817  56.1567612 184.4965057  28.2640171
  56.6871681 183.1207733  27.0453625  54.3606720 182.1800690  23.3023567
  54.5233994 180.9804993  23.2924423  53.8574371 182.7939453  22.2629814
  53.4954109 183.7329102  22.3489590  53.4583588 182.1719513  21.0019054
  53.8283195 181.1498260  20.9213505  51.9384346 182.1178589  20.9085732
  51.5823441 183.1280670  21.1104774  51.6177559 181.7318726  19.9409542
  51.2641602 181.1487122  21.8700542  50.8003426 181.6807251  23.0807705
  50.8861198 182.7442322  23.2481575  50.2058067 180.8625488  24.0007458
  49.7986794 181.2136230  24.9374428  49.9406395 179.4931641  23.7462292
  49.3153305 178.7286835  24.6959286  48.7396469 179.1528778  25.3364258
  50.4132843 178.9120026  22.5436935  50.2770004 177.8586884  22.3478184
  51.0331688 179.7716064  21.5577469  51.2465096 179.3818817  20.5733681
  54.0532913 182.9487000  19.7879753  53.9648857 182.5743561  18.6013718
  54.6716957 184.1037903  19.9767513  54.6980667 184.4719849  20.9168797
  55.3009377 184.9547729  18.9549236  54.5499763 185.1733704  18.1957283
  55.5775871 186.2703247  19.6219196  54.6147270 186.7637939  19.7541428
  56.1101227 186.1060181  20.5586758  56.4244499 187.1831055  18.6519871
  56.2698746 187.1358795  17.3904209  57.4454041 187.7305298  19.1550751
  56.5982246 184.3824768  18.3523369  57.5486488 184.1988068  19.1052303
  56.6437950 184.0158844  17.0359535  55.8366699 184.1807098  16.4515915
  57.8195572 183.3414307  16.4220371  57.9795151 182.3757172  16.9015160
  57.5730972 182.9844055  14.9370222  57.6374512 183.8719788  14.3075771
  58.3004417 182.2082062  14.6991367  56.6146660 182.4953156  14.7629738
  59.0879364 184.1527405  16.6011372  60.1605530 183.6029663  16.7382030
  59.0941696 185.5185547  16.6789265  58.1835861 185.9523926  16.7312374
  60.2626419 186.3269501  16.9325428  61.1322784 185.9442291  16.3983555
  59.9388313 187.7797699  16.4809628  59.0838470 188.2001343  17.0104904
  60.7578468 188.4281006  16.7923870  59.7365837 187.9085846  14.9583683
  58.8648453 187.2747192  14.7959614  59.5776215 188.9533539  14.6913729
  60.9044189 187.3514099  14.1443682  62.0841751 187.3643036  14.5130472
  60.6478729 186.8650970  13.0497599  60.7605972 186.2841797  18.3314247
  61.9709816 186.1776428  18.5874577  59.8573227 186.2689514  19.3336449
  58.8970566 186.5504150  19.1966515  60.2707062 186.0711823  20.7219982
  61.1999664 186.6332550  20.8150330  59.0763206 186.3861542  21.6289883
  58.1956444 185.7473145  21.5626793  59.4756126 186.2419128  23.1379471
  60.4270477 186.7705231  23.1965160  58.7429237 186.6141205  23.8539944
  59.5546265 185.1697235  23.3176365  58.5424538 187.6784515  21.4285507
  58.1713905 187.7331543  20.5448551  60.7681465 184.6030884  20.9624119
  61.7304039 184.3683167  21.6196251  60.0595131 183.6701813  20.3537655
  59.2542229 183.8907318  19.7854652  60.4423676 182.2992859  20.4856625
  60.5237350 181.9497375  21.5148811  59.3641434 181.4702301  19.7013111
  59.1863213 181.9324646  18.7303200  59.8299713 180.4994507  19.5319691
  58.0164108 181.2727661  20.4527912  57.6632309 182.2413025  20.8067875
  56.9107399 180.7768860  19.4987698  57.2101250 179.8917999  18.9374371
  56.0698814 180.4889221  20.1297474  56.3855782 181.4132690  18.7865162
  58.2028618 180.2838593  21.6173973  59.0266113 180.6398773  22.2360897
  57.3204422 180.2189941  22.2539711  58.2793465 179.2909546  21.1742058
  61.8145332 181.9492798  19.8376408  62.3595924 181.0173645  20.3361130
  62.2262230 182.6266479  18.7814331  61.6735420 183.4007721  18.4417458
  63.5882607 182.5177917  18.2481861  63.7472267 181.4417267  18.1781178
  63.7514267 183.1594086  16.8381977  63.3245850 184.1621857  16.8193951
  64.8198395 183.2423553  16.6388855  63.1227875 182.3087463  15.7484856
  63.6795387 181.3778839  15.6407061  62.0943184 182.0740814  16.0228577
  63.1136513 183.0374451  14.1059198  64.8810806 183.0881500  13.6606560
  65.2972031 182.0812531  13.6936846  64.9610825 183.4539185  12.6369781
  65.4655304 183.7312927  14.3185959  64.6273270 183.1088257  19.2409821
  65.7205963 182.5524597  19.3743420  64.2844772 184.2724457  19.7725430
  63.4566574 184.7701721  19.4774342  65.2604523 184.8883667  20.6712780
  66.1867294 184.9852295  20.1049519  64.7603455 186.3104706  21.0609932
  64.5483093 186.7944183  20.1076050  63.9256439 186.1184845  21.7351704
  65.8542709 187.1579285  21.8172417  65.4033432 188.1423340  21.9426212
  65.9603653 186.7379456  22.8174706  67.2175446 187.3242950  21.1149006
  67.1976547 187.4072571  19.8709755  68.2385559 187.2670288  21.7910175
  65.5228806 184.1401062  21.9630489  66.6610794 184.0771942  22.3992081
  64.5142059 183.4343872  22.5835323  63.5948181 183.6379395  22.2183075
  64.8153229 182.5660858  23.7804470  65.2516632 183.1152344  24.6148014
  63.4481659 182.0216827  24.3773994  62.9171333 181.5607910  23.5445251
  63.6287422 181.3337555  25.2033863  62.5465126 183.1784668  24.8697109
  63.0629501 183.6162567  25.7239532  62.4617310 183.9965668  24.1544380
  61.1494370 182.7045898  25.3462524  60.4683571 183.5435028  25.4893208
  60.7618179 182.1367340  24.5004406  61.2925377 181.9913788  26.6003494
  62.2173538 181.9526520  27.0044727  60.2745361 181.4159851  27.2835217
  59.0470695 181.2441406  26.8379440  58.8447685 181.7839203  26.0086021
  58.4190254 180.6590881  27.3702793  60.5563126 180.8441467  28.3701439
  61.5227318 180.7371979  28.6434460  59.8080482 180.4700775  28.9360790
  65.8079529 181.4985657  23.3626709  66.6263351 181.1577301  24.2047024
  65.6922302 180.8899994  22.1327248  64.8166809 181.0668488  21.6613045
  66.5940781 179.7862854  21.7748318  66.8652573 179.1677399  22.6303787
  65.9409714 178.8751678  20.6561184  65.5814896 179.5034180  19.8411579
  66.9094772 177.8112640  20.1564674  67.1882324 177.2967529  21.0760784
  66.2471313 177.1564331  19.5902481  67.7870331 178.2355499  19.6686363
  64.5938721 178.2033081  21.1986389  63.9421806 178.8947754  21.7327366
  64.0745163 177.8318634  20.3152447  64.8158646 177.3267822  21.8073368
  68.0236740 180.4010315  21.4074097  69.0204773 179.8203888  21.8634396
  68.0952988 181.5761261  20.7495575  67.2698898 182.1103363  20.5184174
  69.3602829 182.2677460  20.5407639  70.0157623 181.6389160  19.9382515
  69.2564087 183.6106720  19.7868710  68.4998474 184.1616364  20.3455830
  70.1837082 184.1482544  19.9849110  68.9755859 183.5452423  18.2665539
  69.7815170 182.9339447  17.8605022  68.0171814 183.0462189  18.1232948
  68.7873688 184.9666138  17.7254868  67.8230209 185.4085083  17.9761868
  69.5822983 185.6080475  18.1059361  68.8346786 184.8697662  16.2134037
  69.5267334 184.0693054  15.9518280  67.8754730 184.5570984  15.8007793
  69.3457413 186.1532440  15.5914354  70.2637177 186.4123688  15.9235153
  69.4675522 186.0093536  14.5991859  68.7757797 186.9693146  15.7625122
  70.1862640 182.4773865  21.8248463  71.3197784 182.0733185  21.9384842
  69.5941849 183.0717316  22.8380394  68.7262115 183.5634613  22.6802044
  70.1873169 183.2585907  24.1978607  71.1150360 183.8172607  24.0741043
  69.1128159 184.1309204  24.9976234  68.8015518 184.9098969  24.3016319
  68.2350311 183.5372925  25.2529907  69.7320938 184.8178864  26.2830410
  70.1161728 184.0455627  26.9494553  70.5600204 185.4766693  26.0210800
  68.6777878 185.7284088  27.0333939  69.1775360 186.3342590  27.7892418
  68.3731308 186.4866791  26.3120670  67.5830383 184.9409485  27.5754204
  67.7435532 183.9776306  27.8329773  66.3890457 185.3517303  27.8928871
  65.9620209 186.6084442  27.7654285  66.5331726 187.3808136  27.4534187
  65.0495834 186.8969727  28.0883999  65.4823685 184.5045166  28.3205814
  65.8197327 183.6186981  28.6692924  64.5919189 184.8612366  28.6367302
  70.6331558 181.9687042  24.8908081  71.5066757 181.9758453  25.7253952
  70.1464767 180.7885284  24.4833393  69.3193970 180.7450104  23.9052773
  70.7455139 179.5062714  24.8583527  71.2023849 179.6336365  25.8397522
  69.5438080 178.5174408  24.9957886  68.8241882 178.8827972  25.7284260
  69.0213089 178.4348450  24.0427551  69.8446121 177.0831757  25.3711815
  68.9081573 176.5379791  25.2532120  70.5205917 176.6696014  24.6227798
  70.3767242 176.9851379  26.7798023  69.6346741 176.7736969  27.7002068
  71.6660690 176.9876099  26.9093704  72.0394211 176.8579407  27.8388271
  72.2241592 176.7541809  26.1005783  71.8276062 179.0518494  23.8604736
  72.9077759 178.6175995  24.2523193  71.6574478 179.1778870  22.5134926
  70.8509903 179.6280975  22.1048050  72.6344833 178.7808533  21.4942989
  72.8593750 177.7664948  21.8238506  72.0791473 178.7322388  20.0457897
  71.8766785 179.7453308  19.6982899  72.8767242 178.2781525  19.4577599
  70.8397293 177.9098206  19.7144089  69.9709167 178.1777649  20.3156414
  70.5052414 178.0867767  18.2337437  71.4616776 177.9235992  17.7370377
  69.7384262 177.4439087  17.8015270  70.2587204 179.1346893  18.0628033
  71.0830765 176.4076996  19.9877815  71.1421967 176.2940521  21.0702305
  70.2327652 175.7907104  19.6972675  71.9921951 176.0436859  19.5091343
  74.0093918 179.5738983  21.5933418  75.0843582 179.0564575  21.2514515
  73.9374924 180.8149414  22.0401764  73.0208206 181.2367859  22.0834408
  75.1345444 181.6265411  22.3171005  75.8490067 181.5353546  21.4989738
  74.8873367 183.0891571  22.6542511  73.9728394 183.1877594  23.2391281
  75.6829224 183.4112701  23.3261070  74.7708435 184.0058746  21.4169960
  75.8148804 184.8529663  20.9408398  75.2890549 185.4837341  19.8623028
  75.8528671 186.1935577  19.2752132  73.9657288 185.1932220  19.7701988
  73.3173370 185.5810242  19.0998974  73.6310883 184.2650604  20.7534847
  72.6871262 183.7810669  20.9562016  75.9903488 181.0448151  23.5739899
  77.2228165 181.1719360  23.5333843  75.3269730 180.4165955  24.4927273
  74.3207169 180.4944611  24.5313454  75.9918518 179.6747742  25.5199299
  76.7995987 180.3380127  25.8293743  75.0675278 179.3570557  26.7375050
  74.1254883 178.9575653  26.3619099  75.5039825 178.5755463  27.3594780
  74.7281647 180.6704407  27.4745674  75.0115967 181.5824280  26.9491768
  73.6425629 180.6835785  27.5714512  75.3653793 180.5930634  28.8803711
  75.9184036 181.6232300  29.3219948  75.2442551 179.5694122  29.5805016
  76.5742035 178.4312286  24.8796444  77.7689972 178.2205658  25.1846008
  75.9307480 177.6725922  24.0022507  75.0246506 177.9599609  23.6609192
  76.4443359 176.5064697  23.2783298  76.9235077 175.9324341  24.0714130
  75.3625641 175.6781769  22.5607491  74.7918549 176.3201294  21.8897114
  75.9335632 174.9583130  21.9743748  74.4356003 174.9079895  23.4590797
  74.6494141 174.7842102  24.7848854  75.4968948 175.1809998  25.3240871
  73.6136093 174.0963287  25.3616943  73.4784393 174.0180054  26.3595390
  72.7588882 173.6259155  24.3873253  71.5871811 172.8146973  24.3926201
  71.2475739 172.4056854  25.3327065  70.8637695 172.6049652  23.2057056
  69.8788910 172.1617737  23.2040901  71.3541183 173.1447144  21.9750500
  70.8402252 172.9804382  21.0394592  72.5105972 173.9126892  22.0049171
  72.8757324 174.3039246  21.0668278  73.1864166 174.2769470  23.2038059
  77.5645142 176.8954315  22.2997704  78.5096588 176.1165009  22.1351566
  77.6410828 178.0987091  21.7208462  76.8265610 178.6778870  21.8665047
  78.6301498 178.5889130  20.7432976  79.5184937 177.9637451  20.8333473
  78.0777512 178.4648438  19.3280277  77.5181656 177.5301208  19.3636131
  77.3839188 179.2728882  19.0961971  79.1636887 178.4328766  18.2356606
  80.2853241 178.9124603  18.4609566  78.9034271 177.8868256  17.1455326
  79.0838242 179.9692993  21.1239967  78.3948212 180.9134827  20.7753544
  80.2087250 180.0751343  21.8879986  80.7447128 179.2401276  22.0766144
  80.7758636 181.3631439  22.4283657  80.0161057 181.9023438  22.9941845
  81.8822632 181.0850677  23.4663239  82.6999207 180.5597992  22.9727345
  82.1576233 182.0854492  23.8002605  81.4133072 180.2056427  24.6474514
  82.0125809 180.5556488  25.4879704  80.3396072 180.3344421  24.7841244
  81.7555084 178.7261047  24.4224319  81.4099731 178.1595459  23.3549519
  82.1929779 178.0254974  25.3769112  81.2861938 182.3529205  21.3505421
  81.6244431 183.4745331  21.6568775  81.4554901 181.9270325  20.0922794
  81.0919189 181.0159912  19.8515892  82.0236435 182.7023773  19.0099716
  82.3296661 183.6498108  19.4536114  83.3767090 182.0943298  18.4824905
  83.3722305 181.0479279  18.7876892  83.4348755 182.2767181  17.4094334
  84.5930176 182.6881561  19.1961460  85.2068405 182.1054535  20.0987186
  85.0582886 183.8020477  18.6559105  85.8934174 184.1611938  19.0959988
  84.6025009 184.3316956  17.9266453  81.0380783 182.9909363  17.8115292
  81.4317627 183.4719849  16.7458305  79.7799835 182.4416962  17.9276123
  79.5986023 181.9608765  18.7970963  78.7539825 182.4882812  16.8539829
  79.2275009 182.1543274  15.9307537  77.6707611 181.4731293  17.1884842
  78.1779099 180.5227814  17.3550835  77.2603989 181.7680969  18.1542454
  76.5255737 181.3098145  16.1086273  77.0230026 181.5423279  15.1670341
  75.8693085 179.9516144  16.2093792  75.3213806 179.9113617  17.1507893
  75.2715073 179.8551025  15.3030558  76.5808868 179.1259155  16.2117348
  75.3794250 182.3572845  16.3056755  75.6762085 183.4031372  16.2269821
  74.6956711 182.2531128  15.4632177  74.7639694 182.3079681  17.2039433
  78.3000336 183.9134216  16.6074104  77.6424179 184.5351257  17.4216270
  78.5452652 184.4426880  15.4184113  79.2223587 183.9987488  14.8146200
  77.9509506 185.6322632  14.8357897  77.6424255 186.3010254  15.6393318
  79.0865402 186.2351990  13.9726400  79.4020157 185.4917908  13.2405844
  78.6414795 187.0756683  13.4400530  80.2640076 186.6715546  14.8058863
  79.8814087 187.3085480  15.6033630  80.8437576 185.8740997  15.2707100
  81.2784042 187.4494629  13.8586102  82.2754898 187.5326538  14.2910490
  81.4779282 186.7727051  13.0277662  80.8974609 188.8545685  13.3666582
  81.6928101 189.2778931  12.7532129  80.0273438 188.8992767  12.7116861
  80.6379166 189.8201599  14.4672194  81.4526443 190.3586884  14.7247410
  79.8344421 190.4128723  14.3148737  80.3917007 189.2541962  15.2666960
  76.6621323 185.3065796  14.1203337  76.6950455 184.2881470  13.4367676
  75.5899658 186.1216125  14.2445726  75.6587601 186.9401703  14.8322258
  74.2143326 185.7770691  13.8691778  73.9207382 184.9629974  14.5318861
  73.2456284 186.9311218  14.2370234  73.6277008 187.8923645  13.8933306
  72.2962723 186.6465149  13.7833452  72.9981003 187.0777740  15.8122082
  73.9003372 186.7916565  16.6228027  71.8037872 187.3029327  16.1615238
  74.0603867 185.4006653  12.3669796  73.1946869 184.5262299  12.0208426
  74.9028473 185.9117279  11.4563894  75.5467453 186.5976715  11.8237934
  74.8037796 185.8179779   9.9525528  73.9272385 186.3284912   9.5535946
  76.0709686 186.5090790   9.4669104  76.9096527 185.8599701   9.7186651
  75.9951630 186.5169220   8.3795757  76.3802872 187.9601746   9.9929142
  76.8117447 187.9765625  10.9937506  77.1646805 188.2670135   9.3010502
  75.1641464 188.9377136   9.8426552  74.4382401 188.7970276   8.7850056
  74.9406052 189.9198608  10.6155853  74.8254700 184.3401642   9.4387436
  74.2578278 184.0124969   8.3923903  75.4283524 183.3814240  10.2199945
  75.8278351 183.6512756  11.1075153  75.3916779 181.8751221   9.9751081
  75.5524063 181.7129211   8.9092951  76.5303268 181.2647705  10.7249908
  76.6830215 180.2180634  10.4619226  77.4542847 181.8010559  10.5086908
  76.2994766 181.3580475  12.1113710  77.1056442 181.1977997  12.6073675
  74.0179672 181.1606598  10.3019466  73.9037933 179.9103241  10.0873823
  72.9788055 181.8248749  10.8410568  73.0341949 182.8166656  11.0237913
  71.6938782 181.2160034  11.2523899  71.7626114 180.1311035  11.1725063
  71.3987732 181.4709625  12.7836151  71.4984741 182.5540161  12.8554497
  70.4055634 181.1142883  13.0563984  72.4376526 180.8436432  13.7431774
  73.4563293 181.1198883  13.4709959  72.2126083 181.2675476  15.3050575
  71.1532059 181.1031189  15.5018883  72.9038849 180.7722778  15.9869242
  72.3398972 182.3466492  15.3911886  72.3780594 179.2948303  13.6900349
  72.6585693 178.8919830  12.7168264  73.1217804 178.8736420  14.3664808
  71.3725128 178.9266968  13.8936558  70.5222778 181.6843414  10.3212032
  70.5110397 182.8125763   9.8850698  69.4947433 180.8493042  10.1466494
  69.5691528 179.4009552  10.3588600  69.2202835 179.1443024  11.3591213
  70.5799026 179.0402069  10.1682291  68.6825638 178.7815704   9.3457756
  68.2565613 177.8203125   9.6331835  69.2521286 178.7982635   8.4165697
  67.5671463 179.8181763   9.1695061  66.8227081 179.6509247   9.9479256
  67.1025925 179.6379395   8.2000723  68.3302765 181.1528931   9.3037701
  68.7145004 181.4398956   8.3249454  67.4308014 182.2749176   9.8175173
  66.9343414 182.3074493  10.9214087  67.1048126 183.2213745   8.8672247
  67.5615311 183.2277832   7.9664063  66.2464676 184.4097900   9.1709738
  66.4657516 184.8111267  10.1603909  66.5013046 185.5317841   8.1530113
  65.6707840 186.2332764   8.2322035  67.7372894 186.3179321   8.5451145
  68.6115036 185.6669006   8.5463524  67.9118118 187.0773468   7.7829242
  67.6375656 186.7574768   9.5375700  66.7163086 185.0646515   6.7972126
  66.7596817 185.8618774   6.2641425  64.7083893 184.0944061   9.2012367
  63.8651276 184.8282318   9.7188711  64.3284378 182.8266296   8.8407612
  65.1002960 182.2143860   8.6183376  62.9825706 182.2653351   8.7094316
  62.3299866 183.1269836   8.8501282  62.8698196 181.5699921   7.3050652
  63.4650269 182.1356201   6.5881958  63.2995224 180.5708771   7.3773074
  61.4815178 181.5870056   6.7638254  60.8108673 182.5955811   6.7866077
  60.9869499 180.4602356   6.2343254  60.1760292 180.7079315   5.6855502
  61.6061211 179.6955261   6.0064201  62.6857262 181.3449402   9.8656082
  63.4640961 180.4025269  10.0889397  61.6403122 181.5403137  10.7172031
  60.5882759 182.5477142  10.5979977  60.2911034 182.7049255   9.5611401
  60.9786568 183.5154877  10.9127960  59.4405365 182.0297546  11.4970570
  58.8356285 181.2823181  10.9837151  58.8490868 182.8275757  11.9462404
  60.2013588 181.3250275  12.6010094  59.5989113 180.6440887  13.2022457
  60.6019821 182.1280975  13.2196102  61.4233437 180.7057037  11.8920279
  62.2532997 180.8373871  12.5862455  61.1429558 179.2578888  11.5534182
  61.6281471 178.4556427  12.3260479  60.5898590 178.9053192  10.3817434
  60.2785835 179.6389465   9.7612505  60.4329491 177.5162201   9.8829842
  59.8181610 176.9810028  10.6066399  59.6423874 177.5102997   8.5489635
  60.0925064 178.2812653   7.9235716  59.7180672 176.2552643   7.6886191
  59.6460838 175.3405151   8.2769709  58.9840927 176.1232452   6.8936648
  60.7199631 176.3359528   7.2669592  58.1604156 178.0209045   8.7180805
  57.4485893 177.3754883   8.2034559  57.9629974 177.9726105   9.7889652
  58.0759354 179.5093231   8.2252378  57.9403458 179.4837799   7.1440067
  57.1859818 179.9684448   8.6556911  58.9394608 180.1172180   8.4951992
  61.8184166 176.8312988   9.8221712  62.1361389 175.9283600  10.6035480
  62.6770248 177.3254395   8.9195719  62.3106270 178.0831451   8.3612394
  64.0733643 176.9710236   8.8387547  64.1065979 175.9587097   8.4359884
  64.7498245 177.8799133   7.7638316  64.8098755 178.8454590   8.2660580
  65.7882385 177.5899353   7.6034784  64.0412674 178.1182404   6.3762436
  62.7898712 178.2988739   6.3196630  64.8168716 178.1417999   5.3316460
  64.9780579 176.9151154  10.0776882  65.7835464 175.9364319  10.1988039
  64.8133011 177.8513184  11.0086975  64.3031845 178.6635895  10.6923265
  65.5237427 177.9461212  12.2329111  66.5964050 177.7993011  12.1065865
  65.3180923 179.3202820  12.8686733  65.6111069 180.0235291  12.0891418
  64.2421875 179.4094086  13.0189953  65.9589691 179.5987854  14.2664518
  65.2565689 179.1541138  15.4349899  64.3036652 178.6487885  15.3800678
  65.8366852 179.3138123  16.6808624  65.3918381 178.9635773  17.6005592
  67.0786057 179.9278107  16.7828388  67.6177673 180.0113525  17.7148914
  67.7856293 180.3383331  15.6001730  68.7923813 180.7009583  15.7463045
  67.2595215 180.0827789  14.3607225  67.8920593 180.0959778  13.4854403
  65.1608963 176.8135376  13.1765442  65.9690399 176.0299835  13.6848536
  63.8208580 176.7394104  13.4065399  63.1525764 177.4339600  13.1046867
  63.2898445 175.7086334  14.3547325  63.8104134 175.7518005  15.3114185
  61.8092804 175.8780365  14.6951132  61.5349159 175.2236786  15.5225487
  61.4998169 176.9086609  14.8687735  61.1637115 175.5236664  13.4549160
  61.2904625 176.1709442  12.7573729  63.6078606 174.3179474  13.8867569
  63.9512253 173.4955902  14.7176666  63.5786247 174.0747986  12.5406179
  63.1415367 174.7233124  11.9014940  64.0633698 172.8078461  11.9403362
  63.4623642 172.0245667  12.4022608  63.7167969 172.6928558  10.4554338
  64.0494385 173.6260681  10.0009289  64.4256439 171.9813843  10.0318270
  62.3452644 172.2977142  10.0075283  61.7026253 171.1651917  10.5568857
  62.2559509 170.5632019  11.2624645  60.4911079 170.6871338   9.9695530
  59.9625893 169.8096619  10.3117552  59.9881325 171.3614044   8.8844929
  58.8597298 170.9302368   8.2602739  58.7850533 171.2195282   7.3479500
  60.5814590 172.5310364   8.4016714  60.1349030 173.0150299   7.5456686
  61.7245255 173.0309601   8.9774666  62.2726364 173.8661499   8.5670853
  65.5072021 172.5049286  12.2922544  65.7803421 171.3501434  12.6580410
  66.4863815 173.4300385  12.1778603  66.2018967 174.3116455  11.7754469
  67.9069061 173.2592621  12.5574932  68.3000641 172.3906555  12.0292397
  68.7274017 174.5412292  12.2420673  68.4326172 174.9350586  11.2693958
  68.4986496 175.2550659  13.0333958  70.2389374 174.2448578  12.3572083
  70.8007355 175.1757202  12.4345570  70.5182877 173.6658630  13.2374506
  70.8185654 173.7208252  10.9829702  71.9029236 173.6382294  11.0567579
  70.3879318 172.7286835  10.8476448  70.4486008 174.6019745   9.8648109
  69.6310577 174.3020935   9.3531475  71.1989441 175.5153351   9.2902861
  72.3266525 176.0408783   9.8260689  72.5816803 175.7249908  10.7508802
  72.8148956 176.7788849   9.3391743  70.8958588 176.0103760   8.1197023
  70.0750809 175.6700439   7.6394930  71.5138245 176.7087555   7.7317748
  67.9701538 172.7985840  14.0773897  68.6445923 171.8148956  14.3519249
  67.1909561 173.4409790  14.8824062  66.5463867 174.0920563  14.4573011
  67.1875534 173.1574402  16.3428001  68.2248306 173.1181488  16.6753826
  66.5051956 174.2295990  17.1638756  65.5440369 174.3862610  16.6742554
  66.4375687 173.9042053  18.6908512  67.3677902 173.9940796  19.2518406
  65.7987137 174.7003632  19.0730648  66.0557404 172.9221039  18.9697723
  67.2307816 175.5731049  17.0097313  67.3259201 175.8081360  15.9496288
  66.7437668 176.3785095  17.5594902  68.2733078 175.5635986  17.3277683
  66.5656128 171.7883911  16.6151276  67.1313400 170.9416962  17.3491707
  65.3811951 171.3789062  15.9858923  64.8746185 172.0840454  15.4698801
  64.8338699 170.0438538  16.2020111  64.6218948 169.7834015  17.2389946
  63.5317383 170.0850830  15.4428844  63.7858505 170.2984924  14.4046202
  63.0448875 169.1109314  15.4887829  62.9201279 170.9100189  15.8082819
  65.7527466 168.8951111  15.7140646  65.8745422 167.8911743  16.4280205
  66.5469894 169.0989532  14.6520481  66.4113312 169.9483185  14.1226454
  67.6403046 168.2472382  14.2163134  67.1377792 167.3042297  14.0011463
  68.1293182 168.8210907  12.8986540  68.6577988 169.7644958  13.0357723
  68.8606720 168.0760956  12.5852757  67.3750229 168.9084167  12.1166611
  68.7558975 168.1470032  15.2670965  69.1343079 166.9833832  15.5581684
  69.3000641 169.2403107  15.8455200  68.8984604 170.1483154  15.6601992
  70.5208282 169.2260590  16.6443386  71.1639252 168.4137573  16.3056927
  71.3543472 170.4723969  16.4568214  72.3447418 170.3904572  16.9046001
  71.4371262 170.7141113  15.3971863  70.5057220 171.8621216  17.1699791
  69.6966324 172.0247345  16.1193447  70.3153992 168.9542236  18.1572189
  71.2927628 169.0537872  18.9318333  69.0283356 168.7335663  18.5768490
  68.2896576 168.8612976  17.8999863  68.6306152 168.6120300  19.9159222
  69.2519379 169.3262634  20.4562263  67.1800079 168.9755096  20.1156921
  66.6682053 168.8662720  19.1595345  66.7283478 168.2679596  20.8110218
  66.9606018 170.4050903  20.6177959  67.4425201 171.1921387  20.0377712
  65.4342804 170.6074524  20.7259083  65.0709991 169.9762421  21.5368843
  65.3132401 171.6400757  21.0532475  64.9457016 170.3908539  19.7759209
  67.5537872 170.5510254  22.0164719  68.6013107 170.8203888  21.8814182
  67.0865250 171.3981781  22.5185642  67.4663010 169.6865234  22.6745720
  68.8363647 167.1169281  20.4602413  68.3391724 166.2409668  19.7841492
  69.5196762 166.8925171  21.5879383  70.4028778 167.8637695  22.2113686
  69.8460617 168.7574615  22.4930801  71.1691437 168.1238708  21.4811020
  70.9465714 167.1642609  23.4022732  70.2720718 167.3519745  24.2376823
  71.8969498 167.6314545  23.6603661  71.0298996 165.6759644  23.0508709
  70.9813919 165.0926208  23.9703560  71.9633102 165.4578094  22.5319843
  69.7723999 165.5349426  22.1478634  70.0988312 164.8568420  21.3593636
  68.5479202 164.9866638  22.8496265  68.1766663 165.5249939  23.9050751
  67.9113617 163.9463348  22.3472309  68.2236404 163.5230255  21.4850197
  66.6893387 163.3504181  22.9417267  66.8727875 163.3386536  24.0161133
  65.3541183 164.1919250  22.7084446  64.7586517 163.5753174  22.0351620
  64.5387115 164.2392273  24.0325603  65.1447906 164.3679657  24.9293289
  63.7129326 164.9380035  23.8987103  64.0670776 163.2746277  24.2202415
  65.5339127 165.6351776  22.1003399  65.9800415 166.2972260  22.8424778
  66.1824875 165.4654236  21.2408962  64.2265167 166.3034210  21.6308022
  63.7865906 166.7124634  22.5403404  64.4268265 167.0833893  20.8962040
  63.5823441 165.5550690  21.1691628  66.4402390 161.9841156  22.5086460
  66.9947968 161.5523682  21.4834270  65.6061020 161.1924744  23.2283840
  65.1573029 161.4928894  24.0818672  65.1628189 159.8561249  22.7519321
  65.9953003 159.2765198  22.3530159  64.5808029 159.1089172  24.0015030
  64.3627319 158.0673370  23.7656040  65.2893219 159.0288391  24.8259373
  63.2601929 159.7722473  24.4971390  63.4111328 160.7447205  25.2643108
  62.2083244 159.2313690  24.0544395  64.0727768 159.9214630  21.6626568
  63.3694916 160.9274597  21.4701881  63.9651566 158.8323975  20.9277496
  64.4832535 158.0361481  21.2707615  63.3655281 158.7180176  19.6049366
  63.8002663 159.4965057  18.9779968  63.4202881 157.3777924  18.8423901
  63.0765190 156.6077271  19.5329857  62.7622604 157.4145508  17.9742050
  64.8107605 156.9500427  18.4087658  65.7822418 157.7496033  18.4537182
  64.9978790 155.7400208  18.0312061  61.8620605 159.0573120  19.7363071
  61.3847008 159.7677612  18.8890057  61.2001228 158.6844330  20.8194866
  61.7062874 158.3520355  21.6278248  59.7273674 158.8630676  20.9717598
  59.3170967 158.3978882  20.0754433  59.2107658 157.9743500  22.1761150
  59.6116524 158.2160187  23.1604881  58.1520920 158.1937103  22.3146458
  59.2780533 156.9143372  21.9312439  59.3586960 160.3510284  21.0123882
  58.3910027 160.8193970  20.3704205  60.1332207 161.1750488  21.6799011
  60.8741379 160.7857666  22.2452278  60.0468216 162.6297302  21.7963409
  59.0216637 162.9152069  22.0322533  60.8426285 162.9964600  23.0666809
  60.4579506 162.2969666  23.8088665  61.8847313 162.7243347  22.8991108
  60.7341881 164.4816132  23.5418034  61.5253105 164.9824982  22.9838295
  59.4104729 165.1952209  23.3465118  58.6493149 164.6873474  23.9387875
  59.4038124 166.2455292  23.6379223  59.1769676 165.1241608  22.2841911
  61.0451584 164.5938263  25.0374737  62.0328674 164.1882172  25.2565937
  61.0531731 165.6543274  25.2892170  60.2947655 164.0365906  25.5982761
  60.4464264 163.2756195  20.4999676  59.7809410 164.2770691  20.1367950
  61.5110130 162.7859650  19.8220367  61.8375282 161.8854523  20.1423073
  61.8983154 163.2607269  18.4463310  61.9818459 164.3462219  18.3932304
  63.2949219 162.6766510  18.0560360  63.2521591 161.6621857  18.4524212
  63.4856262 162.6008759  16.9855251  64.3708267 163.5471954  18.6962738
  64.2905121 164.5710144  18.3309822  64.0839462 163.5785370  19.7473774
  65.8010178 163.0037994  18.6721821  66.5449600 163.6418762  19.1491470
  65.8633041 162.1658783  19.3665218  66.4453430 162.7438049  17.3365078
  66.1431961 161.9081116  16.8564663  67.2788696 163.5551453  16.6062012
  67.6321182 164.7176361  17.0418282  67.2438278 165.0504913  17.9127712
  68.1575775 165.3469086  16.4519024  67.7994995 163.2423859  15.4529762
  67.6947632 162.2964172  15.1149292  68.6217880 163.7321625  15.1303988
  60.7734184 162.8433533  17.4121742  60.6601448 163.6466217  16.5106831
  59.8555183 161.8521118  17.6039181  60.1148453 161.1315002  18.2623730
  58.5935631 161.7396088  16.8332977  58.7902870 161.8413696  15.7660398
  58.1023483 160.2944183  17.0550117  57.9121094 160.2091980  18.1248951
  56.7758446 160.1800537  16.2905960  56.8383980 160.4615479  15.2394304
  56.4025078 159.1561890  16.2702389  55.9604111 160.7239685  16.7673817
  59.0296822 159.2275238  16.4482632  58.8929291 159.2108917  15.3670053
  60.0860367 159.3442993  16.6902962  58.5974655 157.8312378  16.9982128
  57.7208366 157.3995972  16.5151978  59.3030853 157.1352844  16.5445061
  58.6309700 157.7532043  18.0848999  57.6510010 162.8577881  17.2592735
  57.0836906 163.5796509  16.3879509  57.4672165 163.0922852  18.5724888
  57.9767952 162.5225220  19.2326355  56.5299835 164.0668335  19.0932579
  55.5697784 163.7328491  18.7001171  56.4129410 164.0418854  20.6546249
  57.3394203 164.3985138  21.1046867  55.6679649 164.8073120  20.8719444
  55.9783554 162.7569122  21.3693295  56.8058357 162.0477905  21.3462620
  55.9280434 162.9181519  22.4461670  54.7164040 161.9440308  20.9194183
  53.7797775 162.3981171  20.2333794  54.5604172 160.7182312  21.3721428
  53.7775230 160.1908264  21.0129414  55.2065659 160.3443451  22.0524387
  56.8894234 165.5591125  18.6589222  56.0667801 166.4151764  18.3429203
  58.2233391 165.7359619  18.4483223  58.8952599 165.2053833  18.9841537
  58.7724838 166.9045258  17.7551212  58.3139191 167.7469635  18.2729340
  60.2220154 167.0492554  18.0482349  60.3771095 166.8125305  19.1008568
  60.8495216 166.4360504  17.4014587  60.8272133 168.5155640  17.8596783
  60.7027016 168.7608032  16.8049469  60.0558968 169.4757538  18.7231026
  60.2443848 169.2628174  19.7753525  60.4732742 170.4701843  18.5649357
  59.0162659 169.6202393  18.4291801  62.2929001 168.5922546  18.2062588
  62.9374657 167.9082794  17.6541500  62.6197548 169.6182251  18.0370045
  62.3906898 168.4590759  19.2836628  58.4394493 166.8790436  16.2446995
  57.9304581 167.8048706  15.7316370  58.7993622 165.8173370  15.5180140
  59.2583160 165.0971832  16.0572968  58.6894989 165.7176971  14.0595846
  59.2802124 166.5101166  13.6000090  59.2243652 164.3265076  13.5803213
  60.2183647 164.0328674  13.9177332  58.6903076 163.6115570  14.2062092
  58.9483757 163.8341370  12.1262102  57.8950729 163.9540710  11.8726921
  59.7987137 164.7031097  11.2060652  60.8288155 164.3630066  11.0997066
  59.5005417 164.4826965  10.1810703  59.7145844 165.7682495  11.4216976
  59.1669655 162.3845520  11.8503551  58.5840073 161.7746887  12.5405273
  58.8404503 162.2801514  10.8156633  60.2032394 162.0627747  11.9538250
  57.1994209 165.8586884  13.6370678  56.9204025 166.2702637  12.5164728
  56.3020248 165.4401398  14.5067272  56.5899696 165.0769806  15.4041147
  54.8147125 165.5145111  14.3490782  54.5495148 165.1286469  13.3647594
  54.1441345 164.6919861  15.4869413  54.8402290 164.2275238  16.1853828
  53.5729179 165.3482971  16.1435165  53.1936035 163.5923615  14.9736719
  52.2954445 164.0269012  14.5348263  53.6134453 162.9124146  14.2323809
  52.7352867 162.7880096  16.2291298  53.5956573 162.2763214  16.6604424
  52.4116898 163.4732056  17.0126514  51.6304512 161.8721466  15.7159166
  50.8679771 162.4575043  15.2020140  52.1178665 161.1586914  15.0514660
  50.9842644 161.2402496  16.8687153  50.7795372 161.9635315  17.5432892
  50.1457291 160.7840271  16.5388203  51.5855484 160.6335602  17.4076767
  54.1869087 166.9371185  14.3341541  53.0462837 167.0448151  13.8406124
  54.8788986 167.9024506  14.9368296  55.7663193 167.7064209  15.3774652
  54.4267235 169.2665405  15.0584879  53.7002335 169.3171234  15.8695087
  55.6306267 170.1494751  15.5661850  56.4647865 169.9569550  14.8914900
  55.3189583 171.6657104  15.4151011  54.2970543 171.9586029  15.6560049
  55.9561310 172.1495056  16.1554089  55.6963730 172.0635071  14.4730730
  56.0763245 169.7923584  17.0272522  56.3268929 168.7325287  17.0727406
  56.9961357 170.3387604  17.2357922  55.0085106 170.1352386  18.0594254
  54.2269211 169.3755188  18.0656681  55.5339394 170.1297760  19.0144081
  54.6240273 171.1346130  17.8556156  53.8307190 169.8197937  13.7289543
  54.3327751 169.6149750  12.6494751  52.7809677 170.6701202  13.8248854
  52.4008102 170.8372955  14.7455549  52.1960258 171.3476105  12.7371750
  52.1946602 170.6622314  11.8896198  51.1493530 171.5587006  12.9563255
  52.9526253 172.5893555  12.4465914  53.3299561 172.7433472  11.2914209
  53.2257156 173.4926147  13.4022055  52.9044952 173.2549591  14.3298035
  53.8535881 174.7969208  13.0508976  54.0816727 174.7925262  11.9850368
  52.8331184 175.8849335  13.4998598  51.8851280 175.7725220  12.9737577
  52.6377144 175.7118835  14.5581484  53.3984528 177.2064056  13.3210659
  53.2890434 177.4157104  12.3905716  55.1912270 175.0775299  13.7546978
  55.3139496 174.6123810  14.8870182  56.0527725 176.0261078  13.2142534
  55.9456291 176.2552185  12.2364388  57.3265152 176.3723602  13.8676205
  57.9258232 175.4748993  14.0208521  58.1032181 177.2837830  12.9427319
  57.4189339 178.1018677  12.7177696  58.9297409 177.7876587  13.4438114
  58.3307304 176.7378082  12.0271721  57.0980148 177.0443268  15.2464437
  57.8638496 176.8216858  16.1611099  56.0760384 177.8168640  15.3536320
  55.4584198 177.8877106  14.5576229  55.5809021 178.3825684  16.6281185
  56.2535324 179.1468811  17.0173492  54.2050095 179.1173706  16.3950901
  53.5928726 178.4183807  15.8251801  53.5652771 179.3937531  17.8297634
  54.1728096 179.9916840  18.5090923  52.6035271 179.9001465  17.7479153
  53.4139442 178.4598236  18.3710327  54.5011559 180.4583282  15.7475586
  55.0136147 181.1138611  16.4516582  55.1533241 180.2452850  14.9005709
  53.2307587 181.1466827  15.2226057  52.6083488 181.4939423  16.0473042
  53.4933243 182.0590057  14.6870365  52.7109261 180.4648132  14.5496101
  55.5237808 177.3280182  17.7137413  56.2537003 177.4020233  18.6992626
  54.7255859 176.2584839  17.4887848  54.2311096 176.1528778  16.6144619
  54.7509079 175.1092987  18.3963108  54.6189728 175.3986053  19.4389000
  53.7384453 174.0994110  17.9762802  54.0576782 173.6250458  17.0482903
  53.8469124 173.2906647  18.6989536  52.2605362 174.4577942  17.9031277
  51.8944778 174.3555603  18.9247208  52.1828117 175.5286713  17.7153301
  51.5035019 173.7734985  16.7867088  51.8802872 172.8411865  16.0915833
  50.1923981 174.0991211  16.7166023  49.6889420 173.5869446  16.0064602
  49.8376846 174.9520111  17.1251049  56.0826302 174.4019623  18.4321365
  56.4871101 173.9632874  19.5069599  56.8411217 174.3072510  17.3269081
  56.3739738 174.5658264  16.4695816  58.0857010 173.5069275  17.4281254
  57.9367638 172.5294800  17.8869629  58.6781616 173.2339783  16.0315685
  57.8189850 172.8759613  15.4643526  59.0641708 174.1615448  15.6088018
  59.7341805 172.0904083  16.0496407  60.6618614 172.5502930  16.3902473
  59.4174652 171.3262177  16.7594414  60.0325928 171.4423523  14.7231398
  60.9858170 170.9250641  14.8321743  59.3074455 170.7101135  14.3680315
  60.2788887 172.4668274  13.6422100  61.1001053 173.0545959  13.6573477
  59.4430733 172.7642670  12.6686935  58.3446808 172.0418243  12.3617010
  58.1534462 171.1226959  12.7341805  57.8117180 172.4332886  11.5982857
  59.6387939 173.7768860  11.8682461  60.4728851 174.3409119  11.9474688
  58.9852371 174.0342407  11.1424799  59.0367889 174.1396942  18.3746681
  59.6240616 173.4806061  19.2860489  59.1223831 175.4653778  18.3397675
  58.5484047 175.9779053  17.6855755  59.8916855 176.3043213  19.2277412
  60.8720856 175.8554535  19.3872261  59.8866348 177.7190094  18.7055531
  58.8814430 177.8340759  18.3000317  60.0004616 178.4811401  19.4764538
  60.9410706 177.8374939  17.5692101  61.0897484 176.9233398  16.9944763
  60.4482727 178.9752045  16.5817795  60.1623650 179.8603821  17.1499710
  61.2897720 179.2377319  15.9406414  59.5846367 178.7338562  15.9621143
  62.2583771 178.3325348  18.1714058  62.5277519 177.5655823  18.8975773
  62.9884033 178.3896942  17.3640060  62.1324425 179.3435669  18.5587807
  59.4133072 176.2855835  20.6527824  60.2456169 176.2102051  21.5431232
  58.0929070 176.2906799  20.9131126  57.5123940 176.2837982  20.0866394
  57.6084824 176.0336609  22.2973824  58.0056305 176.7887726  22.9757557
  56.0575600 176.1715088  22.2232037  55.6106491 175.5413055  21.4543037
  55.7100296 175.8542938  23.2064114  55.6734200 177.6786194  22.1113605
  55.9718437 178.1699371  23.0374527  56.2277756 178.2178650  21.3432407
  54.1342964 177.9278412  21.9138966  53.9277611 178.9975891  21.8811512
  53.8427505 177.5799561  20.9228935  53.3771210 177.1971283  23.0434093
  52.9749260 176.3217621  22.7399750  53.2138748 177.5133209  24.2941971
  53.5324249 178.6760559  24.7523441  53.9141273 179.3559418  24.1103497
  53.1946411 178.9440765  25.6656723  52.7027550 176.6244965  25.0950069
  52.6200752 175.6867065  24.7291832  52.5203896 176.8364410  26.0655346
  58.0925713 174.7089081  22.8372250  58.6382332 174.6313324  23.9167328
  57.9476662 173.6539612  22.0714378  57.3954468 173.7271881  21.2289467
  58.2769241 172.3442688  22.5603981  57.7778053 172.1550446  23.5107555
  57.8453865 171.2729950  21.4979515  56.8136787 171.4123383  21.1750660
  58.5166817 171.4428711  20.6561661  58.1954880 169.6345215  22.1224785
  57.5019379 168.8964081  21.2512302  59.7796860 172.1845551  22.8439312
  60.2002525 171.5549927  23.8529072  60.5439987 172.7451782  21.9162292
  60.1258163 173.2164154  21.1268234  61.9689522 172.8794403  22.1237869
  62.4065208 171.8815918  22.0928364  62.6141624 173.6774597  21.0213432
  62.1010399 174.6300812  20.8897572  63.6269112 173.9450531  21.3227291
  62.6416588 172.9802856  19.6408825  63.3706360 172.1735992  19.7181149
  61.7197075 172.4228210  19.4755116  62.8599625 173.9635925  18.4521275
  63.3002625 175.1103058  18.6249161  62.4634247 173.5079041  17.3164482
  62.3301811 173.4963074  23.4681282  63.2691002 173.0248566  24.1249275
  61.6374626 174.6103973  23.8594360  60.8832359 174.9529266  23.2815838
  61.8892479 175.2684021  25.1446743  62.9637184 175.4390717  25.2117081
  61.2618484 176.6624298  25.1509056  60.2033348 176.6186066  24.8945389
  61.2378578 177.1304169  26.1350384  61.8737106 177.6637726  24.1306515
  62.0659294 177.1960754  23.1650333  60.9421310 178.8252563  23.8824215
  60.7318382 179.3625183  24.8072090  61.4803505 179.4772644  23.1944561
  60.0097122 178.5889740  23.3697109  63.2382851 178.1637421  24.5162773
  63.9311180 177.3423309  24.6989861  63.7647667 178.8661652  23.8701210
  63.0303535 178.7857513  25.3868885  61.4681625 174.5339813  26.3849678
  62.1312027 174.5929718  27.4161415  60.3938408 173.7312164  26.2546158
  59.9883804 173.6840668  25.3307781  59.8895226 172.7262573  27.1840153
  59.7547951 173.2459717  28.1326237  58.5107841 172.2147675  26.6178703
  57.8680649 173.0715179  26.4153595  58.5557289 171.6641541  25.6782398
  57.6750221 171.3851776  27.5911007  58.1679077 171.0864563  28.6865063
  56.4621773 171.1670074  27.3061142  60.9377823 171.6168671  27.5012417
  61.1613083 171.3825073  28.6750298  61.6381950 171.1361694  26.4544735
  61.2445145 171.4369202  25.5743217  62.7967644 170.2471008  26.4786797
  62.4642677 169.4816437  27.1798420  63.0991554 169.5665588  25.0848866
  63.3206367 170.3454132  24.3552055  64.3484726 168.7020416  25.2387447
  64.1675873 167.9352875  25.9920502  64.4109573 168.0976257  24.3338337
  65.2554321 169.2868042  25.3923321  62.0051193 168.5531006  24.5534115
  62.2740021 167.5095215  24.7169800  61.0004272 168.7086029  24.9464836
  61.9267654 168.7576141  23.0002575  62.8769150 168.8263702  22.4705620
  61.3684196 167.9729462  22.4897137  61.3675232 169.6581573  22.7465801
  63.9366951 171.0347748  27.1205139  64.4874573 170.6125641  28.1383152
  64.3826599 172.1743622  26.5699272  63.8916321 172.4490356  25.7311516
  65.5813675 172.9261780  27.0163784  66.4589767 172.2830658  26.9507694
  65.8317337 174.1439056  26.0645561  65.0050812 174.8455658  25.9530907
  66.6840515 174.7375946  26.3949757  66.3172073 173.6551666  24.7052002
  67.1786499 173.0106812  24.8802509  65.5236130 172.9814301  24.3821068
  66.4833450 175.0272675  23.5064659  67.3024902 174.3038025  22.1507835
  66.7075958 173.4416656  21.8492393  67.6281357 175.0574341  21.4337711
  68.2162018 173.8509369  22.5356750  65.4176788 173.3429260  28.4472256
  66.4625092 173.3909760  29.0453396  64.2517548 173.6238098  28.9664936
  63.4115601 173.7730560  28.4262218  64.1561508 174.0125122  30.3939419
  64.8527298 174.8249207  30.6009560  62.7269211 174.5916138  30.6374416
  61.9950104 173.8815918  30.2523499  62.6353035 174.7407837  31.7132912
  62.4892006 176.0002289  30.0045471  63.3983765 176.6659698  29.4989967
  61.2387085 176.4813995  30.0642700  61.0411148 177.4243469  29.7611084
  60.5674629 175.8928375  30.5366230  64.4459915 172.8496857  31.3666039
  65.0339432 172.9421387  32.4644356  63.9385490 171.6646881  30.9624748
  63.4933472 171.6765594  30.0559692  63.8360405 170.4277954  31.7741089
  63.8980255 170.6660156  32.8359489  62.4597397 169.8142548  31.4999828
  62.4043770 169.8128357  30.4113903  62.4276237 168.7796326  31.8414707
  61.3211021 170.6755371  32.1648865  61.4100685 170.4748688  33.2325554
  61.4458580 171.7518768  32.0463791  59.9328384 170.2555389  31.6759300
  59.9611206 169.9221191  30.6385612  59.6543732 169.4054565  32.2987480
  58.8538246 171.3706818  31.8438225  58.8038940 171.6676941  32.8913879
  59.1359291 172.2475128  31.2609882  57.5021477 170.8892975  31.4214401
  57.1594772 170.0727692  31.9071980  56.8314857 171.5982208  31.6817017
  57.5018501 170.8384094  30.4127216  64.9658737 169.4222565  31.5066395
  65.0684280 168.3858185  32.2487297  65.7733688 169.6203156  30.4580536
  65.6111984 170.3821411  29.8150711  66.9609451 168.9431000  30.1601658
  66.8673782 167.8615723  30.2583790  67.4078064 169.4640961  28.7822132
  66.5676346 169.4732971  28.0878506  67.7081985 170.5041809  28.9090137
  68.7911301 168.6222534  28.0321465  68.3954926 167.3482819  27.9587917
  68.0664520 169.2373199  31.2801952  68.3911057 170.3921814  31.5685596
  68.7126083 168.1875153  31.7856503  68.5774612 167.2636719  31.4004650
  69.7310104 168.3789368  32.8616066  70.2070923 169.3400574  32.6674500
  69.1410065 168.4394531  34.3015022  69.9980011 168.6121216  34.9525414
  68.1854324 169.6328125  34.6268616  67.2154999 169.3078918  34.2503357
  68.2254791 169.7809906  35.7060013  68.5810242 170.5357666  34.1618042
  68.4708633 167.2573242  34.5901756  67.8874207 167.0500793  33.8565254
  70.9197617 167.4215240  32.7429352  71.7889709 167.5677338  31.9078350
  70.9085541 166.3174286  33.5187836  70.1869278 166.2484131  34.2220573
  71.6793060 165.1199188  33.3528671  72.7287903 165.3789978  33.4927864
  71.4041443 164.1398773  34.4809303  71.6504135 164.6171265  35.4294472
  70.3517990 163.8655701  34.4073219  72.2667236 162.9813538  34.4831505
  71.9286270 162.4470062  35.2054825  71.4387131 164.4199829  31.9483662
  70.2792664 164.2204895  31.4826660  72.4693222 163.8538971  31.3650475
  73.3935089 163.9716187  31.7550697  72.3342514 162.7999420  30.2935696
  71.2613144 162.6142273  30.2442970  72.6782608 163.3865051  28.8791656
  73.7668610 163.4271240  28.9164448  72.5504456 162.6458588  28.0897312
  72.0301971 164.7381744  28.3721542  71.9848175 165.4795685  29.1698799
  72.6925201 165.4366760  27.1991596  72.9539108 164.7569122  26.3881836
  72.1349869 166.2693634  26.7703266  73.6636658 165.7254181  27.6011829
  70.6182327 164.3764648  27.9239597  70.0787201 163.7955627  28.6720123
  70.0156937 165.2217407  27.5914555  70.7629852 163.6788635  27.0990391
  73.1213379 161.4904022  30.6374149  74.3490753 161.3692627  30.9109879
  72.4012222 160.3434296  30.5786037  71.4311523 160.4577484  30.3216953
  72.8646317 159.0437927  31.1515560  73.8624496 159.0684509  31.5895653
  71.8596268 158.6264038  32.2073479  70.9483566 158.3955688  31.6556187
  72.0798950 157.6343384  32.6015244  71.6968842 159.8364563  33.5456161
  70.8371735 159.2341003  34.3720360  72.9352264 157.9231262  30.0232124
  72.4192581 158.0520477  28.9227753  73.6543121 156.8266754  30.3440762
  74.1132050 156.7535553  31.2408314  73.6186142 155.6170502  29.5041389
  73.8001175 155.9048767  28.4686146  74.7885056 154.6922607  29.8569107
  75.6690445 155.1961823  29.4583817  74.7998657 154.5549469  30.9381676
  74.7271194 152.9979858  29.0800152  73.7271500 152.4951172  29.8094501
  72.2356186 155.0179901  29.6159477  71.8125916 154.7515564  30.7473888
  71.6434708 154.6222229  28.4814281  72.1599731 154.8389587  27.6409836
  70.2075424 154.1604462  28.4297657  69.5329666 154.8459473  28.9427223
  69.7437820 154.0421906  26.9709778  70.0068436 154.9288483  26.3941498
  70.2686005 153.2264709  26.4737110  68.2344284 153.8073120  26.8067856
  68.1046371 152.8016815  27.2067471  67.7265625 154.5015106  27.4763050
  67.8143692 153.8325958  25.3652153  68.5513840 153.2317352  24.8324223
  66.8189545 153.3947601  25.2906570  67.9579010 155.2670746  24.8589382
  67.3181534 155.8479614  25.5233116  68.9932556 155.6063538  24.8911877
  67.3753891 155.4347687  23.4403706  66.4319077 155.0925598  23.3270626
  67.3451233 156.3850708  23.0996189  67.9310913 154.9975739  22.7191486
  70.0951462 152.7929382  29.1443863  69.1176987 152.5829163  29.9165688
  71.0148773 151.8420563  28.9112415  71.8301849 152.1209869  28.3843861
  70.8833542 150.5180511  29.5416737  69.9479370 150.0795135  29.1941490
  72.0056076 149.6395721  28.9104118  71.9025803 149.7306366  27.8291206
  72.9698868 150.0208893  29.2463627  72.0049820 148.1246033  29.2515068
  72.3779449 148.0784760  30.2746735  71.0184479 147.6611176  29.2580910
  72.7848587 147.2690582  28.2579460  73.4279938 147.7820587  27.2697182
  72.8856735 145.9847412  28.4102383  73.3471222 145.5102692  27.6473255
  72.5729980 145.4533997  29.2102413  70.8305359 150.5381012  31.1001072
  70.2322311 149.6566772  31.6978378  71.5279617 151.4792633  31.8007259
  72.2102127 151.9991150  31.2674351  71.4345627 151.7789001  33.2358170
  71.2866745 150.8889160  33.8474960  72.7440186 152.4394531  33.6352921
  72.7738419 153.4693451  33.2795677  72.8029633 152.4510803  34.7236328
  74.2272186 151.4760132  33.2085457  75.0474396 152.1140289  34.0482254
  70.2079163 152.6704254  33.5835915  69.6753540 152.6385956  34.6995926
  69.7747192 153.4500580  32.5804520  70.2079697 153.2249146  31.6963100
  69.0062485 154.7465363  32.7531052  68.9217453 155.1750488  31.7544365
  67.5400620 154.3462982  33.1118851  67.6352539 153.7908020  34.0448761
  66.9288330 155.2337952  33.2756844  66.8729095 153.3702545  32.0967216
  67.0936584 153.6246338  31.0600586  67.2401886 152.4026489  32.4386902
  65.3707962 153.3359375  32.2527962  64.7234116 154.2895966  32.7234077
  64.7069016 152.3600769  31.7590504  63.7092514 152.5122223  31.7997475
  65.1262054 151.5091553  31.4123268  69.5582809 155.7694244  33.7579308
  69.2736816 156.9527588  33.5205193  70.2834702 155.3919830  34.7786942
  70.2434692 154.4114685  35.0175896  70.6324463 156.2591400  35.9094048
  69.9395828 157.1005554  35.9170532  70.2690582 155.5227966  37.2358284
  70.4240799 156.2245026  38.0553932  69.2161560 155.2430115  37.2707024
  71.1880341 154.3492737  37.6707535  72.1049118 153.9905090  36.9227104
  70.9047012 153.6798553  38.6822624  72.0930939 156.7491913  36.0393867
  72.3832169 157.6836395  36.7580376  73.0517044 156.1533051  35.3204269
  72.7582016 155.4290009  34.6806259  74.4641724 156.5162811  35.3682098
  74.7015152 156.7770538  36.3996010  75.3757858 155.3834686  34.9421158
  75.1381760 155.2425385  33.8877068  76.8393784 155.6260376  35.2267036
  77.1034546 155.7369537  36.2784004  77.2407150 154.7085571  34.7962646
  77.2583008 156.4719391  34.6816826  75.1545944 154.1593781  35.6044388
  74.8720169 154.4061737  36.4880905  74.7254257 157.7207031  34.3914490
  74.8917084 157.5603943  33.1982498  74.8829575 158.9335938  34.9618225
  74.5341797 158.9771729  35.9086914  75.2910843 160.1464691  34.2902451
  74.5431137 160.3864899  33.5345802  75.5098953 161.2029572  35.3786659
  74.5924606 161.4222565  35.9248466  76.3160706 160.8610535  36.0277328
  75.9689026 162.6351318  34.8700600  76.8831329 162.6059875  34.2772446
  75.2240067 163.0577087  34.1957664  76.3214493 163.6081085  36.0576286
  76.5725250 163.1510620  37.1686096  76.4095688 164.8363342  35.8374405
  76.6071014 159.9516144  33.4874649  77.5858688 159.5097504  33.9828796
  76.6021423 160.5098419  32.2510300  75.7756577 160.8908844  31.8130474
  77.8125458 160.6153107  31.4283619  78.6504059 160.0770874  31.8715591
  77.5951385 159.7350922  30.1644135  76.5308838 159.6333923  29.9519920
  78.3196793 160.3171997  28.8880081  79.3457260 160.5408173  29.1801071
  78.3095245 159.6820679  28.0022316  77.8678284 161.2933807  28.7119446
  78.1088333 158.2904510  30.3012962  77.9281998 157.7329102  29.3822613
  79.1684113 158.3740997  30.5429840  77.4454193 157.3745422  31.2946777
  76.3691635 157.2635498  31.1625462  77.9553452 156.4135895  31.3627491
  77.4211655 157.8919220  32.2537575  78.2297821 162.0266724  31.2470264
  79.4067841 162.2877502  31.1916523  77.2307892 162.8585968  30.9521656
  76.2771225 162.5681458  31.1142311  77.3846893 164.3028259  30.9097958
  78.1128616 164.6192322  31.6566277  77.9509964 164.7031860  29.5233192
  78.8463974 164.1677399  29.2076607  76.9105988 164.7558441  28.3698101
  76.2061157 165.5875854  28.3709412  77.4157867 164.7313080  27.4042606
  76.2753754 163.8799744  28.5019493  78.4549789 166.0714264  29.5725040
  79.3992691 166.0108185  29.7344990  76.1568985 165.0832214  31.3976078
  75.0931320 164.5685577  31.8172874  76.2130814 166.4192657  31.4237881
  77.0876465 166.8447723  31.1514359  75.1760712 167.4011993  31.8368893
  74.1746902 166.9778442  31.7587643  75.4124222 167.7089233  33.2879677
  75.2932968 166.8135681  33.8980827  76.6603012 168.3574677  33.7481422
  76.6973953 169.3688049  33.3432655  76.8077393 168.3416290  34.8280106
  77.5527725 167.8693848  33.3565292  74.4349213 168.5684814  33.8427963
  74.8125229 168.9817047  34.6227112  75.0647736 168.6325378  30.8973846
  76.0558319 169.0235291  30.2669048  73.9640045 169.3673096  30.9559460
  73.2454300 168.9559021  31.5343056  73.6096954 170.4746399  30.0785580
  73.4107285 170.0274048  29.1046486  72.3198471 171.0705261  30.7004910
  71.4792404 170.3803253  30.7718925  72.5208435 171.3633728  31.7310047
  71.8987656 172.2844086  29.8917351  72.6822281 173.0351715  29.9948120
  71.8921890 171.9786072  28.8455257  70.5418015 172.8681030  30.2760563
  69.8785248 172.0234680  30.0895844  70.6416550 173.1509094  31.3239822
  70.1869278 174.0757446  29.3833561  71.0297165 174.7617340  29.4684639
  70.0520401 173.7745667  28.3445148  68.9947510 174.7918854  29.8023090
  68.9692154 174.9909668  30.7921658  68.8998795 175.6886139  29.3473625
  68.1277924 174.3043213  29.6268730  74.8163300 171.4594879  29.8878860
  75.1257553 171.7785187  28.7478027  75.4173508 171.9868622  30.9649944
  74.9967194 171.7317505  31.8470898  76.3623276 173.0285492  30.9162312
  75.9566727 173.8379211  30.3092213  76.5389252 173.5017090  32.3454094
  77.0066147 172.7494965  32.9806557  77.2381210 174.3342743  32.2674637
  75.2690125 174.0977631  32.9827805  74.3966217 174.7591095  32.3657684
  74.9594345 173.7761078  34.1865768  74.1741180 174.1896973  34.6685677
  75.6611633 173.3102112  34.7439079  77.7268829 172.6209869  30.1821785
  78.4870148 173.4856262  29.7884655  77.8593979 171.3045807  29.9918804
  77.2107620 170.5911865  30.2926254  79.0006027 170.8254852  29.2233067
  79.8576126 171.4410400  29.4967003  79.3678894 169.3511963  29.5958042
  78.5279083 168.6925964  29.3749294  80.1839523 168.9767151  28.9778194
  79.8379211 169.2378082  31.0162392  78.9896774 169.3249664  31.6952038
  80.1973190 168.2113953  31.0897789  81.0315552 170.1313782  31.5313625
  81.7693024 170.8177338  30.7608299  81.3398514 170.0163879  32.7386208
  78.7709274 170.8417816  27.6607437  79.7122040 170.6435547  26.8528881
  77.5167999 170.8569794  27.2220554  76.7440796 170.9124298  27.8700809
  77.1000214 170.9675140  25.8252621  77.5853271 170.1470642  25.2966385
  75.5179672 170.8435364  25.6196060  75.1289444 171.7700806  26.0418186
  75.3206329 170.9152832  24.1047039  75.9552689 170.1589508  23.6428432
  74.3111420 170.6608276  23.7817860  75.5043030 171.9117889  23.7030315
  74.8068542 169.5863342  26.1675510  75.1342697 168.7186584  25.5947914
  75.1810684 169.4454346  27.1815605  73.2726669 169.7848053  26.2318573
  72.8126602 169.7795715  25.2436943  72.8346252 168.9726257  26.8120117
  73.0886688 170.7796021  26.6375904  77.7248535 172.2166748  25.1264591
  77.5064316 173.3964996  25.5019932  78.5085449 171.9508057  24.0361786
  78.5565338 170.9837952  23.7485828  79.1340561 172.8668060  23.1544075
  78.6375656 173.8324585  23.2498150  80.6152191 173.1422729  23.5451202
  80.8930206 174.1900482  23.4306030  80.6842041 173.0187073  24.6258965
  81.6147537 172.2679138  22.8548851  81.9578247 171.0196838  23.3868980
  81.3641586 170.6331024  24.2020817  82.9192123 170.2067566  22.7526150
  83.2261429 169.2781219  23.2106934  83.6630402 170.7353821  21.7046719
  84.4617844 170.1823273  21.2329426  83.2976227 171.9535828  21.1123638
  83.8386459 172.2754822  20.2348270  82.2312622 172.7153473  21.6911259
  81.9780731 173.7086792  21.3511391  78.8902588 172.4809113  21.6991997
  78.4721603 171.3614197  21.3877811  79.0885925 173.5105896  20.8146420
  79.2735825 174.4013367  21.2533417  78.9530411 173.4631653  19.3707981
  78.3703003 172.5995026  19.0504875  78.1807327 174.7306519  19.0271740
  78.5542755 175.6733398  19.4270401  78.1043701 174.7488098  17.9399986
  76.8426514 174.5420990  19.3671856  76.3590622 175.3492126  19.1766624
  80.3269806 173.4081421  18.5978622  81.0356369 174.3848267  18.3775558
  80.6895905 172.1846771  18.3113251  80.2236404 171.3758850  18.6971226
  81.8568954 171.9153900  17.4276657  82.6687698 172.6048279  17.6592598
  82.3793640 170.5254669  17.6314526  82.3855820 170.3311462  18.7039757
  81.6172180 169.9282227  17.1309128  83.7820206 170.2339935  17.0656147
  83.7656860 170.3806152  15.9856443  84.9205322 171.1279602  17.6332588
  85.1135025 170.8739777  18.6755447  85.8308182 170.9098969  17.0747509
  84.7613297 172.2053223  17.5880661  84.1174545 168.7622681  17.2927837
  83.3198471 168.0856781  16.9859409  85.0012054 168.4947205  16.7135601
  84.2761993 168.6170654  18.3613491  81.4993896 172.2195587  15.9141121
  82.3456039 172.6570587  15.1481180  80.1798935 171.9972534  15.5854177
  79.6514435 171.5908203  16.3441372  79.6678619 172.1804657  14.2457895
  80.4970703 172.1646423  13.5385046  78.6962814 171.0306091  13.9023628
  79.1702576 170.0629578  14.0669327  77.8000031 171.2351227  14.4879894
  78.3628159 171.0914764  12.5643740  78.1949081 170.2471619  12.1394663
  78.8816452 173.5045929  14.0772104  78.4041824 174.0718842  15.0591536
  78.6671906 173.9595032  12.8283577  79.2007675 173.4336700  12.1509399
  77.6704636 174.8568573  12.3661442  77.6758499 175.7960052  12.9193897
  78.0973282 175.2083588  10.9403238  78.1932907 174.3251801  10.3087616
  77.1955338 175.5504150  10.4325142  79.3036957 176.1740723  10.7101297
  80.1824493 175.6568298  11.0952930  79.3678589 176.4409943   9.1700182
  78.5164566 177.0138855   8.8025875  80.1980286 177.0584869   8.8270531
  79.3511658 175.5161285   8.5934343  79.1451874 177.5090179  11.4405832
  79.1972198 177.3734741  12.5208712  79.9832916 178.1539917  11.1766052
  78.1833725 177.9957123  11.2789097  76.2463531 174.2758331  12.3507214
  75.2725220 175.0220032  12.4658775  76.0380173 172.9448700  12.4648676
  76.8603745 172.3586731  12.4506483  74.8260498 172.2553101  12.8655443
  73.9047318 172.7109528  12.5026875  74.8180466 170.8084412  12.3533974
  75.7349396 170.2962341  12.6450558  73.9496841 170.3026581  12.7755861
  74.5544434 170.9027252  10.5151720  74.6118317 169.5735168  10.3934374
  74.5226898 172.4243164  14.3391142  73.5498123 171.8612671  14.8537941
  75.2904892 173.2251434  15.1374159  76.0669250 173.7289581  14.7331562
  75.1991119 173.2297668  16.5903645  75.5738525 174.1872711  16.9521217
  74.1577682 173.2996368  16.9047279  75.8610077 172.0624084  17.3036499
  76.7890549 171.5218811  16.7497978  75.4346085 171.6730194  18.4806938
  74.2437134 172.1203308  19.2741089  73.4141922 172.1798706  18.5695171
  74.4153214 173.0890350  19.7434292  74.0297699 171.0984650  20.3647480
  73.5360413 170.1990204  19.9968548  73.3747559 171.5659485  21.0999432
  75.4582214 170.8033447  20.7341213  75.4697037 169.8757935  21.3064785
  75.8622131 171.6339569  21.3128948  76.1122131 170.6322784  19.3342953
  77.1495132 170.9261017  19.4948959  76.0793457 169.2106781  18.8281918
  76.6107712 168.3309479  19.5288239  75.3621826 168.8430939  17.7343845
  74.9037094 169.6287231  17.2954082  75.0485535 167.4774933  17.3463440
  76.0046844 166.9784241  17.5039654  73.9306488 166.9060669  18.2362118
  74.1431198 167.0794373  19.2911510  73.0272141 167.4582977  17.9774399
  73.5829544 165.4122467  18.0621166  73.3048325 165.1660614  17.0373516
  74.3866730 164.7336426  18.3478642  72.1422043 165.0187836  18.9490681
  70.8757172 165.3893127  17.6819439  70.8462830 164.5635376  16.9710789
  69.8966827 165.3111877  18.1546936  70.9346008 166.3642578  17.1980820
  74.7014999 167.4228058  15.8638887  73.8723602 168.2818604  15.4353685
  75.3015137 166.4697571  15.1519146  75.9582596 165.8834991  15.6469870
  74.9936066 166.2008820  13.7171450  73.9669418 166.4821777  13.4827557
  75.9836502 167.0261536  12.9452190  76.9779434 166.6756592  13.2220659
  75.7296295 166.9107208  11.8915358  76.0000153 168.0534210  13.3093100
  75.1986008 164.6875916  13.4422989  75.6044693 163.9462433  14.3223495
  74.8189774 164.3017578  12.2375755  74.3775177 165.0087433  11.6671534
  75.0159149 162.8850861  11.7433023  75.0525665 162.2627716  12.6374397
  73.7431488 162.5164948  10.9225559  73.6660156 163.1877136  10.0672073
  73.8490143 161.5382996  10.4534922  72.8576889 162.4722900  11.5566750
  76.3022003 162.6725616  10.8821096  76.6598587 163.5473785  10.1004391
  76.8968506 161.4846497  11.0177584  76.6420135 160.9116516  11.8094873
  78.0848694 161.0311584  10.3527164  78.2596664 161.6059113   9.4432135
  79.3188629 161.4000702  11.1953535  79.3094482 160.7334747  12.0577116
  80.1996155 161.2700806  10.5664921  79.3597107 162.8486938  11.8424540
  79.8210297 164.0041504  11.1332703  80.1728592 163.9631958  10.1130066
  79.9712524 165.2670898  11.7024260  80.3107986 166.0696716  11.0644913
  79.5170822 165.4300232  12.9901114  79.4859772 166.7145233  13.4810162
  79.8191376 167.3704376  12.8642702  79.0316620 164.3618011  13.7723913
  78.7013626 164.4904633  14.7925615  78.8810120 163.0810547  13.1442709
  78.3708038 162.3227692  13.7196722  78.0316391 159.5238342  10.0957384
  77.1167908 158.8379974  10.4980612  79.0209427 158.9376373   9.4046249
  79.8687134 159.4498596   9.2071419  79.1093979 157.4882355   9.1495495
  78.5058060 156.8953094   9.8367319  78.5232697 157.0649109   7.7723999
  78.7884598 156.0215454   7.6015525  77.0312042 157.1240845   7.7306504
  76.6154404 158.0839081   8.0371990  76.6058502 156.9393005   6.7442288
  76.6569138 156.3238831   8.3691521  78.9607849 157.8939667   6.6180744
  80.0493393 157.9469757   6.6366014  78.6466370 157.4246368   5.6858006
  78.5263901 158.8861389   6.7405233  80.4588089 156.7922363   9.2489614
  81.4456863 157.2592926   8.7293949  80.4641647 155.5270386   9.7749548
  79.6464081 155.1874847  10.2608232  81.6527863 154.6374054   9.6200943
  82.5358810 155.2748413   9.6640940  81.6699219 153.6140900  10.8444500
  82.6526031 153.6468964  11.3149366  80.9652252 154.0088959  11.5763178
  81.3003006 152.2152405  10.5584211  80.2406387 151.9903717  10.0297127
  82.1622009 151.3077087  10.7958775  81.9766922 150.3452759  10.5521708
  82.9551392 151.5601654  11.3682566  81.7738113 153.9425507   8.2335911
  80.7957764 154.0181732   7.4643650  82.8676605 153.1618958   7.8875260
  84.0986252 153.0183563   8.6536341  84.0831833 152.1590729   9.3240776
  84.3264847 153.9010925   9.2510929  85.1436005 152.7398071   7.5638833
  86.0101700 152.1772766   7.9113250  85.5080795 153.6075745   7.0141306
  84.4204636 151.7916107   6.7149658  84.4229279 150.8145905   7.1981974
  84.8781815 151.6816254   5.7318506  83.0543823 152.5003815   6.6324978
  83.1672058 153.3058014   5.9067736  81.9659882 151.5278473   6.1941981
  81.5578232 151.4859314   5.0432091  81.4313736 150.7515106   7.1182384
  81.8693008 150.9194183   8.0127373  80.2821426 149.8129425   7.0390301
  80.3886719 149.2107086   6.1367688  80.3539734 148.8910065   8.2332830
  80.1391449 149.5336151   9.0871019  79.6844711 148.0417328   8.0969324
  81.7653503 148.3020325   8.4664192  82.8565063 148.9521942   9.1050072
  83.8410873 148.0657196   9.1297636  84.7603226 148.1876373   9.6834354
  83.4932327 146.9539642   8.4949760  84.0455475 146.1140137   8.5925665
  82.1595917 147.0003357   8.1867075  81.6043625 146.2362976   7.6628985
  78.8877029 150.5480499   7.0081801  77.8535690 149.9438019   7.2817936
  78.9211502 151.8474426   6.7945647  79.8145523 152.3178711   6.7694983
  77.7547684 152.6838531   6.4724154  78.1319962 153.5895233   5.9974871
  77.0860443 152.1583557   5.7906771  76.8471527 153.0643768   7.6272473
  76.0532455 153.9606323   7.3751950  76.8560104 152.4423676   8.8355398
  77.6916580 151.9081879   9.0264540  76.0448990 152.8310242   9.9925938
  74.9885941 152.6598511   9.7851810  76.4941254 152.0455475  11.2396259
  76.7746124 151.0705414  10.8411283  77.4555740 152.4811554  11.5115728
  75.4412613 151.9951172  12.3364134  74.3914337 151.0500793  12.2587109
  74.5073547 150.2188721  11.5789499  73.2968597 151.0471497  13.1503410
  72.4903717 150.3320618  13.0823135  73.2620697 152.0322571  14.1410875
  72.1282196 152.0317078  14.8751097  71.4892883 151.3397369  14.6892271
  74.3396835 152.9812164  14.2727642  74.2775650 153.6968536  15.0792322
  75.3487549 153.0007782  13.3061886  76.1679611 153.7042694  13.3262157
  76.0767288 154.3371277  10.4003239  77.1610565 154.9649048  10.4302149
  74.8936691 154.8848877  10.7184801  74.1017380 154.2582550  10.7348223
  74.6803131 156.3233643  10.8976822  75.5112457 156.7834167  10.3628855
  73.3617935 156.8155212  10.2687483  72.5073318 156.3460846  10.7562180
  73.3174515 158.3078918  10.6491137  74.2217484 158.7743683  10.2582798
  72.4959183 158.7878113  10.1172638  73.2015076 158.5067291  11.7145329
  73.3240280 156.5558929   8.7402554  73.5087051 157.4153137   8.0957327
  74.1523514 155.9064331   8.4570894  72.0907974 155.7898712   8.2751141
  71.2594452 156.4916840   8.3415289  72.2321243 155.5122070   7.2305899
  71.9686661 154.9166718   8.9159956  74.8423691 156.5970154  12.4114761
  74.0984650 156.1005859  13.2326880  75.6886368 157.5755615  12.6831760
  76.3509064 157.7709961  11.9460840  76.1902390 157.9377594  14.0170870
  75.6358032 157.3338470  14.7354174  77.7028809 157.5770569  14.1626987
  78.2668152 157.9646606  13.3142719  78.0957336 158.1097565  15.0287209
  77.9143753 156.0936279  14.3258524  77.3454895 155.2738647  15.3266201
  77.9334030 154.0980682  15.1603661  77.6167068 153.2248688  15.7113876
  78.8650436 154.1269684  14.2073030  79.4724197 153.3474426  13.9986877
  78.8632355 155.4034729  13.6441936  79.4596786 155.7605591  12.8176622
  75.9184952 159.3904419  14.2386751  76.5186234 160.2503815  13.5700474
  74.9831161 159.6636200  15.1049309  74.5768356 158.9378204  15.6778631
  74.5692978 161.0293732  15.4920015  74.8532104 161.8307648  14.8098860
  73.0831375 161.1917267  15.7286711  72.6141586 160.3491821  16.2368908
  72.9619217 162.0580597  16.3789597  72.2352142 161.5344391  14.4588041
  72.7874680 162.3668823  14.0227404  72.2040710 160.7111359  13.7451363
  70.7865524 161.9395447  14.8540583  70.2498245 161.4845428  15.8484917
  70.1908493 162.7482758  14.0753813  75.2574921 161.3431396  16.8233070
  74.8053970 160.8286438  17.8605804  76.3480682 162.1964111  16.8640518
  76.6791458 162.6626892  16.0315456  77.1776276 162.3025513  18.0547199
  76.8789825 161.6276245  18.8568363  78.7202835 161.9866791  17.8500710
  79.3252335 162.5008240  18.5969296  78.9596329 160.4789276  17.7491245
  78.4359283 160.0399170  16.8999443  80.0183716 160.2622375  17.6069622
  78.6248932 160.0101318  18.6744862  79.1638184 162.5933075  16.6918240
  80.0918579 162.3855286  16.5607662  76.9942398 163.6718750  18.6545296
  77.1625366 164.6651611  17.9325047  76.7344437 163.7678833  19.9444256
  76.6204147 162.9041748  20.4554119  76.5905304 165.0116272  20.6534424
  76.2297745 165.8990479  20.1333885  75.6739502 164.7669067  21.8584881
  74.6396255 164.7221832  21.5174961  75.9674377 163.8232117  22.3182926
  75.7131042 165.8182068  22.9547024  76.7769699 165.9771881  23.1308022
  75.0429840 167.0800476  22.4615879  74.0098419 166.8853607  22.1738262
  75.2323914 167.9047089  23.1487217  75.5663757 167.4225769  21.5689316
  75.0793610 165.4244843  24.2804852  75.6073608 164.5771179  24.7178326
  75.2203217 166.2253723  25.0063133  74.0435333 165.1349792  24.1034012
  78.0092621 165.3341675  21.1614532  78.7072067 164.4292450  21.6554241
  78.3898315 166.5913239  21.0290203  77.7517242 167.2637787  20.6281185
  79.7483139 167.0554047  21.4286804  80.3484955 166.1461639  21.4626961
  80.4157486 167.9504242  20.3416634  81.3961868 168.3740387  20.5593796
  80.6861572 167.1265259  19.0561066  79.6794968 166.8791656  18.7191315
  81.0803452 167.8357544  18.3282986  81.3772659 166.2854004  19.1105881
  79.5256042 168.9436340  19.9457531  79.6224899 169.7194061  20.5028877
  79.7863922 167.7355347  22.7771721  79.0318909 168.6904144  23.0686455
  80.6167908 167.2784729  23.7189522  81.1867447 166.4529114  23.6019096
  80.7718430 167.8011169  25.1043568  80.3773651 168.8164673  25.1438599
  79.9803772 167.0466614  26.1892471  80.1963882 167.4808197  27.1654358
  78.4371490 167.2045593  25.9565544  78.1677094 166.5411682  25.1347160
  77.8490906 166.8603973  26.8073406  78.1948776 168.2162933  25.6312733
  80.3885727 165.5516663  26.2740936  81.4578018 165.4511108  26.4604511
  79.9400711 165.0873108  27.1523476  79.9419708 165.0635986  25.4078102
  82.3255615 167.9132385  25.3977299  83.0467911 167.0283813  25.0128822
  82.7880325 168.8995819  26.1590443  82.1888123 169.5960693  26.5784798
  84.1772079 168.9918365  26.7278385  84.9004288 168.8905945  25.9186325
  84.2691879 170.3920898  27.4251976  83.5142517 170.4713440  28.2074394
  85.2235489 170.4859161  27.9433556  84.0979462 171.5498505  26.5141468
  84.9047775 171.6733856  25.3793316  85.5771179 170.8596649  25.1508064
  84.8082199 172.8340302  24.5719776  85.4287643 173.0129089  23.7063389
  83.8570938 173.7896729  24.9071617  83.7889175 174.9578247  24.1929665
  84.4615936 174.9215393  23.5090103  83.0390472 173.6677856  26.0750580
  82.4000854 174.5045013  26.3159428  83.1921768 172.5427094  26.9198818
  82.6459808 172.4599762  27.8479042  84.5107346 167.9199829  27.7264309
  85.6829376 167.5520630  27.8656311  83.5098267 167.4692993  28.5329647
  82.5809937 167.8511963  28.4256268  83.7969055 166.5517731  29.6612587
  84.7241364 165.9947510  29.5268192  83.9914017 167.4951630  30.9226418
  84.7819061 168.2154694  30.7120209  83.1094360 168.1343842  30.9633274
  84.1810455 166.8415680  32.2832146  83.3168488 166.2292175  32.5406876
  85.0794830 166.2324829  32.1835976  84.4128799 167.8912048  33.3185883
  85.2605286 168.5130310  33.0306435  83.5630875 168.5628357  33.1966667
  84.6719208 167.2507935  34.7044716  84.5874100 167.9916534  35.4995079
  83.8944244 166.5222015  34.9341965  86.0895309 166.7397614  34.8595314
  86.8463593 167.3599854  34.6092415  86.3038177 166.4856873  35.8132782
  86.1673126 165.9245911  34.2683067  82.7300491 165.4981384  29.8644485
  81.5487442 165.7807617  29.8067856  83.2120285 164.2511292  30.0550289
  84.1918716 164.0653534  29.8953209  82.4138031 163.1121216  30.5316334
  81.3969421 163.4642944  30.7050533  82.3199997 161.9969940  29.4658203
  83.3286972 161.5840302  29.4753418  81.4549408 161.3426819  29.5736961
  82.1839981 162.5336151  28.5268574  82.8857651 162.5198364  31.8755474
  84.0794144 162.3238068  32.0647049  81.9446564 162.1199341  32.7757072
  80.9574280 162.2536011  32.6095238  82.2917786 161.7212067  34.1199913
  83.2689285 162.1583252  34.3254128  81.2785187 162.2955475  35.1666756
  80.2859268 161.8709106  35.0165100  81.6409531 162.0712128  36.1698799
  81.1855240 164.1591644  34.9629669  82.1586227 164.4790649  35.8206596
  82.4664307 160.2396851  34.2024307  83.5726242 159.8680267  34.6101913
  81.3926697 159.4629669  33.9323845  80.5347443 159.9453430  33.7057037
  81.4439163 158.0310364  34.0604668  82.3331909 157.7818604  34.6394310
  80.2132797 157.6050568  34.8894463  79.2657700 157.8599396  34.4147186
  80.2204056 156.5245056  35.0324326  80.2564926 158.1604767  36.3399620
  81.0137024 157.7148132  37.1947975  79.4442749 159.1370544  36.6276207
  79.3397217 159.4243164  37.5902481  78.7847900 159.3824310  35.9030685
  81.5131149 157.2363892  32.7556572  80.6861877 156.3130951  32.5230064
  82.5905533 157.4895630  31.9642677  83.1771622 158.3025208  32.0871162
  83.0042877 156.6430664  30.8433437  82.2303925 155.9165344  30.5956326
  83.2114487 157.4117279  29.5584488  84.0176544 158.1292572  29.7109852
  83.4967728 156.6917725  28.7913952  81.9508667 158.0331421  29.0129852
  81.4293365 158.5623932  29.8104877  82.1455917 159.0209351  27.9469223
  82.2415161 158.5079346  26.9899883  81.2110825 159.5422211  27.7394199
  83.0217819 159.6343689  28.1568966  80.9523163 157.0230255  28.4817066
  80.6506119 156.2823792  29.2223358  80.0152740 157.5376587  28.2690926
  81.2956467 156.5250397  27.5749302  84.3687057 156.0216675  31.1245899
  85.2308350 156.6185760  31.7571945  84.6265793 154.7708588  30.6219921
  83.8662949 154.5179749  30.0070839  85.9569397 154.2182007  30.4488392
  86.7690964 154.7901001  30.8976688  86.0443344 152.8208618  31.0507622
  85.2854385 152.1789703  30.6033745  87.0117950 152.4196625  30.7488441
  85.9144287 152.8191223  32.5893288  85.8914185 153.8537750  33.2187119
  85.7706146 151.6060791  33.1154327  85.6073990 151.5806580  34.1118355
  85.8881760 150.8390961  32.4689064  86.3415604 154.2175446  28.9458771
  85.5340195 154.4883118  28.0585289  87.6207047 153.9466400  28.7614574
  88.1082230 153.6071014  29.5782452  88.3404236 153.9334717  27.4923420
  87.7250061 154.3075104  26.6741390  89.5028000 154.9346313  27.4819393
  90.0531311 154.4564209  28.2922211  89.9747849 154.9748535  26.5002518
  89.2646561 156.3776245  27.8738194  88.8442841 156.4060059  28.8790951
  90.5740204 157.1171417  27.8081398  91.0796890 157.0154877  26.8478966
  90.5011215 158.1838989  28.0198078  91.3284302 156.6874847  28.4672108
  88.3796082 157.0061798  26.8107243  87.4165726 156.4958038  26.7968712
  88.1813889 158.0593567  27.0098324  88.9102783 156.9807739  25.8589687
  88.7682266 152.4857788  27.2051220  89.2490921 151.8183136  28.1461639
  88.7355804 152.0891266  25.9218636  88.2469330 152.6834564  25.2675686
  89.5782700 151.0187073  25.3521767  90.3131638 150.7285004  26.1030560
  88.7430878 149.7556915  25.1051941  89.3264008 148.8558350  24.9099579
  88.1848221 149.6376038  26.0339050  87.8583603 150.0333099  24.0460415
  86.9610367 149.9650726  24.3803425  90.2917404 151.3983612  24.0323067
  90.0180511 152.4498901  23.3841877  91.2062912 150.5160828  23.6001816
  91.4010849 149.6687622  24.1142159  91.9558868 150.7065582  22.3619976
  92.4499664 149.7614899  22.1365356  91.2916794 150.9997711  21.5489998
  93.1115723 151.7051239  22.5482712  93.6620865 151.9418488  23.6159916
  93.4978485 152.2511597  21.4081707  92.9711838 152.0467682  20.5709457
  94.4231873 153.4405060  21.2858105  94.4925385 153.9078674  22.2680874
  95.8420944 153.0636597  20.7440929  95.8267822 152.7647400  19.6959934
  96.5901337 153.8559570  20.7157097  96.5574188 151.9921722  21.5850487
  95.8542709 151.1594391  21.6005363  97.4853134 151.7320251  21.0757046
  96.8529816 152.3464508  23.0768185  97.4490814 153.2577667  23.1243038
  95.9412842 152.5217285  23.6479454  97.4948349 151.1691742  23.7243576
  98.4349899 150.9575806  23.4219513  96.9240799 150.2016144  24.4616776
  95.7394333 150.2703705  24.9148293  95.1931000 151.1024933  24.7439289
  95.2685699 149.5316162  25.4174500  97.5811386 149.1499634  24.8601685
  98.5339432 148.9938812  24.5636826  97.2129440 148.5569458  25.5901375
  93.8852768 154.4615021  20.2793236  92.8627167 154.1963806  19.6839161
  94.4266052 155.7233887  20.2456207  95.4911194 156.2587585  21.1363983
  96.5242920 156.0795746  20.8388081  95.3909760 155.7722626  22.1066513
  95.2452850 157.7338104  21.2475967  96.1558762 158.3328705  21.2551403
  94.6092911 157.9824066  22.0971909  94.4694061 158.0491028  19.8961411
  95.2197342 158.2887421  19.1426945  93.7477341 158.8467712  20.0722370
  93.8683777 156.7548981  19.4284172  92.7924500 156.7779999  19.6014786
  94.1019592 156.4599457  17.8807545  95.1580811 155.8922882  17.4674950
  93.2125320 156.8417664  17.0195961  92.2846069 157.1093292  17.3153286
  93.4137802 156.7298126  15.5367956  94.4644852 156.9072571  15.3073835
  93.0325928 155.3074646  15.0527868  93.4638672 154.5545197  15.7124605
  91.9469528 155.2176971  15.0150576  93.5144196 155.1623840  13.7048721
  93.5906525 154.2392883  13.4525146  92.6749649 157.7461853  14.7544537
  91.6682205 158.2224884  15.3056688  93.2377548 158.2512512  13.6137609
  94.2001572 158.0256958  13.4063721  92.6603775 159.2734222  12.7236929
  92.0017624 159.9194489  13.3042021  93.7641830 160.1317749  12.0333004
  93.2999344 160.8516541  11.3592377  94.5481033 161.0117493  12.9850092
  95.1416473 160.3424377  13.6077595  95.2833939 161.5504761  12.3873215
  93.9548340 161.7377625  13.5409317  94.6727524 159.2413330  11.4430952
  95.2913437 159.7709808  10.9347363  91.9207993 158.5459595  11.6018658
  91.1905594 159.2947693  10.9049768  92.0745087 157.2467957  11.3839064
  92.6323242 156.6889648  12.0145922  91.4128494 156.6204529  10.1941376
  91.8649292 157.0717010   9.3109074  91.5534134 155.0864716  10.2266092
  91.0903702 154.6789703  11.1252899  90.9829941 154.6832886   9.3898535
  93.0027313 154.4197998  10.2004395  93.5274734 154.5611572  11.1452990
  92.7404556 153.3639526  10.1332598  93.9502716 154.6899261   9.0465031
  93.6049423 155.1308136   7.9311795  95.1623917 154.4329987   9.2827597
  89.9008789 156.9650116  10.1608353  89.2199478 156.7333984  11.2174006
  89.4341507 157.5145874   9.0593786  90.0998077 157.5115051   8.2997818
  88.0570297 158.0168152   8.8348103  87.9348145 158.4964752   7.8636827
  87.2626495 156.6262970   8.7008104  87.9553223 155.8317871   8.4232235
  86.8159409 156.4044647   9.6700068  86.1735535 156.6792145   7.7136402
  84.8797607 156.4484100   8.0982285  84.1218872 156.3589935   6.9945855
  83.0496597 156.2534943   6.9198074  84.9268036 156.5159912   5.9223003
  84.6731339 156.4817047   4.9452763  86.2116013 156.6708527   6.3597679
  87.1444321 156.6501770   5.8158956  87.4648438 158.9456787   9.9132977
  86.2263794 159.0630646   9.9548025  88.2419357 159.5775146  10.7866278
  89.1937485 159.2396698  10.7827215  87.6835861 160.5482178  11.7867031
  87.1083984 160.0354767  12.5576487  88.9103317 161.2009430  12.4734001
  89.5017395 160.4456787  12.9910078  89.5317612 161.8494110  11.8557978
  88.3445358 161.9962006  13.5376911  89.0035324 162.5707855  13.9341383
  86.7740021 161.6391296  11.2264385  87.1240845 162.3840332  10.3207073
  85.6146774 161.8792725  11.8627453  85.4709015 161.4466705  12.7640123
  84.6195679 162.8364716  11.3371048  84.5877991 162.6567688  10.2624884
  83.2722778 162.4313049  12.0515289  83.3801804 162.6220093  13.1192789
  82.4889526 163.0836487  11.6655760  82.7966843 161.0306244  11.8135157
  82.7200928 160.4281006  10.6330099  83.1146851 160.8932037   9.7417402
  82.3199921 159.0773926  10.8008041  82.3133850 158.4116211  10.0413218
  81.9778824 158.8014374  12.1235065  81.6119995 157.6947632  12.8346701
  81.4333572 156.7428894  12.3567448  81.4734650 157.7621155  14.2274275
  81.3948441 156.8791504  14.8443499  81.6760635 159.0121613  14.8856430
  81.5650024 159.1688995  15.9484243  82.0906219 160.0845947  14.1312017
  82.3214340 160.9811249  14.6874084  82.2893448 160.0347900  12.7701607
  85.0397034 164.2887573  11.6233339  84.3951187 165.2050018  11.1201401
  86.1159210 164.4990234  12.4335012  86.6041794 163.6551971  12.6974297
  86.7317047 165.7897339  13.0301466  86.2118683 166.6532593  12.6151876
  86.3471680 165.8116760  14.5452881  86.9168625 165.0356750  15.0565472
  86.6222000 166.7833405  14.9555349  84.8984604 165.6156006  14.8057299
  84.0333710 166.6435852  14.3845930  84.3623047 167.5798035  13.9583340
  82.6609421 166.5417175  14.6249762  82.0071335 167.3078308  14.2351265
  82.1508713 165.4714661  15.3609552  81.0833969 165.4210205  15.5170336
  82.9789124 164.4402771  15.7752857  82.5893326 163.5754395  16.2916965
  84.3344040 164.5574799  15.5279484  84.9594116 163.7785645  15.9390869
  88.2268143 165.9131927  12.6509800  89.1157074 165.3578033  13.3013144
  88.6162033 166.5908203  11.4860878  87.7321472 167.0136261  10.4672270
  87.4024963 168.0403290  10.6262817  86.8702545 166.4076996  10.1877728
  88.5814667 167.0863190   9.1474686  88.2248154 167.8288574   8.4336414
  88.5130463 166.1009064   8.6866140  89.9549942 167.4536896   9.7569675
  90.2004318 168.5043030   9.9121571  90.7228165 167.1394501   9.0499964
  90.0062485 166.7102203  11.0783272  90.3331528 165.6902161  10.8762875
  90.9265747 167.3062286  12.0756655  90.7153778 168.3980865  12.5944748
  92.0129700 166.6505127  12.4009647  92.0350876 165.6690979  12.1633797
  92.9912491 167.0389709  13.3761578  93.9656982 166.6152039  13.1333494
  93.1204453 168.1135559  13.5053186  92.6698380 166.5278320  14.7874174
  93.3584671 166.9442444  15.7220917  91.6895218 165.6468658  14.9821119
  91.0481796 165.4994507  14.2159185  91.3947449 164.8462677  16.1220245
  92.1261292 165.1105042  16.8858051  90.0305939 165.4027710  16.6244583
  89.3524704 165.2940369  15.7780418  89.5835266 164.7833862  17.4020176
  90.0532150 166.8128815  17.1337929  90.5031281 167.0009613  18.4481716
  90.5611343 166.1147308  19.0627060  90.5957642 168.2657318  18.9445515
  90.8462830 168.3788910  19.9889851  90.3232956 169.3643341  18.1496201
  90.5920792 170.6229858  18.5423603  90.7273483 170.6127625  19.4927273
  89.7877655 169.2012482  16.8186016  89.4692307 170.1398315  16.3896446
  89.6953506 167.8959198  16.2942791  89.3460770 167.7585297  15.2815914
  91.4673920 163.3854523  15.8526754  90.8713226 162.9400330  14.8694401
  92.0213928 162.5900116  16.8189487  92.4894714 163.0698090  17.5744629
  92.1416626 161.1459351  16.8819523  91.9953918 160.7930450  15.8610849
  93.4911804 160.7294617  17.3518925  93.5223541 161.1682587  18.3491859
  93.5189667 159.6419678  17.4203548  94.2669678 161.1542816  16.7148762
  91.0643539 160.6074219  17.8112125  90.8535004 161.1988220  18.8515415
  90.2901306 159.5768585  17.3414040  90.4496918 159.1379547  16.4458561
  89.2831497 158.9604034  18.1327515  88.9278336 159.7451019  18.8006573
  88.1466904 158.5631561  17.1553001  87.2538986 158.2757263  17.7106419
  87.8904037 159.5187531  16.6978607  88.4179459 157.6336517  16.0214596
  88.6737137 157.9645538  14.7458992  88.8443985 158.9923096  14.4612951
  88.8038254 156.8737488  13.9444571  88.9483795 156.8776550  12.9448614
  88.5260086 155.7006378  14.6743679  88.3398285 154.3742676  14.3204050
  88.4983902 153.9573517  13.3368235  88.0354385 153.4518738  15.3537588
  87.9630814 152.4332428  15.0022545  87.8304901 153.8948059  16.6724453
  87.6273117 153.2283325  17.4976368  88.0543060 155.2266235  17.0177555
  88.0402451 155.5455475  18.0494957  88.3675690 156.1536255  16.0144081
  89.8220978 157.7870178  18.9763565  90.6426544 156.9794617  18.5994568
  89.2355118 157.6053009  20.1643219  88.7332230 158.4106750  20.5095253
  89.5338058 156.4249573  21.0517445  89.8751068 155.5857391  20.4456539
  90.6743622 156.6702881  22.0644550  91.5757065 156.6677094  21.4515228
  90.5691681 157.9691467  22.8471794  89.7637558 157.9523926  23.5814400
  91.4962997 158.1054382  23.4039059  90.3975296 158.8301849  22.2012386
  90.6943588 155.6758575  23.0156212  91.2990799 155.0329742  22.6379833
  88.1832733 156.0111847  21.6737652  87.3601532 156.7787781  22.1429291
  87.9013672 154.6508026  21.6000137  88.6633835 154.0305328  21.3661442
  86.5363846 154.1573334  21.8926659  85.8299484 154.6400909  21.2173862
  86.5090408 152.6579437  21.7484913  87.3079071 152.1823883  22.3174858
  85.2155838 152.0004578  22.2780685  84.3634186 152.5024872  21.8199463
  85.1023483 150.9484406  22.0162659  85.1265793 152.1697998  23.3511467
  86.7252426 152.2364502  20.2574654  85.8471832 152.1031647  19.6255245
  87.3053665 153.0010834  19.7408600  87.5064926 150.8989105  20.1917686
  86.8883286 150.1772614  20.7257938  87.5948715 150.6524353  19.1336861
  88.5282288 151.0872803  20.5214233  86.1873703 154.4803467  23.3834515
  86.8745804 154.1045837  24.3491669  85.0279846 155.0629730  23.5358887
  84.5211029 155.3010406  22.6953602  84.2664719 155.3040161  24.8179588
  84.9566345 155.2081604  25.6561642  83.7881012 156.7323456  24.8493938
  83.1555023 156.9093475  23.9795742  83.2654343 157.0028076  25.7668743
  84.5722885 157.4780884  24.7189388  83.1524048 154.2448120  25.0687943
  82.2602997 153.9170074  24.2595730  83.0879974 153.8041382  26.3225441
  83.7322998 154.2305756  26.9730186  81.9697723 153.0006409  26.8658905
  81.1480408 153.1987152  26.1776905  82.4556885 151.4902191  26.8353539
  83.4205017 151.4735565  27.3422737  81.8296204 150.8753967  27.4819832
  82.6869049 150.8618774  25.4142056  81.6824722 150.7322388  25.0112000
  83.2126617 151.5789948  24.7837906  83.5672684 149.5915985  25.5191936
  84.7494888 149.5690308  25.2505112  82.9944611 148.5179443  25.9795914
  83.5917816 147.7465210  26.2407513  82.0110931 148.4349976  26.1945686
  81.5818787 153.4491425  28.2296200  82.3997803 154.0377960  28.9425774
  80.3510132 153.1129761  28.6608677  79.7807159 152.6070099  27.9983978
  79.7740173 153.4256287  30.0128803  79.7381134 154.5007629  30.1886768
  78.3528519 152.8435974  30.0697498  77.6972198 153.3027802  29.3298855
  78.3597336 151.7799225  29.8317070  77.5564423 153.0632629  31.7173004
  76.3320160 152.6258850  31.4101295  80.7085876 152.8687897  31.1368122
  81.3038635 151.8198395  30.8820400  80.7542114 153.3500824  32.3751907
  80.4143753 154.3009491  32.3965683  81.6194839 152.8538055  33.4797592
  82.5139923 152.4424591  33.0120506  81.9982910 154.1005249  34.2781105
  82.4919662 154.8672180  33.6809769  81.0807953 154.5800323  34.6192665
  82.8587570 153.6795959  35.4097328  82.3553772 152.9600372  36.0554543
  83.6916122 153.0978241  35.0147667  83.3892365 154.9471893  36.0350494
  82.6107178 155.6252747  36.3846321  83.8959656 154.5950623  36.9335670
  84.3543930 155.6396637  35.2393570  84.8978424 155.1083221  34.5741882
  84.8297043 156.8879395  35.4493828  84.4347382 157.6604156  36.4418411
  83.6830215 157.3740540  37.0525894  84.7921982 158.6047363  36.4662170
  85.8190231 157.3759766  34.7450752  86.2059479 156.7396851  34.0627861
  86.3581390 158.2108917  34.9249725  81.0272141 151.6699371  34.1981888
  81.6603851 150.6694794  34.5644226  79.6791534 151.7912445  34.3403358
  79.2653122 152.6428070  33.9886475  78.8641739 150.8554840  35.1525307
  79.5031052 150.5588074  35.9843025  77.7081985 151.5778198  35.8993797
  77.0801010 152.1152802  35.1889496  76.8143921 150.5745697  36.6624908
  77.4505844 149.9983826  37.3343315  76.0482101 151.1113434  37.2219048
  76.2766876 149.8611450  36.0379868  78.2307587 152.7477875  36.8837852
  78.5447540 153.6403809  36.3426857  77.3129272 153.0467072  37.3900757
  79.3321686 152.3777313  37.8077049  80.2894821 152.2386322  37.3054008
  79.3850479 153.2048645  38.5156288  79.0856476 151.5152588  38.4269753
  78.5721283 149.5308075  34.4122124  78.5043640 148.4874268  35.0483780
  78.3771362 149.5498657  33.0974464  78.4018173 150.4349823  32.6115875
  77.9934921 148.4095306  32.3221207  77.9952316 147.5270538  32.9619179
  76.5346985 148.5792236  31.8252945  76.0806198 147.6318512  31.5347786
  75.9549179 148.9550781  32.6683235  76.3797150 149.7596741  30.5496750
  75.0523911 149.8879242  30.6312389  78.9138412 148.0445099  31.1740150
  78.7310333 146.9672394  30.5837345  79.8180923 148.9083099  30.6582375
  80.0183258 149.7472382  31.1837883  80.5210266 148.5734558  29.4285221
  81.4594498 149.1222076  29.3489113  80.6767273 147.4946442  29.4335957
  79.8211517 148.7838745  28.0931320  80.3895416 148.4541016  27.0526428
  78.5951843 149.2974243  28.0473652  78.1423645 149.5879974  28.9021282
  77.9362106 149.5663147  26.7032013  78.0064087 148.6445618  26.1256676
  76.4998856 149.9541321  26.9952526  76.0772552 149.1163940  27.5499363
  76.4873428 150.8974609  27.5411949  75.8017502 150.1768799  25.6893730
  75.8708572 149.3613892  24.8103580  75.1851807 151.3639832  25.5171890
  75.0417099 151.7152863  24.5811825  75.2093277 152.0565796  26.2519226
  78.7302933 150.6265869  25.9185772  79.3583679 151.5501404  26.4498920
  78.7968903 150.4900970  24.6086960  78.3405228 149.6811676  24.2118797
  79.3345642 151.4921265  23.6509914  80.3420868 151.7579041  23.9709167
  79.4352417 150.9448090  22.1742611  79.9687500 149.9952393  22.2162991
  78.4355011 150.7379303  21.7924004  80.0632095 151.9504089  21.2396431
  79.3818054 152.5816193  20.1955833  80.2566376 153.3730774  19.6081161
  79.9954681 153.9495087  18.7329445  81.4902878 153.2643890  20.1355114
  82.3091736 153.7605438  19.8140049  81.3917923 152.3494873  21.1370087
  82.2517242 152.1079102  21.7441006  78.4978943 152.8271790  23.6951447
  77.2873230 152.8258209  23.5308323  79.1829071 153.9517975  23.9801502
  80.1748734 153.8694458  24.1513538  78.7178574 155.3456573  24.0917854
  77.6544113 155.3036804  23.8563595  79.0672302 155.8885040  25.4939499
  80.1462860 155.9374542  25.6400585  78.7231293 156.9084015  25.6657543
  78.5524063 155.1385956  26.7218246  79.0047531 154.1509399  26.8113689
  78.7719269 155.7764587  27.5780087  76.7079926 154.9220886  26.6627541
  76.0232315 156.6048279  26.5568848  76.1617203 157.0053101  25.5526276
  74.9790955 156.4855042  26.8460846  76.6083374 157.2523499  27.2099342
  79.3078537 156.2979889  23.0300503  79.0799179 157.4801178  23.0455742
  80.1695251 155.7643280  22.1219196  80.2468719 154.7573853  22.1359158
  80.8592529 156.5141144  21.1544952  80.6622849 156.0557861  20.1853561
  80.5152893 157.5380249  21.0082302  82.3429108 156.6501465  21.3251858
  83.0367966 155.6425629  21.4950066  82.9083176 157.8808441  21.2073593
  82.2171097 158.6066132  21.0824680  84.3824234 158.1306152  21.2127056
  84.9475632 157.3271027  21.6850147  84.8686371 158.1525879  19.7550602
  84.6028519 159.0667725  19.2242718  85.9578094 158.1309204  19.7915916
  84.2991867 157.0832977  18.9026127  84.9163437 155.8707275  18.6233330
  85.9297409 155.6337585  18.9119358  84.1093521 155.0383606  17.9381199
  84.4184875 154.1411285  17.5924473  82.8923721 155.6299286  17.6945534
  81.7291489 155.1563110  17.0852280  81.6801682 154.1616974  16.6672192
  80.5733490 156.0450592  17.0565548  79.6286850 155.6545715  16.7079353
  80.6254349 157.3079224  17.6115398  79.6712036 157.8124695  17.6472511
  81.8154526 157.7769470  18.2307358  81.8684235 158.7714539  18.6485653
  83.0014496 156.9523315  18.2381649  84.7353363 159.3825378  21.9900322
  84.0421600 160.3697815  21.8197193  85.8703461 159.2758789  22.7136097
  86.3626251 158.4282837  22.9572124  86.6643982 160.3969727  23.1176605
  86.0814362 161.2723999  23.4037991  87.5727234 160.0732117  24.3085442
  86.9843750 159.6105042  25.1009083  88.3581009 159.3865662  23.9926434
  88.2133865 161.2875671  24.9151402  88.6939087 161.9233246  24.1714897
  87.4346390 161.8939819  25.3776665  89.2992706 160.9971466  26.0443439
  89.0138702 160.1514893  26.6700535  90.2263489 160.8421936  25.4924164
  89.4299240 162.2628784  26.9697723  89.8241730 163.0717621  26.3546448
  88.4365387 162.5667572  27.2998219  90.4040756 162.1720886  28.0931702
  91.2517319 161.6725464  27.8650417  90.8168106 163.0488586  28.3778381
  89.9900665 161.6289062  28.8372345  87.4606476 160.7946625  21.8363113
  87.9489975 159.9273376  21.1204281  87.6401978 162.1044312  21.6418819
  87.0591049 162.7930908  22.0981579  88.5731735 162.7499847  20.7489681
  89.1043320 161.9481049  20.2361603  87.7546768 163.6835480  19.8507519
  87.2726898 164.4022827  20.5134869  88.3854599 164.2679901  19.1809387
  86.8686752 162.8696594  18.9737244  87.3792343 162.5099335  17.6937580
  88.3777771 162.7658081  17.3715000  86.5516510 161.8840637  16.7507896
  86.9672623 161.7423859  15.7640781  85.2223129 161.5466461  17.0561714
  84.5834198 161.0464172  16.3434467  84.7189026 161.9279327  18.3359642
  83.6921005 161.7536774  18.6218452  85.5317078 162.5338745  19.2990055
  85.0923309 162.7811127  20.2541046  89.7553253 163.4481354  21.4839859
  89.5762100 163.9820862  22.5843353  90.9718628 163.4134979  20.9181061
  91.1062393 162.9319305  20.0405388  92.2077026 164.0839691  21.3986168
  91.8586960 164.8911896  22.0425854  93.1456451 163.1816559  22.2259636
  94.0945053 163.6804352  22.4233913  92.5164185 162.8048553  23.5540371
  91.6127167 162.2164612  23.3952827  93.2150879 162.2269745  24.1590328
  92.2607956 163.7567291  24.0195522  93.4317169 161.9397736  21.4753132
  94.0148468 162.1446686  20.7407532  92.8973618 164.6474457  20.1440163
  92.9651337 164.0152893  19.0941696  93.4089127 165.8295746  20.2755222
  93.4105453 166.3216248  21.1575527  94.0286789 166.5308990  19.1889153
  93.3388596 166.5385742  18.3449974  94.1570663 168.0276337  19.5336056
  95.0691299 168.1820068  20.1101685  94.2020874 168.5623016  18.5848122
  93.2154160 168.4036865  19.9335670  95.3514175 165.8524475  18.8150234
  96.1292953 165.4123077  19.6933403  95.7245941 165.7775116  17.5207005
  94.9924316 166.0392303  16.8760700  97.1179733 165.5057526  17.0530167
  97.5164795 164.7451477  17.7244148  97.1733017 164.8420563  15.6964989
  98.1435623 164.3830261  15.5068092  96.1846237 163.6428070  15.5680170
  95.1671524 163.9896851  15.3876238  96.4875946 163.0509644  14.7042904
  96.3073959 163.1192932  16.5161552  96.8209686 165.7821808  14.7257175
  97.3045425 165.6395416  13.9087648  98.0671005 166.7010193  17.0925007
  99.2576599 166.5383301  17.3935299  97.5590668 167.9432678  16.9315796
  96.5565186 168.0205078  16.8364830  98.3044510 169.2098389  16.8543873
  99.3605347 168.9514923  16.7766552  97.8648682 169.8440399  15.5191526
  96.7880707 169.7400513  15.3857355  98.1216660 170.8982391  15.6230612
  98.7680435 169.4328613  14.3382730  99.8154526 169.5739594  14.6049404
  98.6704025 168.3981781  14.0096197  98.4434814 170.3424835  13.1336670
  98.3303604 171.3469391  13.5415335  99.2540512 170.1783142  12.4236469
  97.1114883 169.8507690  12.4854250  97.0874100 168.7617798  12.4452839
  96.2624207 170.1495056  13.1001987  96.8968201 170.3278961  11.0904474
  97.5080566 169.9466705  10.3825121  95.9907684 170.0216827  10.7657681
  96.9045258 171.3374176  11.0604544  98.2142105 170.0041199  18.1425819
  97.0918884 170.1591034  18.7069511  99.3392410 170.5466309  18.5970554
 100.1216278 170.3383942  17.9932346  99.5784378 171.1724243  19.8907871
  99.2993927 170.3978424  20.6051102 101.0454636 171.3489532  20.1645317
 101.2284546 171.6459351  21.1972065 101.6005936 170.4570007  19.8740959
 101.6846237 172.5521393  19.3991337 101.5310287 172.4593048  18.3240108
 101.3594666 173.5109558  19.8029346 103.1800690 172.5283966  19.6276913
 103.3910904 172.5309448  20.6970673 103.6491089 171.6297302  19.2270756
 103.9413147 173.7379150  19.0543976 103.4022751 174.6606903  19.2688923
 104.8937683 173.8204193  19.5779667 104.1735001 173.6274109  17.5929184
 103.2805328 173.3423157  17.2168331 104.5127716 174.3845062  17.0168991
 104.7898941 172.8605804  17.3646049  98.8590393 172.4851532  20.1474953
  98.8826447 172.8540192  21.3283024  98.3225555 173.1404266  19.1187496
  98.4293900 172.6892395  18.2214661  97.8208160 174.5572662  19.1853981
  97.9969788 174.9643555  20.1810570  98.6559601 175.4564209  18.2185402
  98.2071228 176.4264069  18.0046425  99.5866623 175.7200623  18.7209301
  98.9506149 174.8707733  16.8308277  98.0613403 174.1800232  16.2548676
 100.0451508 175.1743317  16.2834549  96.3776703 174.7293091  18.8665276
  95.7507706 175.7830658  19.0660915  95.7173386 173.6486053  18.4295635
  96.2241592 172.8018799  18.2144489  94.2625275 173.5807037  18.2178288
  94.0134277 174.4345551  17.5877552  93.7811127 172.2470245  17.5453930
  94.0026627 171.4262848  18.2275944  92.7278290 172.2874603  17.2677956
  94.5359497 172.0828705  16.2420616  94.5951462 172.9698486  15.6113062
  95.5224304 171.8388062  16.6362629  93.9471512 170.6962280  15.1654606
  92.2930222 171.2190247  14.5250578  92.3302841 172.1806183  14.0131474
  91.9137955 170.5303040  13.7701063  91.6738968 171.2383575  15.4219475
  93.5122757 173.7359619  19.5272198  94.0170975 173.0913239  20.4571400
  92.3706894 174.3789062  19.6257057  92.0212860 174.9298401  18.8546829
  91.5713501 174.5160980  20.8684158  92.0654373 173.9492035  21.6574783
  91.6122055 176.0489655  21.2627029  92.6244812 176.2429199  21.6173553
  91.4305954 176.5763245  20.3262138  90.6031113 176.4318542  22.2297649
  91.0222321 176.6583405  23.0632153  90.1182938 174.0348206  20.5791626
  89.5245056 174.4841156  19.5897770  89.4715271 173.1961212  21.4435196
  88.0785904 172.7797546  21.3014107  87.8725281 172.3796539  20.3086529
  87.5068970 173.6265411  21.6811829  87.8566895 171.6523132  22.3368549
  88.1486282 170.6727448  21.9582691  86.8309174 171.6361389  22.7051315
  88.8251877 172.0872498  23.4455299  89.1207657 171.3035278  24.1430359
  88.3041458 172.8954163  23.9588375  90.0507736 172.6198578  22.6629200
  90.5382080 173.4318237  23.2025642  91.0027237 171.4372559  22.4692497
  90.9215240 170.8580322  21.3993130  91.8096466 171.0799255  23.4711647
  91.7239914 171.6401520  24.3071747  92.7978516 169.8873138  23.3937435
  93.3532944 170.0915222  22.4783821  93.7683563 169.9244690  24.6600819
  94.2252350 170.9077301  24.5481262  93.1086731 169.9028015  25.5275192
  94.8227615 168.8813782  24.7279053  95.3068085 168.9777679  25.6997623
  94.4041138 167.8759460  24.6836319  95.9190445 168.9853363  23.6707535
  95.8201370 169.6248779  22.6289654  97.0710678 168.3453827  23.9343185
  97.8173065 168.4424286  23.2606659  97.1585770 167.7296295  24.7301159
  92.0922546 168.5387115  23.3160496  92.6719894 167.5294495  22.9225464
  90.8551636 168.4818726  23.8538113  90.3655396 169.3457489  24.0384502
  90.0583878 167.2960815  24.2888432  90.2766190 166.4575348  23.6275425
  90.4498520 166.9585876  25.7425442  89.7644119 166.1819611  26.0818481
  91.5010071 166.6736908  25.6977844  90.3559494 168.0993652  26.7682991
  90.8515930 169.0092926  26.4299259  89.3027496 168.3763733  26.8145885
  90.6638565 167.6274109  28.2205486  90.2711182 168.3386078  28.9472218
  90.2639618 166.6275940  28.3895206  92.1482086 167.5584106  28.4542332
  92.5380402 166.8885651  27.6877804  92.6145401 168.5395203  28.3644714
  92.4897766 166.8356628  29.7489662  92.1326523 165.8950348  29.8371429
  93.4878235 166.9122162  29.8836212  92.1633911 167.4188843  30.5062218
  88.5687866 167.5694580  24.1906414  88.0335541 168.6402740  24.5590191
  87.8561401 166.5216827  23.7664604  88.3526840 165.6918335  23.4751244
  86.3884430 166.4388580  23.8242283  86.0348053 166.7785797  24.7976913
  85.7083893 167.4052887  22.8022671  84.6643143 167.5751038  23.0652637
  86.2065506 168.3658905  22.9333420  85.7612228 167.0586853  21.3552246
  86.8431625 167.5915985  20.5961323  87.5050278 168.3550262  20.9775887
  87.0069885 167.2665253  19.2733803  87.7689514 167.6573944  18.6153202
  86.0946960 166.3768463  18.6720333  86.3490067 166.0581818  17.6719418
  84.9305267 166.0063934  19.3540649  84.1599960 165.4236603  18.8712521
  84.7692261 166.3766785  20.6773071  83.8617401 166.0907898  21.1883221
  85.8530884 165.0431213  23.7226429  86.6010742 164.1159058  23.4457703
  84.5745163 164.8580780  23.8295097  84.1045914 165.7045288  24.1172409
  83.8766708 163.6204071  23.6399155  84.5839920 162.9247589  23.1883755
  83.4015961 162.9821777  24.9588585  82.4693680 163.4463043  25.2807884
  83.1369324 161.9393463  24.7840939  84.3396301 163.0105743  26.0990124
  84.6901550 164.1244049  26.8006992  84.2455978 165.0884857  26.6024590
  85.6085968 163.8466034  27.7513294  86.0719299 164.4851837  28.3819065
  85.7866821 162.4503021  27.8328056  86.5543976 161.6540222  28.6843090
  87.0924530 162.1738434  29.4632053  86.6038895 160.2122498  28.4606361
  87.1302795 159.5611267  29.1428051  85.9109726 159.7108154  27.3456173
  85.8976898 158.6687622  27.0621529  85.1841965 160.5680237  26.4881725
  84.6636887 160.1085968  25.6608849  85.0925446 161.9582825  26.7138882
  82.7392654 163.7781830  22.6240005  81.9925842 164.7678680  22.7002792
  82.7114258 162.8962708  21.6628609  83.3132935 162.0859985  21.6988926
  81.6004944 162.7561035  20.6458015  80.9572296 163.6204071  20.8109741
  81.9009628 162.7332001  19.5982800  80.7642212 161.5154266  20.9468193
  81.1011047 160.3996429  20.6559162  79.6720123 161.7206268  21.6823101
  79.3880234 162.6865387  21.7628574  78.8414764 160.7299347  22.3124084
  79.3708267 159.7925568  22.4833870  78.3978348 161.2603302  23.6736393
  77.7378693 162.1225586  23.5781784  77.8337250 160.5190582  24.2396774
  79.4884033 161.7453613  24.6309490  80.1346588 162.4854126  24.1589527
  78.8763962 162.3747101  25.8955498  78.3097000 161.6280518  26.4518414
  79.6785431 162.6978760  26.5590496  78.2124176 163.1803894  25.5823021
  80.3833313 160.5917358  25.1584549  80.8301163 160.0753479  24.3088512
  81.1781387 161.0074310  25.7777920  79.7539597 159.9520874  25.7771988
  77.4985809 160.3775024  21.5879097  76.9244232 161.3903503  21.2259274
  77.1130829 159.1364899  21.2800961  77.6254501 158.3824463  21.7148304
  75.9893341 158.7915039  20.4414005  76.0245209 159.3995819  19.5374622
  76.0518951 157.2916260  19.9748707  75.0548096 157.1153870  19.5713158
  76.9999771 157.0832672  18.8791027  77.9984207 157.4783020  19.0666237
  77.0281601 156.0485840  18.5374336  76.6497803 157.6686096  18.0288982
  76.3758240 156.4644623  21.0971355  75.7670975 155.7221680  21.0885334
  74.7276993 159.0094299  21.2002907  74.5117493 158.5894928  22.3196659
  73.8684540 159.8389893  20.5584660  74.1431351 160.0853577  19.6182804
  72.6292648 160.3858795  21.0898113  72.8577728 160.5774231  22.1382351
  72.3043747 161.7424011  20.3555717  71.6746216 162.3550415  21.0007057
  73.2674942 162.2362213  20.2265682  71.6123199 161.5788727  19.0060978
  72.2222900 162.1307220  18.2909107  71.5505753 160.5252075  18.7338963
  70.1581039 162.1235657  19.0128689  69.9802551 163.0845642  19.4955292
  69.8339310 162.4610748  18.0284386  69.1689148 161.1688995  19.4753208
  68.9937973 161.1845703  20.4699001  68.5364990 160.1840820  18.8079376
  68.7431870 159.8786621  17.5869865  69.4143829 160.4072113  17.0482559
  68.0825500 159.2280121  17.1865940  67.5845261 159.5097351  19.4948273
  67.2325058 159.8075256  20.3934402  66.9494629 158.8937988  19.0075779
  71.4558945 159.3651428  21.1198769  70.5079956 159.4323273  21.8330288
  71.6740417 158.2352600  20.3617516  72.4698944 158.2732391  19.7410431
  70.9484482 156.9457703  20.4169083  69.8647995 157.0614319  20.3961620
  71.3455353 156.0782776  19.2335987  70.8908310 155.0877380  19.2201042
  70.9751282 156.6063385  18.3549404  72.7426071 155.8957214  19.3346958
  73.1182022 155.3332367  18.6534100  71.1804962 156.1919098  21.7676926
  70.2588348 155.7335815  22.3493576  72.4314041 156.2183380  22.3255978
  73.1151123 156.6682434  21.7338047  72.7823029 155.6010742  23.6562519
  72.1204987 154.7606812  23.8656654  74.2336655 155.0550995  23.5460644
  74.8907318 155.9078827  23.3753910  74.5699539 154.6500549  24.5004997
  74.3522949 154.3533020  22.7205334  72.5359421 156.5549774  24.8933544
  72.4620895 156.0450897  25.9862347  72.3153534 157.8001862  24.7142487
  72.5182571 158.2190857  23.8178978  71.9445648 158.7031403  25.8330383
  72.5310440 158.3823242  26.6939754  72.4453506 160.2113647  25.5138092
  71.9199524 160.4833679  24.5983448  72.1257095 160.8259430  26.3553734
  74.0000763 160.3704224  25.3918896  74.4060516 159.6101227  24.7246361
  74.2952499 161.7920837  24.8378696  73.8497162 162.4892426  25.5474987
  75.3798065 161.9008636  24.8419590  73.8418350 161.9226837  23.8552895
  74.6271439 160.2422638  26.7363987  74.5454178 159.2509308  27.1821404
  75.6834946 160.4818726  26.6147022  74.1758041 160.9553375  27.4262695
  70.4412003 158.7260437  26.2337875  69.5894547 158.5563202  25.4167271
  70.2262878 159.0166473  27.5354576  71.0213165 158.9725037  28.1568146
  68.8767624 159.2350769  28.1869678  68.1522675 159.3153687  27.3765564
  68.4686737 157.9609833  28.9157200  68.5353241 157.1060028  28.2429142
  69.1908722 157.8528137  29.7249432  67.0685959 157.9220886  29.5090866
  67.0171967 158.8471375  30.0833206  65.9436798 157.8273468  28.4796829
  66.0229492 156.9328613  27.8618546  64.9042206 157.8967133  28.8003445
  66.1470108 158.6000824  27.7383118  66.8064423 156.8162994  30.4743271
  67.4084396 156.9069061  31.3784752  65.7594299 156.8827209  30.7700520
  66.9133301 155.8195953  30.0462265  68.8591309 160.4755707  29.1220016
  69.6628342 160.5358429  30.0969048  67.8554306 161.3988953  29.0734215
  67.0624008 161.7068939  27.9272346  66.0753479 161.2690887  28.0760803
  67.4788208 161.2099304  27.0510368  67.0237045 163.2350616  27.7759495
  66.0363083 163.4641266  27.3750877  67.8180237 163.6405029  27.1492405
  67.1661682 163.8129730  29.1451797  66.1751099 164.1948700  29.3902397
  67.8899155 164.6251373  29.2137585  67.6853180 162.6158447  29.9681435
  68.6419220 162.9361267  30.3809624  66.8205185 162.2876740  31.1835175
  65.8988495 163.0159912  31.4696198  67.1663589 161.2690887  31.9965363
  68.0352936 160.7901611  31.8076267  66.4809875 160.9170837  33.2718124
  65.4092712 160.8168640  33.1001091  66.9801407 159.5359192  33.8565674
  66.9032440 158.8067017  33.0500755  68.0459671 159.6925659  34.0226707
  66.1791840 159.2367401  35.1691208  66.3427048 160.0510864  35.8749657
  65.1137085 159.2609100  34.9404602  66.5734863 158.0051727  35.8729134
  67.6560287 157.8793640  35.8535652  66.2003479 158.0494080  36.8961067
  65.8991470 156.8202515  35.2653694  65.6521759 156.8010254  34.2862206
  65.5755005 155.7784729  35.9912529  65.7455826 155.7355499  37.2512856
  66.0302582 156.5271912  37.8101654  65.5743790 154.8942719  37.7832985
  65.0892639 154.7044678  35.4253349  64.7950058 154.7584534  34.4606590
  64.5663071 154.0680389  36.0097847  66.7287216 162.0157471  34.3265228
  65.7377853 162.5510254  34.8345566  67.9137497 162.3401794  34.6435356
