Cpptraj Generated Restart                                                       
   37  4.0000001E-01
  84.5481949 153.8575592  14.2248163  84.8787613 152.7756195  13.3497458
  84.1887436 153.3623810  15.4010868  84.8315506 151.5374451  13.9033813
  84.0782776 152.1102448  16.1227303  84.4522934 151.0629730  15.2487249
  83.4981995 151.5456238  17.1969910  84.2058258 149.8860474  15.8870173
  84.3299484 150.4297943  17.1698837  82.2771912 150.9532318  16.9846859
  82.8740997 149.5176849  15.9840336  84.6993256 149.7268372  18.2868500
  81.7651520 149.5921021  16.9228477  84.2807083 150.0102234  19.4237080
  84.4406586 155.4947205  11.6798010  84.6398392 156.0170441  12.7316933
  84.6587143 155.2684174  13.9931307  84.8651199 157.4704132  12.7342710
  84.7997971 156.1697693  14.9401331  85.0743103 158.3258514  13.9008780
  84.9769363 157.3236542  15.0200863  85.3225479 159.5122070  13.9002724
  84.8980865 157.9880371  11.8639030  85.3637466 152.9880829  12.0689354
  85.7663040 152.0004883  11.2917891  85.0782166 148.4795837  17.8636551
  85.4605026 147.4053040  18.7813759  85.5994034 146.2524872  17.9800282
  84.3404999 147.1483765  19.6895390  86.7525711 147.6882019  19.3560181
  81.4074173 150.1890106  15.7854910  80.3992386 150.3766174  14.8789082
  80.6033859 150.3146973  13.4659233  79.0019073 150.5812378  15.2625999
  79.6709290 150.2578735  12.6757898  78.1501541 150.4303436  14.3810377
  78.5047836 150.4539642  13.1749477
