default_name
 29232
  46.1250338  47.5207564  42.9219404  45.6085761  48.3745649  42.7657883
  47.0953100  47.6816583  42.6922124  45.8751737  47.1513653  43.8281521
  45.6550338  46.5157564  41.9479404  46.4949032  46.2063616  41.3258525
  45.0600338  45.2567564  42.6419404  45.8464278  44.7459916  43.1976408
  44.2832642  45.5859738  43.3321179  44.4200338  44.2117564  41.7299404
  45.2020338  43.2817564  41.0449404  46.2848944  43.3082610  41.1666383
  44.6130338  42.3207564  40.2079404  45.2377254  41.5986066  39.6822402
  43.2420338  42.2907564  40.0509404  42.7845547  41.5520116  39.3928607
  42.4510338  43.1957564  40.7269404  41.3683639  43.1681882  40.6037903
  43.0370338  44.1507564  41.5719404  42.4086956  44.8569409  42.1147060
  44.6410338  47.1317564  40.9739404  43.7870338  47.9277564  41.3959404
  44.7580338  46.7627564  39.6729404  45.5611382  46.2019737  39.4266775
  43.8770338  47.2277564  38.5949404  43.5863060  48.2621338  38.7783526
  44.5990338  47.1517564  37.2269404  45.5959846  47.5685435  37.3700376
  44.6784283  46.0851686  37.0167337  43.9190338  47.8517564  36.0539404
  42.8310338  48.4437564  36.2559404  44.4880338  47.8327564  34.9429404
  42.5220338  46.4667564  38.5999404  42.4110338  45.3597564  38.0599404
  41.4930338  47.0987564  39.2069404  41.7291123  47.9734383  39.6533683
  40.1330338  46.5717564  39.3829404  40.1184773  45.5879838  39.8520659
  39.2840338  47.5287564  40.2259404  38.2633213  47.1465816  40.2396714
  39.7950338  47.6637564  41.6559404  40.8156015  48.0463459  41.6430361
  39.1559101  48.3535601  42.2071126  39.7794591  46.6880195  42.1415281
  39.2280338  48.8017564  39.5769404  38.6968728  49.4052899  40.1015504
  39.4240338  46.2067564  38.0709404  38.3540338  45.5877564  38.0979404
  40.0110338  46.5777564  36.9339404  40.8437094  47.1482024  36.9705757
  39.4610338  46.2437564  35.6299404  38.3724720  46.2251235  35.6827153
  39.8800338  47.2757564  34.5929404  39.3942396  47.0472739  33.6443103
  39.5721997  48.2659157  34.9289804  41.2860338  47.2517564  34.4209404
  41.5394221  47.9057634  33.7654489  39.9150338  44.8327564  35.2249404
  39.1460338  44.1297564  34.5909404  41.1320338  44.4087564  35.6309404
  41.7164693  45.0924998  36.0903200  41.7040338  43.0867564  35.3389404
  41.8839617  43.0081747  34.2667697  43.0340338  42.8507564  36.0799404
  42.7970695  43.0175205  37.1307196  43.2661873  41.7973760  35.9231143
  44.2330338  43.6957564  35.6919404  43.9301579  44.7405439  35.6227584
  45.3020338  43.5567564  36.7159404  45.6057744  42.5122373  36.7853689
  46.1599414  44.1659281  36.4313263  44.9251882  43.8900569  37.6828936
  44.7980338  43.2827564  34.3509404  44.0336585  43.3991038  33.5826350
  45.6550753  43.9109530  34.1081437  45.1130824  42.2401832  34.3943496
  40.7600338  41.8777564  35.5799404  40.7030338  41.0197564  34.6939404
  40.0280338  41.7307564  36.7179404  39.9340338  42.5827564  37.9219404
  39.1834889  43.3576400  37.7659337  40.8999517  43.0477011  38.1192424
  39.5450338  41.6177564  38.9779404  39.0283418  42.1397400  39.7833357
  40.4334487  41.1267477  39.3750938  38.6520338  40.6367564  38.3059404
  37.6146542  40.9711189  38.3179518  38.7240079  39.6601082  38.7845609
  39.1560338  40.5487564  36.8559404  39.7858788  39.6658728  36.7468073
  38.0170338  40.4957564  35.8239404  37.8520338  39.4677564  35.1839404
  37.3060338  41.6247564  35.6159404  37.5637857  42.3768323  36.2388732
  36.1670338  41.8357564  34.6949404  35.3273397  41.2000729  34.9758664
  35.7030338  43.3297564  34.7479404  34.6917210  43.3718744  34.3434992
  35.7130338  43.9147564  36.1369404  36.7241756  43.8734072  36.5418876
  35.3802024  44.9519414  36.0973219  35.0419665  43.3425903  36.7775613
  36.5510338  44.1417564  33.9399404  36.2551675  45.0540659  33.9818320
  36.4280338  41.3907564  33.2209404  35.4870338  41.0377564  32.5049404
  37.7020338  41.4317564  32.7849404  38.3744656  41.7897150  33.4481149
  38.1610338  41.1217564  31.4299404  37.3472694  41.2593270  30.7179284
  39.3090338  42.0527564  31.0449404  39.5602668  41.8760968  29.9991046
  38.9740461  43.0826012  31.1686460  40.4540338  41.8287564  31.8499404
  41.1549814  42.4279871  31.5831166  38.5510338  39.6397564  31.1919404
  38.9210338  39.2807564  30.0699404  38.4500338  38.7947564  32.2299404
  38.2743511  39.2454950  33.1165461  38.6990338  37.3477564  32.2219404
  38.9995142  37.0144063  33.2152623  37.4250338  36.6007564  31.8199404
  37.1081764  37.0144166  30.8625555  37.5278763  35.5192151  31.7316694
  36.3140338  36.8457564  32.7779404  36.1470338  36.0587564  33.8979404
  35.1240338  36.5797564  34.5569404  34.8227434  36.0923316  35.4841621
  34.6350338  37.6487564  33.9339404  33.8542109  38.2266689  34.2104048
  35.4010338  37.8427564  32.8059404  35.1967250  38.6865746  32.1469033
  39.9130338  36.9037564  31.3729404  39.8070338  35.9967564  30.5469404
  41.0740338  37.5377564  31.6209404  41.0392267  38.2956423  32.2876463
  42.3420338  37.2747564  30.9329404  42.2321875  37.4819485  29.8684666
  43.4460338  38.1557564  31.4869404  43.2598399  38.2801834  32.5536873
  44.3884913  37.6275900  31.3423234  43.5230338  39.5047564  30.8319404
  43.9197779  39.3841473  29.8238985  42.5198435  39.9277089  30.7788128
  44.5970338  40.6317564  31.7649404  46.2540338  39.7067564  31.7269404
  46.5708558  39.5701561  30.6929853  47.0060832  40.2852876  32.2634327
  46.1380702  38.7328736  32.2025514  42.8010338  35.8347564  30.9469404
  43.4570338  35.4197564  29.9919404  42.4820338  35.0747564  32.0349404
  42.0192531  35.5463517  32.7988326  42.8340338  33.6477564  32.2019404
  43.9143751  33.5268894  32.1222344  42.3780338  33.1217564  33.5849404
  42.7174589  32.0915344  33.6923299  42.8756006  33.7468463  34.3264187
  40.8830338  33.1837564  33.7959404  40.2770338  34.3277564  34.2969404
  40.9037685  35.1794128  34.5614865  38.8960338  34.4007564  34.4639404
  38.4361090  35.3115778  34.8473142  38.1070338  33.3187564  34.1239404
  36.7510338  33.3667564  34.3049404  36.4512864  34.2002607  34.6751049
  38.6880338  32.1727564  33.6149404  38.0677818  31.3224552  33.3314343
  40.0690338  32.1067564  33.4649404  40.5327598  31.1979658  33.0813289
  42.2340338  32.8137564  31.0659404  42.7820338  31.7837564  30.6929404
  41.1120338  33.3037564  30.5049404  40.7890767  34.1708605  30.9098214
  40.3440338  32.7247564  29.3989404  40.1795989  31.6585708  29.5548522
  38.9780338  33.4297564  29.3429404  38.9380507  33.9947086  30.2742458
  39.0595944  34.1198565  28.5031727  37.7230338  32.6107564  29.1989404
  37.6245169  32.3300305  28.1503279  37.7410338  31.3577564  30.0589404
  37.8390688  31.6377166  31.1078018  36.8124299  30.8051076  29.9161999
  38.5845316  30.7305429  29.7704701  36.5540338  33.4347564  29.5949404
  36.4931728  34.3127524  28.9518864  35.6424340  32.8460501  29.4924132
  36.6666606  33.7515441  30.6317913  41.0990338  32.9467564  28.0949404
  40.7920338  32.3117564  27.0819404  42.0870338  33.8387564  28.1539404
  42.2539515  34.2808922  29.0465511  42.9300338  34.2127564  27.0319404
  43.9306283  34.4508604  27.3927954  42.9863513  33.3829933  26.3273690
  42.3650338  35.4147564  26.3279404  41.1590338  35.6767564  26.4129404
  43.2390338  36.1747564  25.6579404  44.2241897  35.9613150  25.7212648
  42.8270338  37.3247564  24.8439404  41.8881098  37.7279277  25.2233792
  43.8860338  38.4237564  24.8949404  43.5667977  39.2504556  24.2603098
  43.9830417  38.7721952  25.9231816  45.1390338  37.9357564  24.4409404
  45.7901349  38.6400996  24.4805378  42.6430338  36.7797564  23.4069404
  42.5990338  35.5547564  23.2199404  39.9570338  37.0097564  21.3019404
  40.2197570  37.7176676  20.6311665  38.6280338  36.4137564  21.1949404
  38.7250239  35.4062712  20.7903844  37.9120338  36.3307564  22.5559404
  38.0263675  37.2930406  23.0549757  36.8548837  36.1425902  22.3685180
  38.4640338  35.2477564  23.4289404  38.4309325  34.3273844  22.8459134
  39.5018558  35.5094597  23.6351902  37.5950338  34.9927564  24.9899404
  36.3800338  33.9317564  24.4989404  36.8301971  33.0249495  24.0950181
  35.7531047  33.6761397  25.3531773  35.7702424  34.4073209  23.7307646
  37.7990338  37.2067564  20.2089404  37.9280338  38.4317564  20.1369404
  22.3820338  25.3357564  28.4099404  21.5853904  24.9364618  28.8853585
  23.6500338  24.6317564  28.4809404  23.7547199  24.0107836  27.5912591
  24.8510338  25.5807564  28.5599404  24.5823215  26.3707746  29.2611994
  25.6870091  25.0080601  28.9615176  25.2560338  26.2037564  27.2199404
  24.3611051  26.5829109  26.7265385  26.2150338  27.3087564  27.4159404
  27.1104770  26.9302563  27.9089089  26.4849695  27.7321621  26.4484885
  25.7587781  28.0809327  28.0353554  25.9070338  25.1827564  26.3059404
  25.2068901  24.3704958  26.1106687  26.1813169  25.6594498  25.3648594
  26.8012826  24.7837230  26.7846787  23.6220338  23.5837564  29.5919404
  23.2920338  23.8927564  30.7359404  23.8870338  22.3127564  29.2399404
  24.2180338  21.7877564  27.9009404  24.9644927  22.4306306  27.4344512
  23.3182005  21.7712186  27.2860213  24.7380338  20.4187564  28.1849404
  25.8220996  20.4682512  28.2871692  24.4816884  19.7647667  27.3514623
  24.1010338  19.9577564  29.4299404  24.7271261  19.3005215  30.0333885
  23.1874208  19.4328735  29.1508187  23.7550338  21.2247564  30.2259404
  22.7003449  21.2188797  30.5010676  24.6030338  21.2907564  31.4799404
  24.2300338  20.6597564  32.4609404  25.7270338  22.0017564  31.4669404
  26.0656981  22.4652453  30.6359266  26.5800338  21.9937564  32.6509404
  26.1703408  21.3171532  33.4009129  27.9800338  21.5227564  32.2839404
  28.3847269  22.0357775  31.4115116  28.6405377  21.6807235  33.1365136
  28.0200338  20.0697564  31.9789404  27.6110338  19.5837564  30.7549404
  27.7410338  18.2707564  30.8309404  27.4655252  17.6851455  29.9538693
  28.2070338  17.8947564  32.0239404  28.4046664  16.9580822  32.3459382
  28.3790338  19.0347564  32.7669404  28.7451713  18.9675288  33.7914037
  26.6290338  23.2997564  33.4259404  27.3980338  23.3927564  34.3749404
  25.7910338  24.2867564  33.0639404  25.1890322  24.1506134  32.2644665
  25.7070338  25.5507564  33.7849404  26.6776852  25.8080254  34.2089072
  25.2070338  26.7457564  32.9289404  24.1728391  26.5637619  32.6366758
  25.2890338  28.0407564  33.7209404  26.3230729  28.2236759  34.0131810
  24.9345170  28.8671131  33.1048618  24.6683900  27.9613295  34.6134617
  25.9780338  26.8887564  31.6259404  25.8640740  25.9805013  31.0341737
  25.5895826  27.7385873  31.0646982  27.0338472  27.0498188  31.8436967
  24.7250338  25.2437564  34.8769404  23.6430338  24.7147564  34.6009404
  25.1000338  25.5227564  36.1109404  26.0558829  25.7896410  36.2986223
  24.2100338  25.3057564  37.2409404  23.2071450  25.0924077  36.8710817
  24.6730338  24.1277564  38.1119404  25.6419986  24.4656643  38.4793975
  23.9524095  24.1345483  38.9297145  24.8050338  22.7007564  37.5579404
  23.8498246  22.2229487  37.7756007  24.9117755  22.8240854  36.4802121
  26.1520338  21.6507564  38.1749404  25.9450338  21.6147564  39.9659404
  24.9685375  21.1970418  40.2110291  26.7256844  20.9971729  40.4100980
  26.0155799  22.6282661  40.3608108  24.0190338  26.6057564  38.0279404
  23.0930338  26.6877564  38.8319404  24.8580338  27.6377564  37.7519404
  25.6619646  27.4473911  37.1709450  24.7350338  28.9737564  38.3569404
  24.3922317  28.9259955  39.3905287  26.0110338  29.8547564  38.2979404
  25.7872780  30.8138378  38.7650545  27.1800338  29.2027564  39.0159404
  27.4046921  28.2437691  38.5490648  28.0538749  29.8511212  38.9517107
  26.9216067  29.0448333  40.0630208  26.3750338  30.2497564  36.8689404
  25.5539951  30.8144191  36.4271785  27.2744401  30.8654318  36.8795173
  26.5569282  29.3518468  36.2783699  23.5450338  29.7417564  37.7789404
  23.0020338  29.4037564  36.7089404  23.1820338  30.8007564  38.5069404
  23.7452220  30.9416438  39.3334204  22.1260338  31.7567564  38.2219404
  21.4233007  31.3411170  37.4997844  21.3720338  32.0757564  39.5069404
  21.0943859  31.1252005  39.9624120  22.0629664  32.6045763  40.1634933
  20.1440338  32.9077564  39.3009404  20.3941917  33.7652191  38.6762167
  19.3839734  32.3055995  38.8031278  19.4970338  33.4927564  40.8789404
  19.5230338  31.8877564  41.8759404  20.5442911  31.5110026  41.9324121
  19.1505227  32.0785360  42.8823893  18.8893049  31.1465971  41.3889376
  22.7740338  33.0297564  37.7119404  23.7100338  33.5607564  38.3289404
  22.2600338  33.5257564  36.6039404  21.5140627  33.0322712  36.1347936
  22.7640338  34.7357564  36.0019404  23.6974855  35.0404283  36.4751657
  23.0320338  34.4727564  34.5109404  23.6237744  33.5582803  34.4700041
  22.0439988  34.2846771  34.0908059  23.7220338  35.5557564  33.7109404
  23.1649380  36.4835986  33.8407633  25.1370338  35.7587564  34.1499404
  25.6949144  34.8314075  34.0199708  25.5950225  36.5448644  33.5496226
  25.1540434  36.0481766  35.2006768  23.7570338  35.1787564  32.3059404
  22.7389994  35.0505586  31.9381489  24.2545041  35.9603905  31.7317691
  24.3038524  34.2425156  32.1939514  21.7500338  35.8547564  36.2109404
  20.5450338  35.6287564  36.0749404  25.1420338  40.8567564  34.2739404
  25.3660086  41.7321674  33.8227305  26.2480338  40.0477564  34.8179404
  27.0092486  40.6980979  35.2488780  25.7210338  39.1047564  35.9229404
  25.3208167  39.7536296  36.7019713  24.9075891  38.5391766  35.4684878
  26.7360338  38.1347564  36.5379404  27.1978531  37.5856020  35.7174203
  27.4971769  38.7140613  37.0605962  26.1330338  37.1377564  37.5099404
  24.9240338  37.1037564  37.7649404  26.9830338  36.3057564  38.0909404
  26.6427621  35.6184667  38.7481690  27.9679235  36.3620768  37.8743264
  26.9400338  39.2677564  33.7019404  26.2660338  38.6817564  32.8569404
  28.2870338  39.2867564  33.7049404  28.6989810  39.8919835  34.4007127
  29.1800338  38.5877564  32.7749404  28.7836632  38.5419086  31.7605995
  30.5190338  39.3297564  32.7439404  30.8311434  39.4856129  33.7766052
  31.6000338  38.5857564  31.9989404  31.2888192  38.4299254  30.9660020
  32.5210342  39.1684677  32.0164019  31.7721920  37.6206991  32.4755183
  30.3130338  40.6087564  32.1509404  31.1450694  41.0868886  32.1243553
  29.3210338  37.1177564  33.2029404  29.5670338  36.8377564  34.3749404
  29.1610338  36.1897564  32.2659404  28.9333709  36.4903902  31.3289835
  29.2590338  34.7597564  32.5279404  29.5101215  34.5919509  33.5752682
  27.9140338  34.0627564  32.2249404  27.1973653  34.4801514  32.9322359
  27.6442220  34.3661558  31.2133820  27.8950338  32.5407564  32.3209404
  28.8121415  32.1569113  31.8740877  27.7990338  32.0717564  33.7559404
  26.8818854  32.4548491  34.2033525  27.7881284  30.9821381  33.7826554
  28.6578174  32.4398674  34.3172652  26.7360338  31.9897564  31.5879404
  26.7992681  32.2770546  30.5383878  26.7386869  30.9026535  31.6673223
  25.8141265  32.3826014  32.0167279  30.3800338  34.1597564  31.6699404
  30.2260338  34.0307564  30.4449404  31.5150338  33.7707564  32.2799404
  31.8870338  33.8277564  33.7079404  31.3345028  33.0670829  34.2594706
  31.6467128  34.8126069  34.1084582  33.3890338  33.5597564  33.6849404
  33.5732245  32.6149020  34.1962358  33.8866132  34.3665313  34.2231137
  33.8450338  33.5077564  32.2569404  34.5719541  32.7004405  32.1679073
  34.2774545  34.4298159  31.8684583  32.5830338  33.1567564  31.4779404
  32.5870963  33.6018013  30.4829445  32.3470338  31.6517564  31.3609404
  31.9170338  31.0197564  32.3319404  32.5490338  31.0897564  30.1619404
  32.7859954  31.6536576  29.3582216  32.3610338  29.6587564  29.9699404
  32.2759773  29.1710385  30.9410201  31.0940338  29.3687564  29.1649404
  31.2200737  29.8643696  28.2023498  31.1225697  28.2883809  29.0232560
  29.7610338  29.7637564  29.7649404  29.7514525  30.8400757  29.9368295
  28.6600338  29.4017564  28.8459404  28.6686851  28.3254501  28.6739268
  27.7067809  29.6907969  29.2885070  28.7921297  29.9218765  27.8971906
  29.5130338  29.0407564  31.0339404  30.3011211  29.2787965  31.7483316
  28.5490875  29.3435857  31.4428453  29.5061599  27.9671597  30.8456805
  33.5500338  29.0107564  29.2969404  34.2210338  29.6287564  28.4699404
  33.8090338  27.7597564  29.6639404  33.2836137  27.3700328  30.4334523
  34.8530338  26.9467564  29.0599404  35.1667008  27.4023356  28.1207068
  36.0810338  26.8277564  29.9839404  36.2155165  27.7935667  30.4709970
  35.8503274  26.0718569  30.7346004  37.3710338  26.4417564  29.2499404
  37.3242722  25.3717145  29.0476424  37.4499250  26.9858297  28.3087377
  38.6010338  26.7227564  30.0729404  38.7560338  27.7907564  30.6829404
  39.5280338  25.7807564  30.0799404  40.3747198  25.9136931  30.6143112
  39.3854753  24.9322975  29.5508885  34.1810338  25.6067564  28.7639404
  33.9950338  24.7847564  29.6619404  33.7140338  25.4447564  27.5229404
  33.8166291  26.2062310  26.8674024  32.9910338  24.2457564  27.0879404
  32.6520335  23.6786503  27.9548709  31.7650338  24.6457564  26.2529404
  32.1925424  24.9101986  25.2857765  31.1551743  23.7485728  26.1469545
  30.8920338  25.7997564  26.7579404  31.5354126  26.5775780  27.1692288
  30.0730338  26.3697564  25.6349404  29.4290193  25.5925850  25.2234204
  29.4591420  27.1880588  26.0112633  30.7358513  26.7427898  24.8541591
  29.9810338  25.3577564  27.8709404  30.5779857  24.9875868  28.7044404
  29.3772094  26.2019535  28.2038497  29.3270326  24.5630849  27.5119439
  33.9030338  23.2737564  26.2959404  34.6810338  23.7037564  25.4439404
  33.7850338  21.9657564  26.5839404  33.1678493  21.7219228  27.3453390
  34.5840338  20.8997564  25.9669404  34.9019062  21.2140532  24.9728208
  35.8300338  20.5847564  26.8029404  36.2765888  19.6401955  26.4923078
  36.5565695  21.3877625  26.6787347  35.5630338  20.4697564  28.2819404
  35.5730338  21.5967564  29.0959404  35.8021374  22.5683405  28.6581781
  35.2930338  21.4937564  30.4639404  35.2891892  22.3881426  31.0869647
  35.0210338  20.2567564  31.0259404  34.8114427  20.1730703  32.0923213
  35.0160338  19.1297564  30.2319404  34.8070381  18.1538713  30.6701975
  35.2800338  19.2397564  28.8599404  35.2650970  18.3509880  28.2290938
  33.7860338  19.6167564  25.6549404  34.3280338  18.7257564  25.0069404
  32.5000338  19.5357564  26.0649404  32.1078783  20.2674932  26.6401575
  31.6620338  18.3817564  25.7449404  32.2726323  17.4789962  25.7620450
  30.5230338  18.2187564  26.7459404  29.8726459  19.0934157  26.7540643
  29.9435112  17.3382672  26.4684655  30.9750338  18.0067564  28.1609404
  31.6520338  16.8597564  28.5379404  31.8820338  16.9887564  29.8339404
  32.4162222  16.1797133  30.3321280  31.3960338  18.1327564  30.3049404
  31.4396168  18.4808242  31.2520672  30.8030338  18.7867564  29.2509404
  30.3196063  19.7506394  29.4100904  31.1310338  18.5717564  24.3239404
  30.5960338  19.6497564  24.0139404  27.6960338  20.3807564  23.8069404
  26.8453189  19.9987647  23.4190412  27.6880338  21.7817564  24.2639404
  26.6563309  22.1272051  24.3299217  28.3510338  21.9457564  25.6439404
  29.4217073  21.8463359  25.4654103  28.1281354  22.9667574  25.9537362
  27.9300338  20.9837564  26.7359404  26.8484235  20.9143491  26.8517097
  28.3240563  20.0172470  26.4217671  28.5550338  21.3777564  28.0589404
  29.8070338  21.3977564  28.1469404  27.7900338  21.7607564  28.9739404
  28.4750338  22.6177564  23.2519404  28.0490338  23.7197564  22.8999404
  29.6230338  22.0807564  22.7849404  29.9845832  21.2536727  23.2380562
  30.4480338  22.7327564  21.7789404  30.6514950  23.7714254  22.0394580
  31.7980338  22.0027564  21.5629404  31.5989288  20.9435970  21.3997298
  32.5450338  22.5697564  20.3619404  32.7449168  23.6288502  20.5246307
  33.4879871  22.0377870  20.2356547  31.9373058  22.4488013  19.4652029
  32.6620338  22.0847564  22.8249404  32.1363139  21.6161726  23.6568958
  33.6057134  21.5666940  22.6541193  32.8598248  23.1298443  23.0632069
  29.6380338  22.9497564  20.4779404  29.5330338  24.0907564  20.0329404
  21.3510338  32.2127564  24.7429404  20.8620818  33.0493775  25.0277043
  20.9810338  30.9477564  25.3699404  20.2133224  30.4631017  24.7667587
  22.1830338  29.9927564  25.4969404  21.7918453  29.0997283  25.9843535
  22.5773758  29.7274673  24.5160143  23.3610338  30.4577564  26.3259404
  24.3830338  31.2077564  25.7529404  24.3165334  31.4804889  24.6997099
  25.4900338  31.6127564  26.5139404  26.2690533  32.2237331  26.0579395
  25.5940338  31.2357564  27.8479404  26.4625606  31.5317174  28.4363010
  24.5920338  30.4837564  28.4269404  24.6584215  30.2030169  29.4780723
  23.4850338  30.0797564  27.6599404  22.7076783  29.4612617  28.1085858
  20.3050338  31.2637564  26.7329404  20.2990338  32.4177564  27.1769404
  19.7520338  30.6717564  30.8759404  18.7885182  30.9720279  30.9156137
  20.4020338  30.2717564  32.1159404  20.8322900  29.2737399  32.0326226
  21.5150338  31.2557564  32.5659404  21.0683497  32.2381861  32.7189258
  22.1750338  30.7927564  33.8559404  22.6223749  29.8105255  33.7035947
  22.9496617  31.5035271  34.1437895  21.4266503  30.7319863  34.6460864
  22.5560338  31.4427564  31.4769404  22.0790055  31.8434950  30.5825385
  23.3223495  32.1371186  31.8214997  23.0152590  30.4821126  31.2437527
  19.2660338  30.1737564  33.1269404  18.5690338  31.1677564  33.3619404
  18.4570338  22.2187564  42.4999404  18.4292881  21.6979191  43.3648438
  19.5270338  21.9267564  41.5499404  19.2776118  22.1791114  40.5193072
  20.8780338  22.5987564  41.9119404  20.7219881  23.6772342  41.9371316
  21.4190338  22.1297564  43.2659404  21.5757805  21.0513652  43.2413668
  22.3655434  22.6293520  43.4723970  20.7013260  22.3743122  44.0490047
  21.9130338  22.4357564  40.7899404  21.5354509  22.8961223  39.8769254
  22.8451350  22.9197025  41.0816308  22.0944401  21.3755429  40.6134754
  19.6460338  20.4137564  41.2809404  19.8620338  20.0377564  40.1249404
  16.8450338  19.3547564  39.1519404  16.1781503  18.5978458  39.1024218
  16.9450338  20.2707564  38.0079404  17.6166070  21.0913889  38.2602318
  17.4930338  19.5517564  36.7559404  16.7068213  18.8824117  36.4067316
  17.6752980  20.3203542  36.0048497  18.7760338  18.7527564  36.9889404
  19.0272296  18.8272858  38.0469796  18.5707174  17.7122873  36.7372042
  19.9390338  19.2527564  36.1579404  20.5693458  18.4076327  35.8812248
  19.5545273  19.7291988  35.2561328  20.7520338  20.2237564  36.8909404
  20.4502677  20.4617673  37.8249572  21.8530338  20.7997564  36.4129404
  22.2810338  20.5187564  35.1869404  21.7680104  19.8641045  34.6139327
  23.1174501  20.9610859  34.8335962  22.5310338  21.6677564  37.1559404
  22.2089767  21.8907291  38.0868875  23.3653885  22.1006488  36.7864068
  15.6190338  21.0187564  37.7249404  15.1620338  21.0947564  36.5769404
  29.2070338  37.6027564  23.8389404  29.4060327  36.7463927  23.3418087
  29.8580338  38.8347564  23.3879404  29.4092486  39.1527560  22.4468946
  29.7040338  39.9707564  24.4149404  29.8669483  40.9490760  23.9627801
  28.6435064  39.8435368  24.6321885  30.4980338  39.8707564  25.7009404
  31.8050338  40.3427564  25.7709404  32.2645896  40.7428536  24.8671538
  32.5240338  40.3117564  26.9619404  33.5669631  40.6281417  26.9792845
  31.9130338  39.8767564  28.1259404  32.6340338  39.8777564  29.2969404
  33.5327731  40.1956681  29.1838054  30.5950338  39.4517564  28.0949404
  30.1094899  39.0974713  29.0042421  29.8880338  39.4787564  26.8909404
  28.8373340  39.1895132  26.8692996  31.3140338  38.6147564  22.9669404
  31.8020338  39.3367564  22.0999404  31.9900338  37.6167564  23.5749404
  31.4884910  37.1453921  24.3141088  33.3580338  37.1807564  23.2749404
  33.7386043  37.6113504  22.3487363  34.2970338  37.5537564  24.4039404
  33.9341026  37.1220694  25.3366929  35.2942058  37.1691119  24.1899385
  34.3392985  38.6388167  24.4985828  33.3130338  35.6627564  23.0839404
  32.6220338  34.9807564  23.8359404  34.0140338  35.1477564  22.0569404
  34.5939918  35.7973539  21.5453046  33.9840338  33.7487564  21.6189404
  33.7328205  33.0733645  22.4367648  32.8790338  33.6537564  20.5429404
  31.9165160  33.8773867  21.0029927  33.1528162  34.4610779  19.8636943
  32.7790338  32.3567564  19.7699404  32.0570338  31.2797564  20.2709404
  31.6138644  31.3660177  21.2630389  31.8940338  30.1107564  19.5359404
  31.3100902  29.2850394  19.9425153  32.5120338  29.9807564  18.3049404
  32.3610338  28.8027564  17.5989404  31.8147051  28.1590263  18.0558168
  33.2320338  31.0457564  17.7829404  33.7243307  30.9515708  16.8150182
  33.3250338  32.2377564  18.4989404  33.8332778  33.0975214  18.0623716
  35.3370338  33.2717564  21.0429404  35.9950338  34.0327564  20.3469404
  35.7230338  32.0077564  21.2849404  35.1962880  31.4327616  21.9268276
  36.9750338  31.4697564  20.7339404  37.0662771  31.8004401  19.6993283
  38.2290338  31.9277564  21.5109404  38.0578532  32.9494935  21.8498353
  38.3445786  31.2734567  22.3750245  39.5050338  31.8787564  20.6579404
  39.5628039  30.8906793  20.2013586  39.4133185  32.6342279  19.8775859
  40.7590338  32.1357564  21.4629404  40.6156050  33.0126001  22.0943455
  40.9765816  31.2699602  22.0883757  41.9030338  32.3757564  20.5789404
  41.7136964  32.4157482  19.5876527  43.1550338  32.5527564  20.9939404
  43.4490338  32.5007564  22.2899404  42.7174771  32.3257875  22.9639661
  44.4025108  32.6364759  22.5941797  44.1260338  32.7717564  20.1159404
  43.9127012  32.8039862  19.1292538  45.0737795  32.9051650  20.4385531
  36.9790338  29.9607564  20.6069404  36.7370338  29.2567564  21.5889404
  39.0960338  26.4307564  19.7839404  38.3192820  25.8786842  19.4493180
  40.4250338  25.8207564  19.7979404  40.9991884  26.2509960  18.9773677
  41.2060338  26.0317564  21.1089404  40.5506666  25.6544634  21.8939519
  42.0807900  25.3868241  21.0254899  41.6470338  27.4367564  21.4529404
  42.5995363  27.5580930  20.9370749  40.9529778  28.2082488  21.1194964
  41.8630338  27.5637564  22.9499404  42.9870338  27.2587564  23.4169404
  40.8760338  27.8637564  23.6649404  40.2350338  24.3417564  19.6329404
  39.1840338  23.7877564  19.9439404  42.4720338  20.9267564  20.5559404
  42.0637298  20.2654460  19.9109166  43.5790338  20.4917564  21.3719404
  44.5096997  20.4878190  20.8045386  43.7170338  21.4817564  22.5309404
  42.8645830  22.1579383  22.4660949  43.6481547  20.8981025  23.4489294
  45.0000338  22.2867564  22.5399404  45.8319183  21.5840930  22.5882414
  45.0546109  22.8501509  21.6084324  45.0780338  23.2447564  23.7159404
  44.0220338  23.7887564  24.1329404  46.2100338  23.4517564  24.2149404
  43.2210338  19.1747564  21.9769404  42.0460338  18.8887564  22.1599404
  44.2240338  18.3957564  22.3429404  45.1421750  18.6727114  22.0260619
  44.0900338  17.1237564  23.0549404  45.0042339  16.5405090  22.9446689
  43.8430338  17.3677564  24.5429404  42.8022844  17.6724954  24.6528229
  44.0007320  16.4217988  25.0610094  44.7410338  18.4227564  25.1389404
  46.1220338  18.2527564  25.1739404  46.5481883  17.3316107  24.7764703
  46.9570338  19.2347564  25.7049404  48.0384937  19.0991103  25.6928416
  46.4070338  20.3747564  26.2739404  47.2050338  21.3437564  26.8509404
  48.1407752  21.1337222  26.8076574  45.0350338  20.5617564  26.2419404
  44.5967912  21.4669825  26.6621900  44.2140338  19.5897564  25.6709404
  43.1349175  19.7395028  25.6365283  43.0460338  16.1667564  22.5019404
  42.4710338  15.3857564  23.2469404  40.2330338  17.0127564  21.0489404
  40.5900097  16.8313225  20.1217137  38.8760338  17.5677564  21.1779404
  38.1660692  17.0454022  20.5366951  38.3500338  17.5587564  22.6559404
  37.4445335  18.1621563  22.7198013  38.0420338  16.1417564  23.0829404
  38.9472242  15.5378176  23.0197832  37.6772479  16.1424138  24.1100877
  37.2792259  15.7218307  22.4272838  39.3220338  18.2467564  23.6399404
  40.2636024  17.7061394  23.5435939  39.4463516  19.2619498  23.2630757
  38.9270338  18.2947564  25.0569404  38.8029698  17.2798495  25.4346598
  39.6994641  18.8043593  25.6329228  37.9857172  18.8356583  25.1541412
  38.7060338  18.9377564  20.5669404  39.6760338  19.6477564  20.3109404
  37.4450338  19.2907564  20.3299404  36.7323183  18.5979106  20.5091065
  37.0290338  20.5997564  19.8379404  37.8952079  21.1104513  19.4171883
  35.9390338  20.4967564  18.7479404  35.1328106  19.8948467  19.1672350
  35.5795318  21.5098918  18.5678988  36.3990338  19.8837564  17.4389404
  37.3781425  20.2778514  17.1666609  36.4790046  18.8136243  17.6300453
  35.4270338  20.1217564  16.3049404  34.2730338  19.6447564  16.4039404
  35.8010338  20.8307564  15.3409404  36.4960338  21.2837564  21.0829404
  35.6430338  20.7307564  21.7949404  37.0790338  22.4287564  21.3969404
  37.8498994  22.7291670  20.8176140  36.7810338  23.1907564  22.5939404
  35.8549540  22.8430316  23.0517207  37.9040338  23.0257564  23.5909404
  38.1974018  21.9760748  23.5766634  39.1160338  23.8937564  23.3009404
  38.8235238  24.9436732  23.3155086  39.8786786  23.7190334  24.0598501
  39.5170076  23.6424276  22.3190268  37.3490338  23.3757564  24.8369404
  38.0179950  23.2912765  25.5202810  36.4420338  24.6547564  22.3039404
  36.9190338  25.2297564  21.3249404  35.5970338  25.2467564  23.1339404
  35.1397241  24.7110958  23.8578429  35.1760338  26.6197564  22.9239404
  35.9340948  27.2244829  22.4261969  33.8790338  26.6727564  22.0919404
  34.0068850  26.0452020  21.2099377  32.6890338  26.1817564  22.8929404
  32.5602584  26.8091505  23.7749237  31.7906533  26.2318943  22.2777176
  32.8594639  25.1507329  23.2028528  33.6210338  28.0647564  21.5539404
  34.4517406  28.3683708  20.9168795  32.6990195  28.0650378  20.9725720
  33.5263935  28.7641325  22.3846131  35.0980338  27.3847564  24.2449404
  34.7780338  26.8157564  25.2949404  35.4860338  28.6577564  24.1919404
  35.8137321  28.9994878  23.2997897  35.5040338  29.5687564  25.3299404
  35.0942684  29.0687543  26.2075448  36.9350338  30.0137564  25.6439404
  37.3839957  30.3872136  24.7235805  36.8869152  30.8190613  26.3769266
  37.7760338  28.8837564  26.1919404  37.3698724  28.6027469  27.1636232
  37.6937270  28.0401838  25.5065844  39.2310338  29.2677564  26.3459404
  39.6337096  29.5200404  25.3649695  39.2977943  30.1371060  27.0000610
  40.0270338  28.1297564  26.9389404  39.5051328  27.7707927  27.8259945
  40.0830037  27.3286889  26.2018805  41.4020338  28.5567564  27.3119404
  41.3503988  29.2987457  27.9952306  41.9034279  27.7724585  27.7038342
  41.8859559  28.8890163  26.4900391  34.6240338  30.7467564  24.9779404
  34.6920338  31.2367564  23.8569404  33.7120338  31.1217564  25.8719404
  33.5550149  30.5372739  26.6805346  32.7990338  32.2437564  25.6379404
  33.2283812  32.9600661  24.9374688  31.3620338  31.8637564  25.1469404
  30.8115089  32.7865869  24.9641690  31.3900338  31.0347564  23.8819404
  31.9400330  30.1114851  24.0640718  30.3700463  30.7960537  23.5806981
  31.8802292  31.5985301  23.0882343  30.5420338  31.1677564  26.2149404
  30.4359298  31.8248762  27.0780960  29.5555975  30.9282373  25.8178589
  31.0440548  30.2489322  26.5179880  32.7440338  33.1817564  26.8389404
  33.1000338  32.7947564  27.9659404  32.3130338  34.4207564  26.5709404
  32.2053452  34.6458223  25.5922434  32.0340338  35.4627564  27.5559404
  32.0049219  35.0049579  28.5447135  33.0920338  36.5877564  27.5639404
  33.4029817  36.7418706  26.5306643  32.5995135  37.4875187  27.9326566
  34.3290338  36.2867564  28.4329404  34.0474683  36.5055629  29.4629625
  34.5302843  35.2204009  28.3305386  35.5950338  37.0857564  28.0659404
  36.4198738  36.6618091  28.6386590  35.7751130  36.9316724  27.0020189
  35.4940338  38.5607564  28.3489404  34.5575312  38.9325762  27.9332321
  35.4962518  38.7099311  29.4286817  36.6260338  39.2967564  27.7479404
  36.6239064  39.1590093  26.7473801  36.5338471  40.2815345  27.9524246
  37.4938918  38.9526652  28.1333269  30.6610338  35.9487564  27.1519404
  30.4530338  36.3367564  25.9969404  29.6930338  35.7427564  28.0299404
  29.8934550  35.2761091  28.9029644  28.3160338  36.1137564  27.7469404
  28.2680961  36.6232140  26.7845194  27.4280338  34.8727564  27.6869404
  27.4584892  34.3568143  28.6466155  26.4025293  35.1694469  27.4669051
  27.7883786  34.2049939  26.9044162  27.8180338  37.0917564  28.7939404
  28.4630338  37.2807564  29.8229404  23.9660338  41.1057564  41.7519404
  23.9098743  41.3192907  42.7375106  25.0130338  40.2057564  41.3009404
  24.5669206  39.2112405  41.3054412  25.4040338  40.5557564  39.8759404
  25.8605699  41.5453513  39.8565276  26.1166344  39.8200648  39.5030349
  24.5159520  40.5534374  39.2439558  26.2560338  40.1537564  42.2089404
  27.0350338  39.2057564  42.0959404  26.4430338  41.1447564  43.1059404
  25.8311937  41.9481636  43.0889703  27.5930338  41.1687564  44.0069404
  28.2235778  40.2990229  43.8223409  28.4220338  42.4267564  43.7849404
  29.3690410  42.3603885  44.3205446  28.6156766  42.5748440  42.7225504
  27.6230338  43.9417564  44.3649404  28.6077791  44.7626048  44.0108459
  27.2070338  40.9767564  45.4929404  28.0350338  41.1837564  46.3859404
  26.6070338  38.4687564  48.4469404  27.4460338  39.4017564  49.2289404
  26.8155000  40.1891812  49.6418443  28.1958207  39.8439355  48.5728944
  28.0630338  38.5237564  50.3049404  27.4510504  38.5588249  51.2062426
  29.0690618  38.8741778  50.5356220  28.0980338  37.1427564  49.7199404
  28.0580792  36.3851671  50.5026031  28.9844508  36.9836520  49.1058962
  26.8370338  37.0607564  48.8499404  27.0306656  36.4892557  47.9422004
  25.6560338  36.4367564  49.6039404  25.7210338  36.2497564  50.8209404
  18.3580338  34.7757564  46.2209404  17.4365306  34.3845383  46.3546545
  18.7250338  35.2527564  44.8789404  18.9444510  36.3193983  44.9261677
  19.9660338  34.5177564  44.3289404  19.9479674  33.5170022  44.7605234
  19.8307871  34.4498495  43.2494975  21.3050338  35.1767564  44.6319404
  21.3553573  36.1060767  44.0645497  21.3327763  35.4007762  45.6983116
  22.4980338  34.2907564  44.2659404  23.3286871  34.5632748  44.9169764
  22.2148506  33.2550062  44.4533655  22.9350338  34.4137564  42.8689404
  22.6463605  33.6820887  42.2353558  23.7070338  35.3947564  42.3989404
  24.0920338  36.3897564  43.1939404  23.7979546  36.4027968  44.1600912
  24.6765974  37.1274542  42.8276250  24.0680338  35.4087564  41.1219404
  23.7563869  34.6730351  40.5041294  24.6527573  36.1550661  40.7737752
  17.5630338  35.0747564  43.9109404  17.3080338  35.9757564  43.1229404
  30.0210338  28.8727564  57.3319404  30.5265155  28.9682037  58.2011225
  30.2290338  27.6817564  56.5479404  30.6753280  27.9321360  55.5855316
  31.1740338  26.7507564  57.2949404  32.1783450  27.1732448  57.3259534
  30.8188394  26.5844044  58.3119281  31.3410338  25.1227564  56.5529404
  32.1986157  24.6476584  57.4516803  28.8570338  27.0557564  56.3769404
  28.2560338  26.6897564  57.3759404  28.3450338  26.9457564  55.1289404
  28.8706248  27.3280703  54.3558365  27.0160338  26.3617564  54.8519404
  26.2479057  26.9581794  55.3442391  26.7240338  26.3337564  53.3419404
  26.9631335  27.3280359  52.9646620  27.4116352  25.6067060  52.9098501
  25.2870338  25.9717564  52.9519404  25.0827496  24.9699742  53.3298308
  24.6213966  26.6854056  53.4374648  25.0530338  26.0037564  51.4389404
  25.9591002  25.6357262  50.9575920  24.2257255  25.3289465  51.2191863
  24.7290338  27.3867564  50.9139404  23.7450887  27.6744054  51.2843600
  25.4771086  28.0832781  51.2925442  24.7280338  27.4207564  49.4269404
  24.0346189  26.7757277  49.0759225  24.5089881  28.3549676  49.1117128
  25.6398150  27.1546593  49.0835072  26.8780338  24.9687564  55.4369404
  25.7840338  24.6017564  55.8639404  27.9900338  24.2217564  55.4979404
  28.8335823  24.6165260  55.1071946  28.0370338  22.8617564  56.0049404
  27.1603861  22.3103261  55.6650691  29.2870338  22.1477564  55.5019404
  29.4113875  22.3770843  54.4436190  30.1453514  22.5246374  56.0581344
  29.1870338  20.6537564  55.6839404  29.3498213  20.4718548  56.7462553
  28.1908553  20.3099847  55.4054598  30.1960338  19.8737564  54.9059404
  30.8440338  20.3567564  53.9679404  30.3100338  18.6187564  55.2519404
  30.9712852  18.0241442  54.7731039  29.7363593  18.2492747  55.9965760
  27.9610338  22.7757564  57.5089404  27.2960338  21.8757564  58.0109404
  33.1320338  32.2817564  59.1269404  32.8682846  33.0938774  59.6663801
  34.2930338  32.3817564  58.2489404  35.1830760  32.0235194  58.7662318
  34.0840338  31.5527564  56.9329404  33.0193247  31.5579581  56.6995571
  34.8730338  32.1237564  55.7409404  35.9379419  32.1184458  55.9734125
  34.6914500  31.5115093  54.8576050  34.5492106  33.1462247  55.5465275
  34.5030338  30.0787564  57.1289404  34.6029445  29.6651057  56.1254407
  35.4821351  30.1120042  57.6068052  33.6090338  29.2387564  57.9129404
  32.6297962  29.2046469  57.4354155  34.0180244  28.2302710  57.9744463
  33.5089849  29.6515471  58.9167800  34.6750338  33.8337564  57.9969404
  35.8560338  34.1367564  57.9509404  33.7010338  34.7227564  57.7789404
  32.7578039  34.3909570  57.6363720  33.9810338  36.1467564  57.5479404
  34.6497483  36.5441894  58.3114632  34.5920338  36.4317564  56.1609404
  35.4365096  35.7561814  56.0247079  33.6010338  36.2377564  55.0269404
  32.7564419  36.9133724  55.1622449  34.0891260  36.4529431  54.0763828
  33.2451403  35.2074941  55.0270064  35.1170338  37.7577564  56.1559404
  35.5005740  37.9468134  55.2964320  32.7630338  36.9847564  57.8559404
  31.7000338  36.4607564  58.1529404  35.1640338  43.5727564  50.1379404
  34.6396187  42.8764560  49.6277897  35.7310338  44.6937564  49.3949404
  35.0952034  45.5707617  49.5161042  37.1400338  45.0347564  49.9039404
  37.4142440  46.0282693  49.5492007  37.1442748  45.0247075  50.9938858
  38.2360338  44.1007564  49.4599404  38.4330338  42.8787564  50.0919404
  37.7912969  42.6033764  50.9288630  39.4430338  42.0037564  49.6649404
  39.5648300  41.0349401  50.1493589  40.2790338  42.3677564  48.6359404
  41.0760675  41.6983014  48.3124175  40.1060338  43.5847564  48.0129404
  40.7760635  43.8768423  47.2043328  39.0780338  44.4427564  48.4129404
  38.9309830  45.3933024  47.9001653  35.7090338  44.3897564  47.8859404
  35.8910338  43.2367564  47.4809404  35.4680338  45.4197564  47.0639404
  35.2297074  46.3190380  47.4571230  35.3950338  45.2567564  45.6169404
  35.0360799  44.2558282  45.3773701  34.4370338  46.2777564  45.0069404
  34.9356895  47.2466594  44.9810802  34.2000627  45.9644188  43.9901984
  33.2370338  46.3827564  45.7619404  32.6578267  47.0304632  45.3537801
  36.7770338  45.2807564  44.9499404  37.3210338  46.3507564  44.6819404
  37.3490338  44.0917564  44.6939404  36.8974599  43.2494528  45.0205976
  38.6460338  43.9687564  44.0189404  39.2914662  44.7999675  44.3028494
  39.3330338  42.6567564  44.4169404  39.2163081  42.6048209  45.4994269
  38.7797471  41.8403462  43.9527765  40.8150338  42.5367564  44.0579404
  40.9644711  43.0214758  43.0931521  41.7200338  43.1727564  45.0859404
  41.5714884  42.6882190  46.0509568  42.7590459  43.0564543  44.7776735
  41.4837444  44.2333285  45.1722801  41.1860338  41.1337564  43.9039404
  40.5899560  40.6848767  43.1093980  42.2433130  41.0629036  43.6485155
  41.0023247  40.6041022  44.8387218  38.4780338  44.0627564  42.4869404
  39.4560338  44.1847564  41.7509404  37.2270338  44.0177564  42.0259404
  36.5147377  43.9074545  42.7334481  36.8070338  44.1227564  40.6309404
  37.6672716  44.3011075  39.9857420  36.1450338  42.8157564  40.2099404
  36.9256278  42.0557157  40.1766173  35.4207218  42.5583001  40.9827201
  35.4940338  42.8777564  38.9559404  35.1021287  42.0244309  38.7563266
  35.8030338  45.2757564  40.5349404  35.2160338  45.6637564  41.5499404
  35.6020338  45.8217564  39.3319404  36.1817873  45.5347132  38.5563171
  34.6230338  46.8917564  39.1099404  34.7026993  47.6321336  39.9059267
  34.8720338  47.5887564  37.7649404  34.9163531  46.7541128  37.0652940
  34.0252840  48.2277279  37.5142807  36.1690338  48.4007564  37.6739404
  36.9522875  47.8644683  38.2096731  36.5870338  48.6027564  36.2499404
  35.8044276  49.1394262  35.7136457  37.5098948  49.1820234  36.2203087
  36.7514107  47.6340335  35.7780754  36.0560338  49.7357564  38.4009404
  35.8374307  49.5591838  39.4540948  36.9965942  50.2793572  38.3118026
  35.2531574  50.3247141  37.9575249  33.1810338  46.3487564  39.1969404
  32.2560338  47.0837564  39.5609404  33.0130338  45.0397564  38.9209404
  33.8295814  44.5521050  38.5810207  31.7480338  44.3137564  38.9799404
  30.9974965  44.8085046  38.3634850  31.9530338  42.9017564  38.4559404
  32.8026146  42.4259094  38.9457172  31.0594929  42.2970642  38.6109631
  32.2980338  42.8407564  36.6829404  32.4101196  41.5175773  36.6085629
  31.1160338  44.2987564  40.3639404  29.9130338  44.0247564  40.5009404
  31.9480338  44.5767564  41.3629404  32.8948007  44.8102082  41.0998204
  31.6080338  44.5707564  42.7719404  31.7770305  45.5631010  43.1900212
  30.5586498  44.3009383  42.8906445  32.4630338  43.5677564  43.5209404
  33.4140338  43.0207564  42.9559404  32.1490338  43.3037564  44.8039404
  31.0810338  43.8967564  45.6419404  30.1580372  43.9475555  45.0643618
  31.3768213  44.9019206  45.9423632  30.9810338  42.9647564  46.7989404
  30.2878770  42.1532019  46.5775538  30.6452481  43.4958921  47.6895830
  32.3750338  42.4587564  46.9739404  32.3898819  41.4905217  47.4743402
  32.9736599  43.1703057  47.5426619  32.9340338  42.3207564  45.5599404
  33.9731553  42.6454759  45.5062547  32.8250338  40.8767564  45.0629404
  33.7340338  40.1107564  45.2909404  31.7240338  40.5007564  44.4099404
  30.9785376  41.1742623  44.3063802  31.5100338  39.1387564  43.8959404
  32.3884771  38.5223281  44.0868664  30.3070338  38.5057564  44.5969404
  30.3848382  38.7571164  45.6547040  29.4133359  38.9689145  44.1787435
  30.2170338  37.0197564  44.4429404  30.0131321  36.7704733  43.4016033
  31.1577884  36.5615953  44.7481800  28.8830338  36.3817564  45.4779404
  27.4440338  36.8417564  44.5139404  27.4962057  36.3680851  43.5336279
  26.5411293  36.5126789  45.0283061  27.4182853  37.9246898  44.3927237
  31.3170338  39.0937564  42.3669404  30.7140338  40.0047564  41.7849404
  31.8340338  38.0157564  41.7279404  32.3531299  37.3666178  42.3017502
  31.7560338  37.7597564  40.2809404  30.7784920  38.1032338  39.9425109
  32.8300338  38.5507564  39.5479404  33.8148015  38.2117962  39.8695592
  32.7261607  38.3966065  38.4739067  32.7193996  39.6111614  39.7746573
  31.8750338  36.2677564  39.9279404  32.4670338  35.4927564  40.6769404
  31.3250338  35.8737564  38.7729404  30.8105605  36.5383720  38.2128487
  31.4230338  34.4957564  38.2969404  31.4509647  33.7935131  39.1301111
  30.2350338  34.1567564  37.4169404  30.1989243  34.8457794  36.5731137
  30.3351423  33.1360422  37.0478590  29.3160990  34.2444895  37.9965618
  32.7280338  34.3297564  37.5079404  33.0060338  35.1397564  36.6099404
  33.5350338  33.3127564  37.8739404  33.2693703  32.7854298  38.6933602
  34.7680338  32.9487564  37.1879404  34.8406941  33.4994550  36.2500967
  35.9890338  33.2817564  38.0459404  35.9018944  32.6140233  38.9030509
  36.8929998  33.0390250  37.4873467  36.0640338  34.7157564  38.5289404
  36.5540338  35.7257564  37.7049404  36.8859608  35.4702784  36.6986328
  36.6240338  37.0457564  38.1479404  36.9952364  37.8291434  37.4871716
  36.2230338  37.3587564  39.4359404  36.2620338  38.6487564  39.8989404
  36.5871968  39.2722022  39.2453472  35.7690338  36.3657564  40.2809404
  35.4598504  36.6088498  41.2975090  35.7070338  35.0517564  39.8309404
  35.3735925  34.2607822  40.5027117  34.7330338  31.4327564  36.8699404
  34.0150338  30.6977564  37.5599404  35.4690338  30.9697564  35.8119404
  35.9569583  31.6534734  35.2510838  35.5320338  29.5517564  35.3999404
  34.9349738  28.8924806  36.0299991  35.2220338  29.2327564  33.9159404
  35.9969659  28.5604741  33.5476797  33.8700338  28.5887564  33.7339404
  33.0944980  29.2606863  34.1015754  33.7029566  28.3861675  32.6760447
  33.8343792  27.6534351  34.2925139  35.4410338  30.4167564  32.9929404
  36.4817588  30.7355790  33.0507822  35.2065231  30.1277181  31.9684595
  34.7923856  31.2388330  33.2955069  36.8500338  28.9397564  35.6929404
  37.8900338  29.5027564  35.3369404  36.8180338  27.7047564  36.1909404
  35.9482961  27.3089011  36.5179789  38.0420338  26.9517564  36.4069404
  38.8716205  27.6317520  36.6005665  37.8780338  26.0377564  37.5999404
  38.8443341  25.6330950  37.9009587  37.5184977  26.7257148  38.3651510
  36.9070338  24.9117564  37.4769404  36.4320338  24.5307564  36.4019404
  36.6900338  24.2907564  38.5989404  36.0479584  23.5115636  38.6253487
  37.1646183  24.5906276  39.4385520  38.4480338  26.2217564  35.0909404
  37.7020338  26.3327564  34.1079404  39.5790338  25.4717564  35.0059404
  40.6230338  25.2067564  36.0139404  40.3731329  24.3092596  36.5797577
  40.7047551  26.0539380  36.6948985  41.8090338  25.0377564  35.1969404
  42.5576778  24.4554666  35.7341273  42.2263754  26.0092763  34.9322208
  41.3320338  24.3257564  33.9979404  41.2901572  23.2490443  34.1623676
  41.9845747  24.5383524  33.1511270  39.9400338  24.8597564  33.7249404
  39.9463060  25.6670724  32.9926154  39.0250338  23.7437564  33.2409404
  39.2430338  23.2147564  32.1389404  38.0140338  23.3637564  34.0659404
  37.9655068  23.7775775  34.9859929  37.0710338  22.2887564  33.7359404
  37.3127423  21.8893912  32.7509614  37.1350338  21.1397564  34.7629404
  36.6897566  21.4069873  35.7212802  36.5885849  20.3018530  34.3300300
  38.5210338  20.6427564  35.0569404  39.1410338  20.9177564  36.2549404
  40.3390338  20.3597564  36.1829404  40.9902886  20.4462640  37.0527005
  40.5280338  19.7747564  35.0129404  41.3464000  19.2759948  34.6941716
  39.3860338  19.9647564  34.2769404  39.3248891  19.5836104  33.2575827
  35.6690338  22.8267564  33.5649404  34.7070338  22.0667564  33.6159404
  35.5630338  24.1257564  33.3139404  36.4050685  24.6834792  33.3092265
  34.2900338  24.7907564  33.0439404  34.5425262  25.7459581  32.5835747
  33.7723138  24.1637442  32.3180472  33.3710338  25.0397564  34.2259404
  32.2800338  25.6027564  34.0549404  33.8030338  24.6517564  35.4379404
  34.6527865  24.1122089  35.5210561  33.0050338  24.8697564  36.6339404
  31.9533126  24.7209323  36.3893325  33.3850338  23.9097564  37.7679404
  33.5135994  22.9254356  37.3177375  34.3267316  24.2309222  38.2130897
  32.3230338  23.8387564  38.8359404  31.2650338  22.9437564  38.7339404
  31.2209814  22.2793307  37.8709820  30.2720338  22.8857564  39.7089404
  29.4561036  22.1688028  39.6176322  30.3340338  23.7277564  40.8059404
  29.3620338  23.6837564  41.7749404  28.6816569  23.0310030  41.5943863
  31.3720338  24.6367564  40.9209404  31.4212809  25.3085450  41.7778974
  32.3560338  24.6907564  39.9359404  33.1710855  25.4097493  40.0186453
  33.0720338  26.3237564  37.0609404  34.1620338  26.8777564  37.2579404
  31.8800338  26.9397564  37.1599404  31.0662552  26.4012954  36.8993189
  31.6980338  28.3447564  37.5039404  32.6127344  28.9078144  37.3185009
  30.5170338  29.0207564  36.7639404  29.5917116  28.5119931  37.0341979
  30.4180338  30.4927564  37.1479404  31.3428783  31.0023170  36.8775493
  29.5829075  30.9515047  36.6185872  30.2574317  30.5784228  38.2226345
  30.6070338  28.8637564  35.2379404  31.0407555  29.7748459  34.8257485
  31.2609160  28.0195136  35.0193275  29.2670338  28.6277564  34.6219404
  28.6126956  29.4718542  34.8397485  29.3762331  28.5224156  33.5425526
  28.8328549  27.7165224  35.0333296  31.5640338  28.4947564  38.9909404
  30.6440338  27.9287564  39.5949404  32.4830338  29.2947564  39.5649404
  33.1605186  29.7070680  38.9395503  32.5600338  29.6247564  40.9799404
  31.8234090  29.0433089  41.5343788  33.9730338  29.3007564  41.5409404
  34.7785070  29.7008144  40.9250947  34.0034209  29.7670072  42.5257180
  34.2720338  27.8447564  41.7459404  33.5690338  27.0847564  42.6609404
  34.1050338  25.8757564  42.6139404  33.6676827  25.1112061  43.2560352
  35.1180338  25.8187564  41.7569404  35.6974357  25.0237545  41.5281060
  35.2510338  27.0787564  41.2099404  36.0444606  27.2793776  40.4899916
  32.3110338  31.1057564  41.1359404  33.1520338  31.8927564  40.7079404
  31.1850338  31.5067564  41.7379404  30.4819145  30.8429699  42.0296767
  30.9580338  32.9297564  42.0189404  31.3124084  33.5181862  41.1726140
  29.4790338  33.2457564  42.2489404  29.1411762  32.5477038  43.0148869
  29.4496652  34.2608960  42.6448307  28.5710338  33.1487564  41.0429404
  28.5844596  34.0832320  40.4819806  28.9422283  32.3413347  40.4117638
  27.1560338  32.8407564  41.4739404  26.9390338  31.7637564  42.0809404
  26.2690338  33.6907564  41.2319404  31.7410338  33.2037564  43.3039404
  31.3820338  32.6767564  44.3659404  32.8520338  33.9637564  43.1839404
  33.1281568  34.2533726  42.2565905  33.7560338  34.2457564  44.2949404
  33.4249072  33.7128813  45.1862868  35.2150338  33.8257564  43.9799404
  35.7560067  33.7835246  44.9252790  35.3160338  32.4847564  43.2799404
  34.7756512  32.5263600  42.3342368  36.3636454  32.2518433  43.0892557
  34.8815210  31.7105661  43.9123394  35.8260338  34.7937564  43.1609404
  36.7284355  34.5277558  42.9698509  33.6610338  35.6887564  44.7799404
  33.6350338  36.6297564  43.9709404  33.6250338  35.8237564  46.1289404
  33.6538822  34.9334938  46.6050701  33.5530338  37.0397564  46.9369404
  33.2276085  37.8828978  46.3275881  32.5350338  36.8327564  48.0749404
  31.5740589  36.6948448  47.5793531  32.8352605  35.8990909  48.5505796
  32.4080338  37.9337564  49.1419404  33.3974928  38.3484679  49.3345181
  31.4810338  39.0357564  48.6809404  30.4911865  38.6218671  48.4885949
  31.4106670  39.7997075  49.4552323  31.8720395  39.4812367  47.7661933
  31.8510338  37.3647564  50.4169404  32.5161041  36.5852252  50.7885747
  31.7670452  38.1557185  51.1622096  30.8654884  36.9401472  50.2258744
  34.9290338  37.3337564  47.5239404  35.5440338  36.4737564  48.1529404
  35.4070338  38.5527564  47.3099404  34.8848795  39.1444593  46.6795898
  36.7040338  39.0207564  47.7819404  37.3742671  38.1965478  48.0260034
  37.3900338  39.9197564  46.7259404  38.1373878  40.5282438  47.2351608
  38.0560338  39.1157564  45.6299404  37.3091769  38.5073222  45.1199285
  38.5226775  39.7927415  44.9143748  38.8165189  38.4674151  46.0651605
  36.4480338  40.8437564  46.1499404  36.8935756  41.3906624  45.4987978
  36.5810338  39.6607564  49.1769404  35.7940338  40.5997564  49.3569404
  37.3220338  39.1067564  50.1669404  37.7948502  38.2408802  49.9506019
  37.3510338  39.5877564  51.5529404  37.0342113  40.6280981  51.6265064
  36.5040338  38.7437564  52.5299404  36.6810490  39.1060815  53.5426029
  35.0210338  38.8417564  52.2089404  34.8431593  38.4791499  51.1965284
  34.4548509  38.2356106  52.9161353  34.7004632  39.8808642  52.2837142
  36.9560338  37.2917564  52.5669404  37.9963494  37.2426109  52.8885461
  36.3332290  36.7345272  53.2667328  36.8628679  36.8562186  51.5720898
  38.7900338  39.7587564  52.0339404  39.6490338  38.9887564  51.6159404
  39.0620338  40.7787564  52.8669404  38.3164231  41.4100964  53.1230144
  40.4110338  41.0547564  53.3719404  41.1284324  40.9685429  52.5558486
  40.5050338  42.4597564  53.9569404  39.5954167  42.4740202  54.5573507
  41.3710297  42.5828092  54.6073320  40.4640338  43.5897564  52.9539404
  41.4540338  43.7197564  51.9779404  42.2323431  42.9591111  51.9166812
  41.4600338  44.7997564  51.0889404  42.2144040  44.8609760  50.3045427
  40.5080338  45.8017564  51.2159404  40.4950338  46.8667564  50.3449404
  41.1899433  46.8195213  49.6842822  39.5540338  45.7257564  52.2199404
  38.8189981  46.5217653  52.3390739  39.5370338  44.6247564  53.0799404
  38.7886055  44.5617212  53.8698655  40.8920338  40.0637564  54.4189404
  42.0770338  39.7217564  54.4409404  39.5710338  36.4017564  56.6149404
  40.2875940  36.5509078  57.3109251  38.6860338  35.2397564  56.7649404
  37.6340296  35.5029555  56.8749973  38.8300338  34.3017564  55.5799404
  39.8769500  34.0219973  55.4624610  38.2320929  33.4063856  55.7498756
  38.4845951  34.8024676  54.6754739  39.1160338  34.5477564  58.0419404
  40.1490338  34.9317564  58.5779404  38.3720338  33.5427564  58.5469404
  37.4954036  33.2243327  58.1593516  38.7660338  33.0477564  59.8319404
  39.7808190  33.3781581  60.0536268  37.8420338  33.5577564  60.9199404
  36.8705607  33.8403740  60.5143958  37.7051035  32.8135394  61.7044729
  38.4920338  35.0317564  61.7359404  37.4752295  35.1833293  62.5797608
  38.9880338  31.5787564  59.9639404  40.1640338  31.2167564  60.1089404
  37.9570338  30.7347564  60.0739404  36.9831614  31.0021613  60.0868417
  38.2970338  29.3427564  60.3599404  39.1944064  29.3179165  60.9781674
  37.2010338  28.6297564  61.0809404  36.3240619  28.7610520  60.4470785
  37.4108691  27.5661600  61.1942183  36.9080338  29.2017564  62.4219404
  37.5540338  28.8597564  63.4269404  35.8590338  30.0127564  62.4679404
  35.5943993  30.4419699  63.3430656  35.3299342  30.1971940  61.6276207
  38.7390338  28.5877564  59.1479404  38.2550338  27.4927564  58.8929404
  39.6920338  29.1607564  58.4089404  39.9842915  30.0993890  58.6405730
  40.2090338  28.5617564  57.2039404  39.5856118  27.7102777  56.9311251
  40.2200338  29.5577564  56.0329404  40.8583065  30.3935354  56.3196121
  40.6670610  29.0327472  55.1887650  38.8330338  30.0867564  55.6309404
  38.4447662  30.7073657  56.4385252  38.9160338  30.8707564  54.4179404
  39.3038118  30.2506518  53.6097342  37.9238699  31.2351582  54.1516270
  39.5830459  31.7179998  54.5772326  37.8440338  28.9587564  55.3609404
  37.7281665  28.3534728  56.2599988  36.8788081  29.3804729  55.0805911
  38.2168918  28.3345481  54.5488813  41.5470338  27.9137564  57.4239404
  42.3270338  28.3457564  58.2949404  41.7500338  26.8047564  56.6989404
  40.9853967  26.5595825  56.0863074  42.9480338  25.9967564  56.6569404
  43.7183778  26.4584812  57.2745807  42.6860338  24.5997564  57.1749404
  41.7108489  24.3154653  56.7796024  43.4546727  23.9627215  56.7373553
  42.6800338  24.3917564  58.6639404  42.7160338  25.3147564  59.4969404
  42.6400338  23.1377564  59.0229404  42.6327379  22.8963965  60.0036503
  42.6165577  22.4144519  58.3183979  43.2730338  25.8987564  55.1979404
  42.3650338  25.7197564  54.3799404  44.5610338  26.0027564  54.8599404
  45.2328291  26.1246439  55.6042078  45.0510338  25.9447564  53.4909404
  44.2211502  26.0694923  52.7953591  46.0830338  27.0727564  53.2379404
  46.9366332  26.7970642  53.8571827  46.3621403  27.0090466  52.1862082
  45.6570338  28.5037564  53.5659404  45.2891419  28.5354461  54.5914901
  46.7670338  29.4117564  53.4259404  47.1351971  29.3809622  52.4004618
  46.4411585  30.4242508  53.6641863  47.5656308  29.1179136  54.1071156
  44.5220338  28.9657564  52.6679404  43.6616155  28.3102943  52.8026591
  44.2444525  29.9870668  52.9286605  44.8445503  28.9318486  51.6273000
  45.7100338  24.6077564  53.2869404  46.1180338  23.9767564  54.2669404
  45.8190338  24.1807564  52.0189404  45.3790906  24.7411480  51.3030420
  46.4790338  22.9487564  51.6209404  47.2382114  22.6853354  52.3573900
  45.4780338  21.8057564  51.5239404  46.0178220  20.8889085  51.2870486
  44.9806933  21.6953091  52.4875554  44.5110338  22.0567564  50.5199404
  43.8936538  21.3227138  50.4796515  47.1920338  23.1377564  50.2979404
  46.6740338  23.7887564  49.3749404  48.3860338  22.5727564  50.2169404
  48.7440891  22.0400118  50.9967346  49.2130338  22.6937564  49.0269404
  49.9637998  21.9035683  49.0341778  48.5828204  22.5873692  48.1439839
  49.9130338  24.0397564  48.9749404  49.6970338  24.9077564  49.8359404
  50.7700338  24.2157564  47.9669404  50.9579185  23.4569106  47.3274471
  51.5590338  25.4337564  47.8439404  51.5524168  25.9805280  48.7868594
  53.0320338  25.0787564  47.4849404  53.0181319  24.6829765  46.4694286
  53.5907073  26.0145409  47.5020120  53.7180338  24.0447564  48.4379404
  53.2354313  23.0845037  48.2559782  54.7639013  23.9881434  48.1361818
  53.6340338  24.3867564  49.9459404  54.2899243  25.2379095  50.1288202
  52.6040271  24.6690061  50.1639331  54.0240338  23.2867564  50.8489404
  55.0153454  23.1689040  51.0022751  53.1800338  22.4527564  51.4639404
  51.8700338  22.5577564  51.2719404  51.5085826  23.2727463  50.6569261
  51.2413175  21.9221329  51.7418320  53.6420338  21.5107564  52.2749404
  54.6365568  21.4237620  52.4280941  52.9972579  20.8846314  52.7357334
  50.8960338  26.4107564  46.8599404  50.1310338  25.9327564  46.0149404
  51.0930338  27.7607564  46.9399404  51.9250338  28.5467564  47.8679404
  52.9708038  28.4809182  47.5677225  51.8128594  28.1574336  48.8798414
  51.3710338  29.9317564  47.7239404  52.1524954  30.6578833  47.9478971
  50.5430783  30.0633209  48.4205622  50.9140338  30.0497564  46.3439404
  51.7310953  30.3399923  45.6834310  50.1004139  30.7692983  46.2523889
  50.4170338  28.6487564  45.9729404  49.3445733  28.5621776  46.1473845
  50.7230338  28.3167564  44.5149404  51.7590338  27.6967564  44.2069404
  49.7640338  28.6667564  43.6359404  48.9290837  29.0812480  44.0247261
  49.8310338  28.4707564  42.1909404  50.8660189  28.3138681  41.8871459
  49.0180338  27.2607564  41.7819404  49.4481013  26.3628599  42.2257005
  47.9895384  27.3774004  42.1235416  49.0360338  27.1447564  40.3729404
  48.5216433  26.3785991  40.1083555  49.3100338  29.7017564  41.4839404
  48.4430338  30.3887564  42.0219404  49.8670338  30.0137564  40.3059404
  50.6461310  29.4616188  39.9769253  49.4440338  31.1737564  39.5019404
  48.7022104  31.7757548  40.0267215  50.6030338  32.0687564  39.1069404
  50.2471325  32.7642308  38.3468418  51.1570338  32.8417564  40.2739404
  51.5135819  32.1469045  41.0343047  51.9842023  33.4664609  39.9368413
  50.3750063  33.4723846  40.6968373  51.6220338  31.2817564  38.4879404
  52.3558729  31.8478668  38.2377414  48.7110338  30.6907564  38.2899404
  48.1180338  31.4877564  37.5639404  48.7200338  29.3707564  38.1069404
  49.2806296  28.8298578  38.7497937  48.0850338  28.6807564  36.9989404
  48.4341040  29.1044544  36.0572774  48.4260338  27.1637564  37.0179404
  47.9465968  26.7559498  37.9078467  47.9625136  26.7372397  36.1283717
  49.9140338  26.8127564  37.0349404  50.3729198  27.3559475  37.8610566
  49.9106603  25.7461317  37.2594385  50.7080338  27.0597564  35.7639404
  51.0290338  28.2357564  35.4689404  51.0610338  26.0617564  35.0929404
  46.5680338  28.9257564  36.9699404  45.8490338  28.4817564  37.8609404
  46.1090338  29.6537564  35.9419404  46.8235595  30.0823486  35.3710979
  44.7130338  29.9757564  35.6609404  44.6478871  30.5525726  34.7383689
  43.8730338  28.6817564  35.4969404  44.4753807  27.8693938  35.0903147
  43.5125537  28.4053252  36.4877683  42.6620338  28.8007564  34.6169404
  41.3770338  28.7397564  35.1409404  40.5590338  28.8377564  34.1069404
  39.4877017  28.8081238  34.3056067  41.2320338  28.9597564  32.9659404
  40.8540643  29.0599138  32.0347007  42.5760338  28.9257564  33.2749404
  43.3197060  28.9965606  32.4811900  44.1360338  30.9187564  36.7019404
  42.9310338  30.8957564  36.9349404  44.9800338  31.7877564  37.3019404
  45.9729116  31.7424113  37.1223943  44.4980338  32.7317564  38.3229404
  43.9233760  32.1831236  39.0691774  45.6400338  33.4537564  39.0229404
  46.2905088  32.7166670  39.4937702  46.2079074  34.0197370  38.2845058
  45.1360338  34.3377564  40.0099404  45.8671981  34.7851947  40.4421414
  43.4980338  33.7177564  37.7719404  43.6380338  34.1937564  36.6409404
  42.4460338  33.9707564  38.5539404  42.3273836  33.4334942  39.4009179
  41.3900338  34.8987564  38.1709404  41.2705670  34.8865733  37.0875760
  40.0530338  34.5117564  38.8159404  40.2710714  34.5090208  39.8839064
  39.2286937  35.1962008  38.6156923  39.5600338  33.1327564  38.4739404
  39.5980338  32.5257564  37.2539404  40.0713061  33.0813023  36.4443220
  39.0030338  31.2897564  37.3189404  39.0114121  30.5971003  36.5839187
  38.4770338  31.1137564  38.5729404  37.7910338  30.0237564  39.1249404
  37.5706854  29.1712325  38.4824856  37.4370338  30.0987564  40.4499404
  36.8818365  29.2786985  40.9053094  37.7730338  31.2067564  41.2329404
  37.4943793  31.2496868  42.2858450  38.4680338  32.2817564  40.6989404
  38.7534303  33.0933763  41.3682107  38.8260338  32.2487564  39.3359404
  41.7650338  36.3477564  38.4609404  41.1280338  37.2297564  37.9159404
  42.8030338  36.5957564  39.2929404  43.2470692  35.7869719  39.7037926
  43.3010338  37.9347564  39.6689404  42.7675595  38.6888205  39.0902420
  43.0920338  38.2277564  41.1759404  43.7565896  37.7000802  41.8600623
  43.2344111  39.3025329  41.2885646  41.6850338  37.9297564  41.6259404
  40.6610338  38.8347564  41.3969404  40.8890576  39.7917850  40.9276843
  39.3510338  38.5317564  41.7599404  38.5578991  39.2603215  41.5919195
  39.0580338  37.3167564  42.3289404  38.0334448  37.0848392  42.6196837
  40.0510338  36.3977564  42.5309404  39.8163020  35.4341852  42.9831921
  41.3590338  36.6917564  42.1599404  42.1426799  35.9449529  42.2875459
  44.7690338  37.9687564  39.3009404  45.5950338  37.3907564  40.0179404
  45.0990338  38.5557564  38.1219404  44.2340338  39.2637564  37.1559404
  44.1277009  40.3069433  37.4535219  43.2515836  38.7924661  37.1280825
  44.9740338  39.1077564  35.8759404  44.7123280  39.9147709  35.1915890
  44.7300500  38.1495709  35.4171881  46.4210338  39.1637564  36.2599404
  46.7687709  40.1963597  36.2900822  47.0397725  38.5926114  35.5678021
  46.4980338  38.5457564  37.6639404  46.8160330  37.5058504  37.5893068
  47.4340338  39.2957564  38.6009404  47.1890338  40.4567564  38.9509404
  48.4720338  38.5997564  39.0279404  48.6040215  37.6536754  38.6999019
  49.4400338  39.1457564  39.9589404  50.4470742  38.9989131  39.5685484
  49.2558671  40.2112967  40.0960754  49.3250338  38.4527564  41.2919404
  50.2050338  38.6097564  42.1419404  48.2440338  37.6537564  41.4669404
  47.5587300  37.6408726  40.7251237  47.9720338  36.8777564  42.6749404
  48.7398456  37.0904777  43.4187912  46.5980338  37.2237564  43.2739404
  45.8037923  37.0930863  42.5389540  46.4559727  36.5166745  44.0912248
  46.5560338  38.6277564  43.8129404  47.0090338  38.9147564  45.0959404
  47.3414551  38.0933435  45.7306658  47.0430338  40.2237564  45.5749404
  47.4004904  40.4298193  46.5838332  46.6290338  41.2647564  44.7609404
  46.6640338  42.5637564  45.2039404  46.9950739  42.6452300  46.1013668
  46.1640338  40.9987564  43.4849404  45.8203226  41.8123142  42.8461236
  46.1360338  39.6877564  43.0179404  45.7795071  39.4757715  42.0099468
  48.0600338  35.3967564  42.4299404  47.6840338  34.9077564  41.3589404
  48.5220338  34.6767564  43.4579404  48.8138326  35.1836106  44.2813794
  48.6340338  33.2307564  43.4649404  48.4382646  32.7967904  42.4844063
  50.0200338  32.8167564  43.9089404  50.2271685  33.2362208  44.8934428
  50.0765169  31.7293572  43.9586670  50.7562644  33.1860359  43.1950101
  47.6050338  32.6857564  44.4179404  47.4240338  33.2187564  45.5149404
  46.9330338  31.6237564  44.0039404  47.0968797  31.2861451  43.0662451
  45.8980338  30.9697564  44.8059404  45.6106488  31.6210807  45.6313408
  44.6550338  30.6717564  43.9619404  43.8604913  30.1361691  44.4815053
  44.2817826  31.6398697  43.6279639  44.9670338  29.8827564  42.7259404
  45.2820338  30.3747564  41.4909404  45.2684944  31.4582259  41.3725754
  45.5590338  29.3447564  40.6319404  45.8370937  29.4449002  39.6661488
  45.4350338  28.1567564  41.3059404  45.6150338  26.8457564  40.8689404
  45.8283555  26.6699535  39.8145753  45.5100338  25.8457564  41.8109404
  45.6961531  24.8127699  41.5170043  45.1700338  26.1217564  43.1379404
  45.0651853  25.3201444  43.8690522  44.9570338  27.4167564  43.5619404
  44.6602645  27.5759237  44.5986151  45.1040338  28.4637564  42.6399404
  46.3760338  29.6907564  45.4939404  47.2630338  28.9747564  45.0099404
  45.7620338  29.4117564  46.6369404  45.2006207  30.1504611  47.0359769
  46.0230338  28.2327564  47.4439404  46.1959664  27.3447496  46.8359623
  47.2390338  28.4227564  48.4079404  48.0416394  27.7832886  48.0405096
  47.7450338  29.8747564  48.5089404  46.9430605  30.5147865  48.8767719
  48.5890684  29.9188868  49.1972407  48.0614011  30.2191356  47.5243515
  46.9120338  27.9207564  49.7009404  47.6613303  28.0395051  50.2892038
  44.6600338  27.8027564  48.0549404  43.9460338  28.6437564  48.6009404
  44.2790338  26.5177564  47.8939404  44.8674290  25.9163244  47.3352187
  43.0050338  25.9837564  48.3829404  42.1524234  26.5371202  47.9893121
  42.8500338  24.4787564  48.0349404  43.7221454  23.9490613  48.4182742
  41.5950338  23.8837564  48.6349404  40.7224095  24.4126697  48.2516934
  41.5275003  22.8296545  48.3658512  41.6297490  23.9796732  49.7201565
  42.8800338  24.2297564  46.5349404  41.8539164  24.1522950  46.1755192
  43.3705455  25.0752640  46.0526389  43.6190338  22.9717564  46.2069404
  43.1288059  22.1256885  46.6885476  43.6222806  22.8226705  45.1271895
  44.6454351  23.0486567  46.5656696  42.8170338  26.2377564  49.8829404
  43.7210338  25.9527564  50.6829404  41.6200338  26.7807564  50.2419404
  41.0032304  27.0141718  49.4769762  41.1780338  27.0787564  51.6059404
  41.9389438  26.7927712  52.3321136  40.8940338  28.5567564  51.7599404
  40.1272845  28.8563097  51.0454732  40.5440742  28.7564229  52.7727394
  41.8058367  29.1239095  51.5727184  39.9320338  26.2577564  51.9089404
  39.0540338  26.0997564  51.0509404  39.8970338  25.6617564  53.0959404
  40.6519428  25.8322570  53.7448944  38.7880338  24.8277564  53.5319404
  37.9445071  24.9487439  52.8522906  39.1980338  23.3627564  53.5419404
  39.9769814  23.2808705  54.2999870  38.3152079  22.8128516  53.8680126
  39.6990338  22.7837564  52.2419404  38.9679718  22.5799830  51.4595558
  40.4345780  23.4989958  51.8738243  40.4010338  21.5097564  52.5829404
  41.6210338  21.5147564  52.7999404  39.6260338  20.4257564  52.7899404
  40.0529561  19.5406337  53.0231712  38.6221757  20.5039131  52.7108094
  38.4170338  25.1717564  54.9559404  39.2770338  25.6217564  55.7269404
  37.1620338  24.8657564  55.3359404  36.5222878  24.5353298  54.6276731
  36.6630338  25.0417564  56.6829404  36.7937858  26.0786210  56.9926418
  35.1830338  24.6967564  56.7519404  34.5982548  25.4011455  56.1603589
  35.0089995  23.6844648  56.3871422  34.4950338  24.7527564  58.4219404
  33.2577229  24.4107545  58.0740976  37.4900338  24.1737564  57.6429404
  37.6840338  22.9817564  57.3749404  38.0310338  24.7937564  58.7269404
  37.8568389  25.7841633  58.8210129  38.8550338  24.1277564  59.7539404
  39.7463169  23.7063535  59.2890391  39.2920338  25.1227564  60.8419404
  39.7836274  25.9466952  60.3246784  38.3776402  25.4838656  61.3126680
  40.2310338  24.5607564  61.9149404  39.6517200  23.9105690  62.5704956
  41.0072867  23.9777018  61.4193794  40.8720338  25.6607564  62.7339404
  40.1046303  26.2091435  63.2802576  41.5817740  25.2295050  63.4399081
  41.5870338  26.5967564  61.8619404  41.9003298  26.2498526  60.9666177
  41.8470338  27.8577564  62.1779404  41.4880338  28.3397564  63.3669404
  41.0159500  27.7411874  64.0294749  41.6896017  29.3015225  63.6003415
  42.4650338  28.6517564  61.3079404  42.7363568  28.2913147  60.4043002
  42.6601337  29.6114501  61.5549683  38.0720338  23.0067564  60.4029404
  38.6340338  21.9487564  60.6869404  34.8310338  21.2757564  59.2759404
  34.1815283  21.7951138  59.8490982  34.3080338  20.1927564  58.4419404
  34.3466473  19.2450809  58.9790802  32.8650338  20.4907564  58.0889404
  32.4041114  19.6482844  57.5732946  32.2842953  20.7331670  58.9789292
  32.7000338  21.8977564  56.9889404  31.3731538  21.8560906  56.9079985
  35.1000338  19.8997564  57.1989404  34.7680338  18.9477564  56.5059404
  36.0560338  20.7437564  56.8589404  36.2408554  21.5528928  57.4344738
  36.8680338  20.5457564  55.6619404  37.7930104  21.1008473  55.8181188
  37.0891848  19.4797499  55.6088207  36.2410338  20.9877564  54.3469404
  36.8020338  20.7287564  53.2729404  35.1100338  21.6987564  54.4259404
  34.7369714  21.8888229  55.3450696  34.3840338  22.1987564  53.2709404
  34.0688685  21.3751327  52.6303048  33.1410338  22.9457564  53.7529404
  32.7024932  22.4250176  54.6041821  33.4967046  23.9257443  54.0710946
  32.0780338  23.1367564  52.7069404  31.8260338  22.2587564  51.8619404
  31.3950338  24.2687564  52.7839404  30.6657971  24.4616768  52.1123041
  31.6065306  24.9339335  53.5139468  35.2520338  23.1337564  52.4479404
  35.8820338  24.0007564  53.0369404  35.2910338  22.9727564  51.0929404
  34.8551087  22.1708844  50.6604247  36.0730338  23.8807564  50.2459404
  37.0303154  24.0659487  50.7331928  36.3370338  23.3257564  48.8439404
  36.9970451  22.4652723  48.9537191  35.4264631  23.0210986  48.3280483
  37.0420338  24.2957564  47.9359404  36.4490338  24.7557564  46.7609404
  37.3320338  25.5827564  46.2159404  37.0741903  26.0305012  45.2561798
  38.4180338  25.7157564  46.9809404  39.2308210  26.2891960  46.8058863
  38.2400338  24.9127564  48.0879404  39.0039944  24.8781485  48.8646435
  35.3870338  25.2387564  50.2119404  34.2640338  25.3677564  49.7169404
  36.0400338  26.2267564  50.8169404  36.9358961  26.0180541  51.2340417
  35.4990338  27.5667564  50.9799404  34.4120274  27.5476550  50.9015101
  35.8770338  28.1027564  52.3479404  36.9651844  28.1149797  52.4102152
  35.4979697  29.1221037  52.4210262  35.3170338  27.2747564  53.4819404
  35.6800636  26.2559854  53.3462353  35.7205564  27.6833180  54.4084117
  33.5300338  27.2547564  53.5769404  33.1680338  28.9507564  53.7399404
  33.5462712  29.4887198  52.8706701  32.0888948  29.0873849  53.8098855
  33.6420849  29.3389855  54.6414142  35.9300338  28.5307564  49.9049404
  35.2730338  29.5477564  49.6759404  37.0150338  28.2077564  49.2489404
  37.5007066  27.3493827  49.4666920  37.5490338  29.0497564  48.2089404
  37.1919887  28.7115707  47.2361874  37.2392604  30.0822921  48.3702161
  39.0460338  28.9807564  48.2299404  39.6170338  27.8907564  48.3279404
  39.6850338  30.1417564  48.1339404  39.1339234  30.9876103  48.1038090
  41.1350338  30.2597564  48.0679404  41.6009583  29.3808909  48.5135961
  41.5930338  30.3687564  46.5969404  41.2575257  31.2959976  46.1324434
  42.6824008  30.3324657  46.5890306  41.1210338  29.2537564  45.7169404
  41.7810338  28.0967564  45.4329404  42.7739452  27.9760794  45.8661421
  41.0090338  27.2997564  44.6229404  41.2697152  26.3859141  44.2808338
  39.8210338  27.9347564  44.3709404  38.7100338  27.5237564  43.6179404
  38.7664597  26.5768890  43.0809516  37.6050338  28.3547564  43.6059404
  36.7070114  28.0513025  43.0678220  37.6130338  29.5897564  44.2759404
  36.7414880  30.2439676  44.2532447  38.7300338  30.0147564  44.9869404
  38.6793812  30.9783087  45.4939927  39.8570338  29.1717564  45.0519404
  41.6560338  31.4787564  48.7999404  40.9190338  32.4407564  49.0579404
  42.9590338  31.4397564  49.1029404  43.4685184  30.5913125  48.9012781
  43.6830338  32.5557564  49.6759404  42.9617324  33.2888920  50.0369608
  44.5890338  32.1447564  50.8419404  43.9921154  31.5841874  51.5613499
  45.3827040  31.5065659  50.4534812  45.2050338  33.3607564  51.5299404
  45.5774588  34.0230235  50.7484017  44.4086475  33.8613490  52.0806471
  46.3310338  33.0157564  52.4759404  45.9966806  32.2334809  53.1573741
  47.1827631  32.6549665  51.8993234  46.7400338  34.2317564  53.2689404
  47.2539518  34.9175747  52.5954108  45.8360064  34.7067699  53.6499860
  47.6390338  33.8877564  54.4089404  48.4769786  33.4479757  54.0560365
  47.8857911  34.7298369  54.9090518  47.1628600  33.2526045  55.0333919
  44.5260338  33.0547564  48.5239404  45.2910338  32.2837564  47.9069404
  44.3690338  34.3347564  48.2139404  43.6473264  34.8984041  48.6400145
  45.1620338  34.9207564  47.1599404  45.6539197  34.1286857  46.5953420
  44.3080338  35.7307564  46.2119404  43.6747583  36.4257894  46.7632938
  44.9420971  36.2871033  45.5216202  43.3920338  34.8897564  45.3709404
  43.8210338  34.3757564  44.1499404  44.8390963  34.5736389  43.8145434
  42.9590338  33.6117564  43.3559404  43.2952320  33.2386166  42.3885531
  41.6830338  33.3307564  43.7979404  41.0190124  32.7232426  43.1830400
  41.2460338  33.8157564  45.0139404  40.2388781  33.5892209  45.3638249
  42.0990338  34.5997564  45.7979404  41.7536591  34.9910548  46.7548635
  46.2780338  35.7187564  47.7739404  46.0570338  36.4997564  48.7029404
  47.4860338  35.4547564  47.3069404  47.5706605  34.7617149  46.5771246
  48.7010338  36.0597564  47.8269404  48.4893121  36.8803990  48.5123737
  49.5210338  34.9917564  48.5759404  50.5237248  35.3884817  48.7350636
  48.9030338  34.6167564  49.9209404  47.9004364  34.2194920  49.7625768
  49.5201688  33.8610341  50.4068697  48.8467127  35.5016732  50.5548574
  49.6430338  33.8127564  47.7609404  50.1544010  33.1502075  48.2311880
  49.4690338  36.6727564  46.6769404  49.6960338  35.9927564  45.6759404
  49.8620338  37.9547564  46.8079404  49.5828381  38.4452417  47.6455401
  50.5940338  38.6967564  45.7809404  49.9829153  38.6807937  44.8785112
  50.7820338  40.1367564  46.2129404  51.3996904  40.1696964  47.1104454
  51.2715221  40.6950754  45.4149546  49.8103325  40.5829332  46.4246529
  51.9400338  38.0697564  45.4339404  52.6330338  37.5627564  46.3179404
  52.3010338  38.0997564  44.1369404  51.6106883  38.4113430  43.4687815
  53.5650338  37.5517564  43.6279404  54.0131333  36.8490237  44.3304166
  53.3680338  36.8417564  42.2829404  54.3505872  36.6789098  41.8400294
  52.6500338  35.5037564  42.4329404  51.6671502  35.6658579  42.8753910
  52.5348632  35.0407523  41.4529088  53.2344561  34.8475016  43.0778285
  52.6470338  37.6997564  41.3929404  52.5233435  37.2559211  40.5507342
  54.6750338  38.6117564  43.6009404  55.8380338  38.2677564  43.3959404
  54.3180338  39.8827564  43.8359404  53.3323110  40.0853970  43.9218861
  55.2610338  40.9947564  43.8989404  56.2756839  40.6031057  43.9710105
  55.1660338  41.8837564  42.6519404  54.1249876  42.1921699  42.5560076
  55.7886542  42.7597353  42.8338878  55.6160338  41.1977564  41.3589404
  56.6509177  41.4804411  41.1660527  55.5560225  40.1195307  41.5070278
  54.7420338  41.5997564  40.1569404  54.5569458  42.6713899  40.2307187
  55.3136980  41.3917274  39.2524939  53.4140338  40.8587564  40.0989404
  53.6195083  39.8226989  39.8297460  52.9667930  40.8936506  41.0923473
  52.4700338  41.4517564  39.1079404  52.8840908  41.4191278  38.1872929
  51.6076697  40.9259921  39.1080925  52.2791709  42.4116625  39.3574415
  55.0270338  41.8117564  45.1739404  53.8860338  42.1267564  45.5329404
  52.6060338  45.1157564  45.5269404  52.9575699  46.0176261  45.8153026
  51.1710338  44.9777564  45.2789404  50.8466028  45.7323360  44.5623838
  50.8560338  43.5997564  44.7109404  51.1200571  42.8697635  45.4761209
  49.7814226  43.5650203  44.5317639  51.5870338  43.2767564  43.4369404
  51.4233230  44.0773327  42.7155687  52.6531660  43.1894701  43.6463332
  50.9910338  41.7257564  42.7449404  49.3130338  42.2487564  42.2219404
  49.3938079  43.0585847  41.4968523  48.7941635  41.4049459  41.7671238
  48.7523048  42.5940536  43.0905336  50.3120338  45.1957564  46.5009404
  50.6430338  44.7117564  47.5809404  46.0660338  44.7737564  47.5669404
  44.7270338  44.3427564  47.1179404  44.8137083  43.8906829  46.1299033
  44.0749472  45.2144054  47.0621717  44.2820338  43.3597564  48.1659404
  44.4350469  42.3471266  47.7927555  43.2230248  43.5140295  48.3728249
  45.1000338  43.6207564  49.3729404  45.2575868  42.7121737  49.9541060
  44.6339380  44.3782480  50.0030681  46.4400338  44.1367564  48.8399404
  46.8085569  44.9217282  49.5003253  47.5030338  43.0557564  48.6949404
  47.6250338  42.4337564  47.6519404  48.2900338  42.8447564  49.7309404
  48.2733548  43.4615181  50.5305817  49.3350338  41.8307564  49.6619404
  49.7855972  41.8177378  48.6695079  50.4360338  42.1557564  50.7009404
  50.5414000  43.2405970  50.6900728  50.0356171  41.8397572  51.6642218
  51.8170338  41.5027564  50.4789404  52.4888666  41.9523303  51.2101208
  51.6995588  40.4415791  50.6984954  52.4320338  41.6467564  49.1049404
  52.2090338  42.6177564  48.3649404  53.2310338  40.6567564  48.7319404
  53.6769595  40.6857350  47.8261744  53.3901292  39.8781304  49.3552633
  48.7320338  40.3737564  49.7519404  49.3020338  39.4137564  49.2189404
  47.5380338  40.2557564  50.3599404  47.2137252  41.0960288  50.8169586
  46.7260338  39.0377564  50.4839404  46.8266352  38.4613203  49.5643210
  47.1470338  38.1397564  51.6819404  46.6177084  37.1936564  51.5687652
  48.2194140  37.9691146  51.5871660  46.8430338  38.7347564  53.0689404
  47.4845383  39.6090910  53.1789946  45.7998777  39.0502697  53.0494796
  47.0670338  37.7857564  54.2499404  46.3935237  38.1123135  55.0423063
  46.7728567  36.7927704  53.9100315  48.4880338  37.7377564  54.7819404
  49.1344344  37.3539258  53.9926744  48.7907243  38.7533448  55.0370051
  48.6050338  36.8657564  55.9889404  48.3250099  35.9245469  55.7526969
  49.5627373  36.8616083  56.3097003  48.0064653  37.2214951  56.7205584
  45.2390338  39.4237564  50.5909404  44.8970338  40.5327564  51.0389404
  44.3670338  38.5077564  50.1509404  44.7655541  37.7302316  49.6442491
  42.9130338  38.5927564  50.2569404  42.6562310  38.9520427  51.2534668
  42.2940338  39.5457564  49.2149404  41.2341067  39.6622232  49.4409697
  42.7858753  40.5168437  49.2713449  42.3820338  39.1007564  47.7779404
  43.4880338  39.4217564  46.9999404  44.3046215  39.9920983  47.4426531
  43.5600338  39.0207564  45.6619404  44.4259848  39.2934914  45.0587446
  42.5380338  38.2817564  45.1059404  42.6057654  37.9525025  44.0690681
  41.4330338  37.9597564  45.8589404  40.6209403  37.3838208  45.4152034
  41.3510338  38.3707564  47.1929404  40.4724947  38.1200705  47.7874363
  42.3800338  37.1717564  50.1569404  43.1720338  36.2337564  49.9759404
  41.0560338  37.0017564  50.2559404  40.4594876  37.8030316  50.4049039
  40.4380338  35.6827564  50.1889404  41.1855954  34.9440959  49.8997493
  39.8520338  35.2807564  51.5469404  39.0804154  35.9750344  51.8796302
  39.4205007  34.2863812  51.4324982  40.8480338  35.1887564  52.6519404
  41.2960338  36.2057564  53.4439404  40.9061806  37.2016513  53.2334465
  42.1820338  35.7247564  54.3759404  42.6434872  36.2718134  55.0886037
  42.3190338  34.3707564  54.1969404  43.0920338  33.4357564  54.8949404
  43.7188557  33.7882451  55.7140526  43.0110338  32.1257564  54.5009404
  43.5950401  31.3702697  55.0265604  42.1960338  31.7327564  53.4389404
  42.1367149  30.6866485  53.1385425  41.4390338  32.6557564  52.7349404
  40.8615599  32.3029471  51.8804522  41.4780338  34.0007564  53.1269404
  39.3520338  35.6577564  49.1539404  38.5110338  36.5567564  49.1119404
  39.3630338  34.6117564  48.3489404  40.0960292  33.9247980  48.4533685
  38.3640338  34.4017564  47.3139404  37.8132536  35.3239769  47.1288737
  38.8410043  34.0725438  46.3907841  37.4000338  33.3387564  47.7739404
  37.6720338  32.1537564  47.5899404  36.2990338  33.7397564  48.4209404
  36.1604164  34.7166478  48.6367362  35.3470338  32.7697564  48.9579404
  35.8312795  31.7969729  49.0433665  34.8370338  33.1957564  50.3629404
  34.1589990  34.0231374  50.1536351  34.2681841  32.3484837  50.7458750
  35.8820338  33.6387564  51.4229404  36.4847535  34.4465401  51.0078316
  35.2180338  34.1027564  52.6419404  34.6154487  33.2953173  53.0579116
  35.9683253  34.4082953  53.3711931  34.5751192  34.9507052  52.4058385
  36.8430338  32.5257564  51.7969404  37.3852628  32.1996734  50.9093836
  37.5510407  32.8910314  52.5408502  36.2841494  31.6858626  52.2096456
  34.1920338  32.4787564  48.0009404  33.5760338  33.4137564  47.5059404
  33.8910338  31.1927564  47.7449404  34.4970451  30.4742390  48.1145110
  32.8090338  30.7917564  46.8379404  32.6845663  31.5146521  46.0316967
  33.0820338  29.4187564  46.2249404  32.2435157  29.1637309  45.5769052
  34.3630338  29.3967564  45.4229404  35.2021168  29.6512485  46.0704534
  34.5148162  28.4007539  45.0069593  34.2972573  30.1223816  44.6122357
  33.1460338  28.4357564  47.2569404  33.3175870  27.5747593  46.8685415
  31.4690338  30.8827564  47.5519404  31.2920338  30.2477564  48.6019404
  30.5210338  31.6677564  46.9859404  30.7559183  32.2044627  46.1632163
  29.2220338  31.9077564  47.6259404  29.4000725  32.2346896  48.6503994
  28.3770338  32.9707564  46.9119404  27.5234948  33.1772300  47.5576485
  28.9977299  33.8634169  46.8345213  27.8880338  32.5807564  45.5449404
  28.6612118  32.8316672  44.8187583  27.7167937  31.5043339  45.5352759
  26.6050338  33.2987564  45.1839404  26.6876075  34.3407778  45.4929259
  26.4683177  33.2504100  44.1036299  25.4360338  32.7107564  45.8299404
  25.1008059  33.1545270  46.6730236  24.7780338  31.6537564  45.3649404
  25.1980338  31.0277564  44.2709404  26.0225587  31.3570744  43.7894755
  24.6908656  30.2254266  43.9257639  23.7120338  31.1977564  46.0049404
  23.3992805  31.6557932  46.8490303  23.2167324  30.3940593  45.6459889
  28.3840338  30.6447564  47.8889404  27.5160338  30.6777564  48.7689404
  28.6540338  29.5407564  47.1959404  29.3271217  29.5444142  46.4429207
  27.9180338  28.3087564  47.4599404  26.8574703  28.5339633  47.5721278
  28.0870338  27.3157564  46.3139404  27.5450219  26.4097407  46.5849715
  27.6321562  27.7594408  45.4283160  29.4420338  26.9917564  46.0379404
  29.4797175  26.3661497  45.3107568  28.3520338  27.6817564  48.7869404
  27.6040338  26.8867564  49.3429404  29.5480338  28.0527564  49.3009404
  30.0721879  28.7546097  48.7981842  30.1380338  27.4827564  50.5189404
  29.7989035  26.4546182  50.6455170  31.6490338  27.4817564  50.3849404
  32.0044954  28.5053495  50.2666010  32.0933182  27.0444908  51.2790939
  31.9365711  26.8947104  49.5127027  29.7480338  28.2477564  51.7409404
  30.0150338  27.8217564  52.8669404  29.1390338  29.4087564  51.4999404
  29.0045962  29.6197286  50.5214126  28.7530338  30.4087564  52.4789404
  29.2196858  30.1989810  53.4414005  29.2180338  31.7927564  51.9989404
  28.8685787  31.8293851  50.9671271  28.7197945  32.5698761  52.5785460
  30.7160338  32.0197564  52.0329404  31.2146578  31.1377198  51.6310868
  31.0880338  33.2097564  51.2249404  30.5901229  34.0923281  51.6265009
  32.1678647  33.3530492  51.2640953  30.7794201  33.0581820  50.1905888
  31.2200338  32.1447564  53.4449404  30.9965229  31.2296981  53.9934024
  32.2978557  32.3068410  53.4335475  30.7313972  32.9884230  53.9323416
  27.2820338  30.4177564  52.8059404  26.4510338  30.0127564  51.9919404
  26.8902520  30.7961664  53.9076447  37.6250338  20.7097564  44.2399404
  38.3570338  21.7357564  43.7179404  37.9160338  20.0837564  45.4429404
  39.4390338  22.1537564  44.4209404  39.0190338  20.5327564  46.1579404
  39.7870338  21.5777564  45.6459404  40.2690338  23.3047564  43.8649404
  41.6540338  22.8917564  43.7889404  39.7070338  23.8467564  42.5299404
  42.3170338  23.2677564  42.5779404  40.5610338  24.8937564  41.9569404
  41.9990338  24.7087564  42.1699404  40.0050338  25.7507564  41.0089404
  38.8570338  25.5707564  40.6039404  40.8090338  26.8497564  40.5169404
  41.7770338  26.7217564  39.5489404  40.7690338  28.2067564  40.7879404
  42.4050338  27.8767564  39.2509404  42.1880338  25.5087564  38.8779404
  41.7740338  28.7937564  39.9899404  42.1550338  30.2317564  39.9009404
  41.6600338  31.0357564  41.0929404  35.2380338  20.3917564  44.0659404
  36.4490338  20.2587564  43.4249404  36.5830338  19.8247564  42.2879404
  35.2560338  20.8397564  44.9779404  33.9730338  20.1647564  43.4179404
  33.6170338  22.6337564  44.6699404  33.0490338  21.2757564  43.7859404
  32.0420338  23.3097564  44.6329404  31.6980338  21.4267564  43.5159404
  31.1330338  22.5947564  44.0079404  31.7790338  24.6227564  45.2809404
  30.8270338  20.4877564  42.7599404  37.2930338  19.2587564  45.8189404
  39.2830338  20.0687564  47.1189404  40.6610338  21.9457564  46.2029404
  40.2070338  24.1627564  44.5499404  39.6340338  23.0167564  41.8129404
  38.7200338  24.2877564  42.7319404  43.4030338  23.1707564  42.7239404
  41.9610338  22.6027564  41.7769404  42.3340338  25.3887564  42.9669404
  42.5220338  24.9277564  41.2279404  40.0910338  28.7227564  41.4839404
  42.4470338  24.7457564  39.6259404  41.3650338  25.1407564  38.2479404
  43.0660338  25.7177564  38.2479404  43.2520338  30.3047564  39.8559404
  41.6870338  30.6487564  38.9969404  41.9670338  30.5367564  42.0239404
  42.0930338  32.0467564  41.0589404  40.5630338  31.1047564  41.0589404
  33.5510338  19.2047564  43.7519404  34.1080338  20.1307564  42.3269404
  31.8030338  24.5027564  46.3739404  32.5500338  25.3437564  44.9739404
  30.7880338  24.9907564  44.9739404  30.2540338  19.8697564  43.4659404
  30.1330338  21.0607564  42.1269404  31.4500338  19.8397564  42.1269404
  46.3920400  34.0757900  60.3356210  22.4812470  27.4324240  43.9962070
  51.4539960  31.7132180  55.9244860  50.0878440  47.5413810  38.4893390
  51.5512750  17.7640190  52.8168630  66.7096460  60.1318090  75.3771970
  66.6290510  59.2172700  75.1063680  66.2960880  60.6285160  74.6711680
  57.2672280  57.1818810  71.9199390  56.3788980  57.5234780  71.8179270
  57.5513470  56.9819130  71.0280220  59.4433670  55.7650310  72.9537770
  59.5500420  56.6654040  73.2606530  58.5326030  55.7168280  72.6632420
  69.0952780  54.8875120  74.4248670  69.9162400  54.3971690  74.4674150
  69.1286860  55.4772780  75.1780510  62.9320720  52.5727470  75.8841410
  63.2395700  52.0174360  75.1676910  62.0021420  52.7071930  75.7014400
  65.3201480  60.6376300  72.6201530  64.3930760  60.5713680  72.8490000
  65.4726300  61.5756430  72.5056770  65.3070560  56.9093300  69.6168690
  64.3674230  57.0707260  69.7021150  65.6253820  57.6278980  69.0704680
  69.3498770  62.1996600  73.1236780  68.7311190  61.8616150  72.4763080
  69.3323220  61.5556360  73.8315970  60.9258120  61.1641040  75.4021260
  60.5215120  60.4518290  74.9067160  61.0121240  60.8194280  76.2909300
  67.5263470  61.4383410  70.1309530  67.9656750  60.6005840  69.9847350
  68.2391890  62.0712810  70.2173670  57.6262750  60.0586020  72.9027910
  57.5060350  60.7848110  72.2909180  57.3163640  59.2888930  72.4255820
  60.0926410  53.4021090  76.2851580  59.6494560  54.1830630  75.9536100
  60.6511400  53.7250980  76.9922520  63.2085230  53.0231790  71.1657410
  62.5839410  53.0191660  71.8910720  63.1215350  52.1562750  70.7693380
  59.8840630  58.5254660  74.0132830  59.6581550  58.3091830  74.9179450
  59.1033160  58.9583120  73.6678800  67.1138390  58.5318030  72.6123480
  66.5147280  59.2553830  72.4287100  67.6618000  58.4694810  71.8299930
  65.7203260  57.1681570  74.6426760  66.1132830  57.4853770  73.8295450
  66.0820110  56.2893450  74.7571280  54.9437660  57.7002490  68.0759680
  54.8612330  58.6433250  68.2174670  54.5920720  57.5577400  67.1972030
  58.5938170  56.3168010  76.1024240  58.2538220  56.7943240  76.8591290
  57.8315490  55.8633130  75.7425340  62.8055940  57.4353600  70.1336790
  62.9268760  57.3940080  71.0822610  62.4204450  58.2977750  69.9783520
  61.8177440  59.7454740  69.5320090  61.2494340  59.2972990  68.9056000
  62.5266440  60.1047520  68.9985240  55.9084250  55.2386990  75.0188910
  55.6231170  54.8742660  75.8567530  55.8463110  54.5067450  74.4052050
  59.3624920  63.7412930  71.8046500  58.5887180  63.2010550  71.6445220
  60.0919550  63.2219540  71.4664260  65.5822840  54.1316250  71.7402280
  64.7687450  53.6329420  71.6647590  65.3884790  54.9714500  71.3238630
  68.2971230  58.5035900  70.0364440  69.1850850  58.8153130  69.8615780
  68.2676320  57.6308150  69.6445020  59.4062320  63.4093310  75.4425310
  59.9240990  62.6061570  75.3882200  58.9546340  63.3472450  76.2842140
  55.4014910  60.3745940  68.9785610  56.2709760  60.6570740  69.2621530
  54.9105230  61.1881810  68.8634420  62.5649720  61.7619150  73.0993890
  63.0212500  62.5724400  73.3254080  62.2137930  61.4442290  73.9312380
  58.4661500  52.1056800  73.5716410  58.3376130  52.0974700  74.5201330
  57.6423520  52.4439890  73.2207420  57.3861420  62.1919410  71.1067670
  56.7789370  62.9318310  71.1162970  57.8610770  62.2818770  70.2805870
  62.2940270  57.5913120  73.0070000  61.5856420  58.0599460  73.4483610
  62.5784750  56.9335130  73.6415190  66.3255700  54.3163780  74.4465790
  66.2023480  54.3349910  73.4975300  67.2740260  54.3642720  74.5664190
  60.4975290  55.8998200  70.3820710  61.3465820  56.3368350  70.3160900
  60.1306560  56.2118460  71.2092770  69.4185070  60.4710960  75.2952280
  68.4775210  60.4861190  75.4699970  69.7329140  59.6846920  75.7412580
  59.3966710  62.1530560  68.8556240  60.1629980  62.0411920  69.4181670
  59.4741400  61.4568530  68.2033010  58.0913470  59.5855630  69.5389130
  58.1717060  58.6383140  69.6506530  58.9833220  59.9162510  69.6449790
  65.7610620  63.1904770  68.9333580  65.2120720  63.6374070  69.5776320
  66.3829880  62.6854020  69.4571250  61.4285740  62.1495690  70.8298880
  61.8502160  61.9835560  71.6730270  61.5536580  61.3395920  70.3354020
  63.9413380  61.1733300  68.0775980  64.4619040  60.4582320  67.7117130
  64.5881780  61.8119170  68.3776490  60.3244640  58.2228920  67.7757040
  60.1233700  57.3596280  68.1370380  60.1536690  58.1362280  66.8378640
  67.8032950  53.0337150  70.3043920  68.0835240  52.1905050  70.6603340
  67.0298680  53.2660260  70.8182670  59.1227440  55.3229540  67.7634920
  59.4253340  55.3296970  66.8554070  59.8622030  54.9727400  68.2602580
  62.3412370  54.2664160  68.7491120  61.9934370  53.5888150  68.1693570
  62.5425140  53.8053670  69.5634510  55.6818010  60.7951810  75.1455490
  55.0266850  60.5263450  74.5015190  56.5195960  60.6856290  74.6957470
  68.6308450  55.5893100  69.3673980  69.0493330  55.4024080  68.5270640
  68.3244510  54.7372150  69.6776910  54.8956090  58.0050740  71.0880820
  53.9920170  58.2680940  70.9132480  55.3796710  58.2761910  70.3080780
  57.4383300  57.0616280  68.9975200  58.1475000  56.6399500  68.5122480
  56.7223240  57.1291510  68.3658550  57.0857460  53.1155610  68.0377850
  57.8085590  53.6564550  68.3559070  57.3581980  52.8419030  67.1619390
  56.5104300  53.1548870  71.6313420  57.2683660  53.2677750  71.0577450
  56.0481470  53.9918070  71.5856850  63.0518110  55.2688140  74.6215730
  62.2392620  54.8945030  74.2811610  63.5559750  54.5133220  74.9236920
  67.5543090  51.9330590  75.8598800  68.1572460  52.5050800  76.3347320
  66.8136080  52.4970030  75.6372700  58.8829450  53.6812920  70.1715390
  59.4122210  52.8942720  70.0423340  59.5157770  54.3604110  70.4050920
  61.0767290  53.4188060  73.2260780  60.4470030  52.7175370  73.3930910
  60.5372430  54.1792190  73.0093940  66.7096460  60.1318090  56.6028480
  66.6290510  59.2172700  56.3320190  66.2960880  60.6285160  55.8968190
  64.8414500  61.9097110  58.4837750  64.0656600  61.4297550  58.7736320
  65.4927430  61.2302760  58.3093910  58.8580330  62.2216920  59.3613510
  58.0265210  61.9665630  59.7610020  59.4661310  62.2927690  60.0971430
  57.2672280  57.1818810  53.1455900  56.3788980  57.5234780  53.0435780
  57.5513470  56.9819130  52.2536730  55.2305290  59.7824460  59.0295600
  55.8021400  59.0146660  59.0299240  55.2306830  60.0813220  58.1202210
  56.4730160  55.1908820  60.8164530  56.2933000  54.2934570  61.0967290
  56.0710240  55.7380690  61.4911480  65.3128660  57.3924680  58.7176840
  65.6893480  56.5196560  58.6050510  65.2148170  57.7283380  57.8267280
  59.4433670  55.7650310  54.1794280  59.5500420  56.6654040  54.4863040
  58.5326030  55.7168280  53.8888930  69.0952780  54.8875120  55.6505180
  69.9162400  54.3971690  55.6930660  69.1286860  55.4772780  56.4037020
  57.0916830  57.6869320  59.4246870  57.7726940  57.9507690  60.0434270
  56.7764880  56.8470190  59.7584880  61.2841400  58.7336680  58.5119460
  61.7919620  59.2317650  59.1524480  61.8154640  57.9571880  58.3358820
  59.5677500  53.3735240  62.7782880  59.5695940  53.8907630  61.9728780
  58.7381810  52.8965420  62.7552810  60.8180350  63.0130420  60.9556380
  60.4849730  63.6399340  61.5977450  60.9947030  63.5392300  60.1758050
  69.3314260  56.8275500  58.4232720  68.6269830  57.1160390  59.0035830
  69.6926420  57.6375610  58.0632280  59.2492830  55.0845200  60.7853330
  59.5909640  55.9287250  60.4907200  58.3108640  55.2328940  60.9018670
  62.9320720  52.5727470  57.1097920  63.2395700  52.0174360  56.3933420
  62.0021420  52.7071930  56.9270910  67.8821220  63.1924600  60.7287990
  68.2990010  62.9784710  59.8941450  68.6061040  63.4497390  61.2996610
  65.3201480  60.6376300  53.8458040  64.3930760  60.5713680  54.0746510
  65.4726300  61.5756430  53.7313280  65.3070560  56.9093300  50.8425200
  64.3674230  57.0707260  50.9277660  65.6253820  57.6278980  50.2961190
  69.3498770  62.1996600  54.3493290  68.7311190  61.8616150  53.7019590
  69.3323220  61.5556360  55.0572480  68.7925330  58.3781140  61.7659100
  68.3796510  59.2034850  62.0199090  68.0601280  57.7926180  61.5735460
  60.9258120  61.1641040  56.6277770  60.5215120  60.4518290  56.1323670
  61.0121240  60.8194280  57.5165810  59.6386740  57.9384250  60.4076810
  60.1901330  58.0479590  59.6330060  60.1530250  58.3121850  61.1232040
  67.5263470  61.4383410  51.3566040  67.9656750  60.6005840  51.2103860
  68.2391890  62.0712810  51.4430180  59.3129470  61.4603610  64.0182150
  59.1737240  62.3326410  64.3869550  58.4310830  61.1176420  63.8730090
  57.6262750  60.0586020  54.1284420  57.5060350  60.7848110  53.5165690
  57.3163640  59.2888930  53.6512330  55.2648120  63.2301160  59.9353060
  55.3428540  63.3649930  58.9908780  55.8789800  62.5217050  60.1281180
  60.0926410  53.4021090  57.5108090  59.6494560  54.1830630  57.1792610
  60.6511400  53.7250980  58.2179030  64.3796220  56.2689610  63.1143410
  63.9175590  56.4772630  63.9263350  63.9774330  55.4548960  62.8114080
  69.3800730  57.4898560  64.2440070  68.5294320  57.1904310  64.5649140
  69.2202520  57.7340570  63.3323890  66.4750440  58.9900310  66.3438860
  66.8003850  58.1564060  66.0041090  67.2630770  59.5128830  66.4917190
  63.2085230  53.0231790  52.3913920  62.5839410  53.0191660  53.1167230
  63.1215350  52.1562750  51.9949890  62.1302310  53.9468420  59.3697690
  62.4274640  54.8531250  59.2889710  62.6787870  53.4587200  58.7557260
  59.8840630  58.5254660  55.2389340  59.6581550  58.3091830  56.1435960
  59.1033160  58.9583120  54.8935310  67.1138390  58.5318030  53.8379990
  66.5147280  59.2553830  53.6543610  67.6618000  58.4694810  53.0556440
  62.3239840  59.4240240  65.9049610  62.2283440  58.4834970  65.7550010
  63.1671820  59.6455310  65.5097680  65.7203260  57.1681570  55.8683270
  66.1132830  57.4853770  55.0551960  66.0820110  56.2893450  55.9827790
  57.4550380  55.8353910  64.0583390  57.0613770  56.6829120  64.2656170
  56.7668780  55.1980280  64.2492030  64.0295430  55.9188880  67.1280130
  63.3393750  55.7261080  67.7626220  64.7727730  56.2023520  67.6604430
  54.7567430  53.7582370  58.0913470  54.4680480  54.3285230  58.8038450
  55.5013190  53.2786820  58.4544700  54.9437660  57.7002490  49.3016190
  54.8612330  58.6433250  49.4431180  54.5920720  57.5577400  48.4228540
  66.3058400  59.7587320  59.9634050  65.5739520  60.2674130  60.3124150
  65.9082740  58.9417300  59.6622830  62.7435790  56.4341520  58.3686540
  62.7471850  55.9931470  57.5191080  63.6386910  56.7558850  58.4758360
  58.5938170  56.3168010  57.3280750  58.2538220  56.7943240  58.0847800
  57.8315490  55.8633130  56.9681850  62.8055940  57.4353600  51.3593300
  62.9268760  57.3940080  52.3079120  62.4204450  58.2977750  51.2040030
  66.7684310  55.2121000  59.3756990  66.7857050  55.6629650  60.2198840
  66.5199890  54.3126640  59.5890430  61.8177440  59.7454740  50.7576600
  61.2494340  59.2972990  50.1312510  62.5266440  60.1047520  50.2241750
  63.0443760  60.4943300  60.1151950  63.4113890  60.0201870  60.8613290
  62.8548820  61.3684870  60.4560290  55.9084250  55.2386990  56.2445420
  55.6231170  54.8742660  57.0824040  55.8463110  54.5067450  55.6308560
  60.8343130  59.5351940  62.4336160  60.5300200  60.4143920  62.6586520
  61.7889590  59.5951730  62.4693600  59.3624920  63.7412930  53.0303010
  58.5887180  63.2010550  52.8701730  60.0919550  63.2219540  52.6920770
  65.5822840  54.1316250  52.9658790  64.7687450  53.6329420  52.8904100
  65.3884790  54.9714500  52.5495140  65.5031700  62.8087350  64.7098400
  65.4369010  61.8883020  64.4555990  64.8736840  62.9062790  65.4243040
  68.2971230  58.5035900  51.2620950  69.1850850  58.8153130  51.0872290
  68.2676320  57.6308150  50.8701530  59.4062320  63.4093310  56.6681820
  59.9240990  62.6061570  56.6138710  58.9546340  63.3472450  57.5098650
  56.8906860  60.3754680  63.5807520  56.5321800  61.0408530  64.1680860
  56.5961420  59.5438230  63.9520140  60.0919980  60.8338920  66.4647070
  59.7920120  60.9796100  65.5674890  60.8631220  60.2744210  66.3720460
  55.4014910  60.3745940  50.2042120  56.2709760  60.6570740  50.4878040
  54.9105230  61.1881810  50.0890930  62.5649720  61.7619150  54.3250400
  63.0212500  62.5724400  54.5510590  62.2137930  61.4442290  55.1568890
  58.4661500  52.1056800  54.7972920  58.3376130  52.0974700  55.7457840
  57.6423520  52.4439890  54.4463930  55.4655430  53.8647920  64.2579620
  54.7513950  54.0644840  64.8632230  55.8850470  53.0887490  64.6294420
  57.3861420  62.1919410  52.3324180  56.7789370  62.9318310  52.3419480
  57.8610770  62.2818770  51.5062380  66.9594210  56.3570230  62.0081070
  67.3275030  55.5365440  62.3360640  66.0992410  56.4172120  62.4236720
  62.2940270  57.5913120  54.2326510  61.5856420  58.0599460  54.6740120
  62.5784750  56.9335130  54.8671700  63.9196200  59.0109820  62.2319040
  64.4181450  59.4855640  62.8970890  64.0619150  58.0873340  62.4389070
  66.3255700  54.3163780  55.6722300  66.2023480  54.3349910  54.7231810
  67.2740260  54.3642720  55.7920700  60.4975290  55.8998200  51.6077220
  61.3465820  56.3368350  51.5417410  60.1306560  56.2118460  52.4349280
  69.4185070  60.4710960  56.5208790  68.4775210  60.4861190  56.6956480
  69.7329140  59.6846920  56.9669090  59.3966710  62.1530560  50.0812750
  60.1629980  62.0411920  50.6438180  59.4741400  61.4568530  49.4289520
  58.0913470  59.5855630  50.7645640  58.1717060  58.6383140  50.8763040
  58.9833220  59.9162510  50.8706300  55.6184270  61.4070550  66.0001810
  56.1223290  60.8277830  66.5718040  54.8791690  61.6910780  66.5378180
  62.6722210  62.8141540  65.5337330  61.9067880  63.3826540  65.4492000
  62.8538170  62.5217750  64.6405560  65.7610620  63.1904770  50.1590090
  65.2120720  63.6374070  50.8032830  66.3829880  62.6854020  50.6827760
  57.6507350  59.5500140  66.8951880  57.6912690  59.2514010  67.8037110
  58.5052850  59.9507750  66.7359400  61.4285740  62.1495690  52.0555390
  61.8502160  61.9835560  52.8986780  61.5536580  61.3395920  51.5610530
  59.5913160  58.1292240  64.8626370  59.0609620  57.6383190  64.2349710
  60.2601230  58.5576440  64.3284300  63.9413380  61.1733300  49.3032490
  64.4619040  60.4582320  48.9373640  64.5881780  61.8119170  49.6033000
  68.4891220  62.5961700  64.6267560  68.9032240  62.7506780  65.4757980
  67.5542220  62.7216920  64.7893340  68.9613390  59.9357860  66.6306710
  69.5434160  59.1810180  66.5427190  69.1375160  60.4665300  65.8538190
  60.0785460  55.0954610  64.9423660  59.9842330  54.4775360  64.2174530
  59.4982850  55.8220900  64.7153570  62.8446900  53.6527850  61.9751050
  62.3964200  53.6752110  61.1296600  62.2112100  53.2546870  62.5721350
  63.2506450  62.5482180  62.5963490  63.6694560  63.3914910  62.4239730
  62.3315080  62.6854220  62.3670270  65.5870350  60.2798360  63.9801330
  65.7066560  59.6839500  64.7196170  66.4464350  60.3168050  63.5602630
  67.9258250  60.8335550  62.5563840  67.3993470  61.3578170  61.9528980
  68.2689590  61.4662940  63.1873570  60.3244640  58.2228920  49.0013550
  60.1233700  57.3596280  49.3626890  60.1536690  58.1362280  48.0635150
  62.3539120  56.8219710  65.2377150  62.9438810  56.5135560  65.9254970
  61.5359360  56.3499460  65.3937050  67.1732550  56.4385520  65.4710170
  66.4848070  55.7767060  65.4060160  67.8938570  55.9923790  65.9158630
  67.8032950  53.0337150  51.5300430  68.0835240  52.1905050  51.8859850
  67.0298680  53.2660260  52.0439180  59.1227440  55.3229540  48.9891430
  59.4253340  55.3296970  48.0810580  59.8622030  54.9727400  49.4859090
  62.3412370  54.2664160  49.9747630  61.9934370  53.5888150  49.3950080
  62.5425140  53.8053670  50.7891020  55.6818010  60.7951810  56.3712000
  55.0266850  60.5263450  55.7271700  56.5195960  60.6856290  55.9213980
  68.6308450  55.5893100  50.5930490  69.0493330  55.4024080  49.7527150
  68.3244510  54.7372150  50.9033420  56.7193940  61.1804380  60.9115340
  57.0866980  61.0931780  61.7911360  56.1504760  60.4170930  60.8122200
  56.2709940  58.0913470  64.8173760  55.3765990  58.0580230  65.1567470
  56.8107490  58.2900260  65.5825010  54.8956090  58.0050740  52.3137330
  53.9920170  58.2680940  52.1388990  55.3796710  58.2761910  51.5337290
  57.4383300  57.0616280  50.2231710  58.1475000  56.6399500  49.7378990
  56.7223240  57.1291510  49.5915060  57.0857460  53.1155610  49.2634360
  57.8085590  53.6564550  49.5815580  57.3581980  52.8419030  48.3875900
  56.7749650  52.3661800  59.1656980  57.4225840  51.8159180  58.7252140
  57.1951490  52.6204950  59.9872790  56.5281650  52.5217470  61.9082300
  56.1796470  52.9781290  62.6740480  56.1969350  51.6274600  61.9904730
  64.0406470  53.7129350  65.4301720  63.9795360  54.3051180  66.1797130
  64.9806850  53.6055310  65.2851980  66.6781030  53.3699410  65.0694010
  67.2921440  53.6878700  64.4075090  67.2230590  52.8848000  65.6889870
  57.2002290  52.0493670  65.1833070  57.7485280  51.8681720  64.4199180
  57.2657600  51.2587780  65.7189380  67.4189070  51.9331550  61.3963300
  66.5448910  52.2666660  61.1936230  67.3099820  51.4604730  62.2215170
  68.3261050  54.1402420  62.7805020  67.9974410  53.3254180  62.4006750
  69.2743350  54.0972230  62.6570710  65.1663890  52.8501390  60.3356210
  64.3835680  53.3246890  60.6152970  64.8726820  51.9456220  60.2269390
  56.5104300  53.1548870  52.8569930  57.2683660  53.2677750  52.2833960
  56.0481470  53.9918070  52.8113360  63.0518110  55.2688140  55.8472240
  62.2392620  54.8945030  55.5068120  63.5559750  54.5133220  56.1493430
  67.5543090  51.9330590  57.0855310  68.1572460  52.5050800  57.5603830
  66.8136080  52.4970030  56.8629210  58.8829450  53.6812920  51.3971900
  59.4122210  52.8942720  51.2679850  59.5157770  54.3604110  51.6307430
  61.0767290  53.4188060  54.4517290  60.4470030  52.7175370  54.6187420
  60.5372430  54.1792190  54.2350450  61.2022850  52.6972040  66.8869780
  60.9207120  53.2005640  66.1230600  61.5842550  51.8993790  66.5211910
  67.8038310  52.1125620  67.4650250  67.6903760  52.4320230  68.3601770
  68.6208050  52.5138130  67.1687530  66.7096460  60.1318090  37.8284990
  66.6290510  59.2172700  37.5576700  66.2960880  60.6285160  37.1224700
  64.8414500  61.9097110  39.7094260  64.0656600  61.4297550  39.9992830
  65.4927430  61.2302760  39.5350420  58.8580330  62.2216920  40.5870020
  58.0265210  61.9665630  40.9866530  59.4661310  62.2927690  41.3227940
  57.2672280  57.1818810  34.3712410  56.3788980  57.5234780  34.2692290
  57.5513470  56.9819130  33.4793240  55.2305290  59.7824460  40.2552110
  55.8021400  59.0146660  40.2555750  55.2306830  60.0813220  39.3458720
  56.4730160  55.1908820  42.0421040  56.2933000  54.2934570  42.3223800
  56.0710240  55.7380690  42.7167990  65.3128660  57.3924680  39.9433350
  65.6893480  56.5196560  39.8307020  65.2148170  57.7283380  39.0523790
  59.4433670  55.7650310  35.4050790  59.5500420  56.6654040  35.7119550
  58.5326030  55.7168280  35.1145440  69.0952780  54.8875120  36.8761690
  69.9162400  54.3971690  36.9187170  69.1286860  55.4772780  37.6293530
  57.0916830  57.6869320  40.6503380  57.7726940  57.9507690  41.2690780
  56.7764880  56.8470190  40.9841390  61.2841400  58.7336680  39.7375970
  61.7919620  59.2317650  40.3780990  61.8154640  57.9571880  39.5615330
  59.5677500  53.3735240  44.0039390  59.5695940  53.8907630  43.1985290
  58.7381810  52.8965420  43.9809320  60.8180350  63.0130420  42.1812890
  60.4849730  63.6399340  42.8233960  60.9947030  63.5392300  41.4014560
  69.3314260  56.8275500  39.6489230  68.6269830  57.1160390  40.2292340
  69.6926420  57.6375610  39.2888790  59.2492830  55.0845200  42.0109840
  59.5909640  55.9287250  41.7163710  58.3108640  55.2328940  42.1275180
  62.9320720  52.5727470  38.3354430  63.2395700  52.0174360  37.6189930
  62.0021420  52.7071930  38.1527420  67.8821220  63.1924600  41.9544500
  68.2990010  62.9784710  41.1197960  68.6061040  63.4497390  42.5253120
  65.3201480  60.6376300  35.0714550  64.3930760  60.5713680  35.3003020
  65.4726300  61.5756430  34.9569790  65.3070560  56.9093300  32.0681710
  64.3674230  57.0707260  32.1534170  65.6253820  57.6278980  31.5217700
  69.3498770  62.1996600  35.5749800  68.7311190  61.8616150  34.9276100
  69.3323220  61.5556360  36.2828990  68.7925330  58.3781140  42.9915610
  68.3796510  59.2034850  43.2455600  68.0601280  57.7926180  42.7991970
  60.9258120  61.1641040  37.8534280  60.5215120  60.4518290  37.3580180
  61.0121240  60.8194280  38.7422320  59.6386740  57.9384250  41.6333320
  60.1901330  58.0479590  40.8586570  60.1530250  58.3121850  42.3488550
  67.5263470  61.4383410  32.5822550  67.9656750  60.6005840  32.4360370
  68.2391890  62.0712810  32.6686690  59.3129470  61.4603610  45.2438660
  59.1737240  62.3326410  45.6126060  58.4310830  61.1176420  45.0986600
  57.6262750  60.0586020  35.3540930  57.5060350  60.7848110  34.7422200
  57.3163640  59.2888930  34.8768840  55.2648120  63.2301160  41.1609570
  55.3428540  63.3649930  40.2165290  55.8789800  62.5217050  41.3537690
  60.0926410  53.4021090  38.7364600  59.6494560  54.1830630  38.4049120
  60.6511400  53.7250980  39.4435540  64.3796220  56.2689610  44.3399920
  63.9175590  56.4772630  45.1519860  63.9774330  55.4548960  44.0370590
  69.3800730  57.4898560  45.4696580  68.5294320  57.1904310  45.7905650
  69.2202520  57.7340570  44.5580400  66.4750440  58.9900310  47.5695370
  66.8003850  58.1564060  47.2297600  67.2630770  59.5128830  47.7173700
  63.2085230  53.0231790  33.6170430  62.5839410  53.0191660  34.3423740
  63.1215350  52.1562750  33.2206400  62.1302310  53.9468420  40.5954200
  62.4274640  54.8531250  40.5146220  62.6787870  53.4587200  39.9813770
  59.8840630  58.5254660  36.4645850  59.6581550  58.3091830  37.3692470
  59.1033160  58.9583120  36.1191820  67.1138390  58.5318030  35.0636500
  66.5147280  59.2553830  34.8800120  67.6618000  58.4694810  34.2812950
  62.3239840  59.4240240  47.1306120  62.2283440  58.4834970  46.9806520
  63.1671820  59.6455310  46.7354190  65.7203260  57.1681570  37.0939780
  66.1132830  57.4853770  36.2808470  66.0820110  56.2893450  37.2084300
  57.4550380  55.8353910  45.2839900  57.0613770  56.6829120  45.4912680
  56.7668780  55.1980280  45.4748540  64.0295430  55.9188880  48.3536640
  63.3393750  55.7261080  48.9882730  64.7727730  56.2023520  48.8860940
  54.7567430  53.7582370  39.3169980  54.4680480  54.3285230  40.0294960
  55.5013190  53.2786820  39.6801210  54.9437660  57.7002490  30.5272700
  54.8612330  58.6433250  30.6687690  54.5920720  57.5577400  29.6485050
  66.3058400  59.7587320  41.1890560  65.5739520  60.2674130  41.5380660
  65.9082740  58.9417300  40.8879340  62.7435790  56.4341520  39.5943050
  62.7471850  55.9931470  38.7447590  63.6386910  56.7558850  39.7014870
  58.5938170  56.3168010  38.5537260  58.2538220  56.7943240  39.3104310
  57.8315490  55.8633130  38.1938360  62.8055940  57.4353600  32.5849810
  62.9268760  57.3940080  33.5335630  62.4204450  58.2977750  32.4296540
  66.7684310  55.2121000  40.6013500  66.7857050  55.6629650  41.4455350
  66.5199890  54.3126640  40.8146940  61.8177440  59.7454740  31.9833110
  61.2494340  59.2972990  31.3569020  62.5266440  60.1047520  31.4498260
  63.0443760  60.4943300  41.3408460  63.4113890  60.0201870  42.0869800
  62.8548820  61.3684870  41.6816800  55.9084250  55.2386990  37.4701930
  55.6231170  54.8742660  38.3080550  55.8463110  54.5067450  36.8565070
  60.8343130  59.5351940  43.6592670  60.5300200  60.4143920  43.8843030
  61.7889590  59.5951730  43.6950110  59.3624920  63.7412930  34.2559520
  58.5887180  63.2010550  34.0958240  60.0919550  63.2219540  33.9177280
  65.5822840  54.1316250  34.1915300  64.7687450  53.6329420  34.1160610
  65.3884790  54.9714500  33.7751650  65.5031700  62.8087350  45.9354910
  65.4369010  61.8883020  45.6812500  64.8736840  62.9062790  46.6499550
  68.2971230  58.5035900  32.4877460  69.1850850  58.8153130  32.3128800
  68.2676320  57.6308150  32.0958040  59.4062320  63.4093310  37.8938330
  59.9240990  62.6061570  37.8395220  58.9546340  63.3472450  38.7355160
  56.8906860  60.3754680  44.8064030  56.5321800  61.0408530  45.3937370
  56.5961420  59.5438230  45.1776650  60.0919980  60.8338920  47.6903580
  59.7920120  60.9796100  46.7931400  60.8631220  60.2744210  47.5976970
  55.4014910  60.3745940  31.4298630  56.2709760  60.6570740  31.7134550
  54.9105230  61.1881810  31.3147440  62.5649720  61.7619150  35.5506910
  63.0212500  62.5724400  35.7767100  62.2137930  61.4442290  36.3825400
  58.4661500  52.1056800  36.0229430  58.3376130  52.0974700  36.9714350
  57.6423520  52.4439890  35.6720440  55.4655430  53.8647920  45.4836130
  54.7513950  54.0644840  46.0888740  55.8850470  53.0887490  45.8550930
  57.3861420  62.1919410  33.5580690  56.7789370  62.9318310  33.5675990
  57.8610770  62.2818770  32.7318890  66.9594210  56.3570230  43.2337580
  67.3275030  55.5365440  43.5617150  66.0992410  56.4172120  43.6493230
  62.2940270  57.5913120  35.4583020  61.5856420  58.0599460  35.8996630
  62.5784750  56.9335130  36.0928210  63.9196200  59.0109820  43.4575550
  64.4181450  59.4855640  44.1227400  64.0619150  58.0873340  43.6645580
  66.3255700  54.3163780  36.8978810  66.2023480  54.3349910  35.9488320
  67.2740260  54.3642720  37.0177210  60.4975290  55.8998200  32.8333730
  61.3465820  56.3368350  32.7673920  60.1306560  56.2118460  33.6605790
  69.4185070  60.4710960  37.7465300  68.4775210  60.4861190  37.9212990
  69.7329140  59.6846920  38.1925600  59.3966710  62.1530560  31.3069260
  60.1629980  62.0411920  31.8694690  59.4741400  61.4568530  30.6546030
  58.0913470  59.5855630  31.9902150  58.1717060  58.6383140  32.1019550
  58.9833220  59.9162510  32.0962810  55.6184270  61.4070550  47.2258320
  56.1223290  60.8277830  47.7974550  54.8791690  61.6910780  47.7634690
  62.6722210  62.8141540  46.7593840  61.9067880  63.3826540  46.6748510
  62.8538170  62.5217750  45.8662070  65.7610620  63.1904770  31.3846600
  65.2120720  63.6374070  32.0289340  66.3829880  62.6854020  31.9084270
  57.6507350  59.5500140  48.1208390  57.6912690  59.2514010  49.0293620
  58.5052850  59.9507750  47.9615910  61.4285740  62.1495690  33.2811900
  61.8502160  61.9835560  34.1243290  61.5536580  61.3395920  32.7867040
  59.5913160  58.1292240  46.0882880  59.0609620  57.6383190  45.4606220
  60.2601230  58.5576440  45.5540810  63.9413380  61.1733300  30.5289000
  64.4619040  60.4582320  30.1630150  64.5881780  61.8119170  30.8289510
  68.4891220  62.5961700  45.8524070  68.9032240  62.7506780  46.7014490
  67.5542220  62.7216920  46.0149850  68.9613390  59.9357860  47.8563220
  69.5434160  59.1810180  47.7683700  69.1375160  60.4665300  47.0794700
  60.0785460  55.0954610  46.1680170  59.9842330  54.4775360  45.4431040
  59.4982850  55.8220900  45.9410080  62.8446900  53.6527850  43.2007560
  62.3964200  53.6752110  42.3553110  62.2112100  53.2546870  43.7977860
  63.2506450  62.5482180  43.8220000  63.6694560  63.3914910  43.6496240
  62.3315080  62.6854220  43.5926780  65.5870350  60.2798360  45.2057840
  65.7066560  59.6839500  45.9452680  66.4464350  60.3168050  44.7859140
  67.9258250  60.8335550  43.7820350  67.3993470  61.3578170  43.1785490
  68.2689590  61.4662940  44.4130080  60.3244640  58.2228920  30.2270060
  60.1233700  57.3596280  30.5883400  60.1536690  58.1362280  29.2891660
  62.3539120  56.8219710  46.4633660  62.9438810  56.5135560  47.1511480
  61.5359360  56.3499460  46.6193560  67.1732550  56.4385520  46.6966680
  66.4848070  55.7767060  46.6316670  67.8938570  55.9923790  47.1415140
  67.8032950  53.0337150  32.7556940  68.0835240  52.1905050  33.1116360
  67.0298680  53.2660260  33.2695690  59.1227440  55.3229540  30.2147940
  59.4253340  55.3296970  29.3067090  59.8622030  54.9727400  30.7115600
  62.3412370  54.2664160  31.2004140  61.9934370  53.5888150  30.6206590
  62.5425140  53.8053670  32.0147530  55.6818010  60.7951810  37.5968510
  55.0266850  60.5263450  36.9528210  56.5195960  60.6856290  37.1470490
  68.6308450  55.5893100  31.8187000  69.0493330  55.4024080  30.9783660
  68.3244510  54.7372150  32.1289930  56.7193940  61.1804380  42.1371850
  57.0866980  61.0931780  43.0167870  56.1504760  60.4170930  42.0378710
  56.2709940  58.0913470  46.0430270  55.3765990  58.0580230  46.3823980
  56.8107490  58.2900260  46.8081520  54.8956090  58.0050740  33.5393840
  53.9920170  58.2680940  33.3645500  55.3796710  58.2761910  32.7593800
  57.4383300  57.0616280  31.4488220  58.1475000  56.6399500  30.9635500
  56.7223240  57.1291510  30.8171570  57.0857460  53.1155610  30.4890870
  57.8085590  53.6564550  30.8072090  57.3581980  52.8419030  29.6132410
  56.7749650  52.3661800  40.3913490  57.4225840  51.8159180  39.9508650
  57.1951490  52.6204950  41.2129300  56.5281650  52.5217470  43.1338810
  56.1796470  52.9781290  43.8996990  56.1969350  51.6274600  43.2161240
  64.0406470  53.7129350  46.6558230  63.9795360  54.3051180  47.4053640
  64.9806850  53.6055310  46.5108490  66.6781030  53.3699410  46.2950520
  67.2921440  53.6878700  45.6331600  67.2230590  52.8848000  46.9146380
  57.2002290  52.0493670  46.4089580  57.7485280  51.8681720  45.6455690
  57.2657600  51.2587780  46.9445890  67.4189070  51.9331550  42.6219810
  66.5448910  52.2666660  42.4192740  67.3099820  51.4604730  43.4471680
  68.3261050  54.1402420  44.0061530  67.9974410  53.3254180  43.6263260
  69.2743350  54.0972230  43.8827220  65.1663890  52.8501390  41.5612720
  64.3835680  53.3246890  41.8409480  64.8726820  51.9456220  41.4525900
  56.5104300  53.1548870  34.0826440  57.2683660  53.2677750  33.5090470
  56.0481470  53.9918070  34.0369870  63.0518110  55.2688140  37.0728750
  62.2392620  54.8945030  36.7324630  63.5559750  54.5133220  37.3749940
  67.5543090  51.9330590  38.3111820  68.1572460  52.5050800  38.7860340
  66.8136080  52.4970030  38.0885720  58.8829450  53.6812920  32.6228410
  59.4122210  52.8942720  32.4936360  59.5157770  54.3604110  32.8563940
  61.0767290  53.4188060  35.6773800  60.4470030  52.7175370  35.8443930
  60.5372430  54.1792190  35.4606960  61.2022850  52.6972040  48.1126290
  60.9207120  53.2005640  47.3487110  61.5842550  51.8993790  47.7468420
  67.8038310  52.1125620  48.6906760  67.6903760  52.4320230  49.5858280
  68.6208050  52.5138130  48.3944040  66.7096460  60.1318090  19.0541500
  66.6290510  59.2172700  18.7833210  66.2960880  60.6285160  18.3481210
  64.8414500  61.9097110  20.9350770  64.0656600  61.4297550  21.2249340
  65.4927430  61.2302760  20.7606930  58.8580330  62.2216920  21.8126530
  58.0265210  61.9665630  22.2123040  59.4661310  62.2927690  22.5484450
  57.2672280  57.1818810  15.5968920  56.3788980  57.5234780  15.4948800
  57.5513470  56.9819130  14.7049750  55.2305290  59.7824460  21.4808620
  55.8021400  59.0146660  21.4812260  55.2306830  60.0813220  20.5715230
  56.4730160  55.1908820  23.2677550  56.2933000  54.2934570  23.5480310
  56.0710240  55.7380690  23.9424500  65.3128660  57.3924680  21.1689860
  65.6893480  56.5196560  21.0563530  65.2148170  57.7283380  20.2780300
  59.4433670  55.7650310  16.6307300  59.5500420  56.6654040  16.9376060
  58.5326030  55.7168280  16.3401950  69.0952780  54.8875120  18.1018200
  69.9162400  54.3971690  18.1443680  69.1286860  55.4772780  18.8550040
  57.0916830  57.6869320  21.8759890  57.7726940  57.9507690  22.4947290
  56.7764880  56.8470190  22.2097900  61.2841400  58.7336680  20.9632480
  61.7919620  59.2317650  21.6037500  61.8154640  57.9571880  20.7871840
  59.5677500  53.3735240  25.2295900  59.5695940  53.8907630  24.4241800
  58.7381810  52.8965420  25.2065830  60.8180350  63.0130420  23.4069400
  60.4849730  63.6399340  24.0490470  60.9947030  63.5392300  22.6271070
  69.3314260  56.8275500  20.8745740  68.6269830  57.1160390  21.4548850
  69.6926420  57.6375610  20.5145300  59.2492830  55.0845200  23.2366350
  59.5909640  55.9287250  22.9420220  58.3108640  55.2328940  23.3531690
  62.9320720  52.5727470  19.5610940  63.2395700  52.0174360  18.8446440
  62.0021420  52.7071930  19.3783930  67.8821220  63.1924600  23.1801010
  68.2990010  62.9784710  22.3454470  68.6061040  63.4497390  23.7509630
  65.3201480  60.6376300  16.2971060  64.3930760  60.5713680  16.5259530
  65.4726300  61.5756430  16.1826300  65.3070560  56.9093300  13.2938220
  64.3674230  57.0707260  13.3790680  65.6253820  57.6278980  12.7474210
  69.3498770  62.1996600  16.8006310  68.7311190  61.8616150  16.1532610
  69.3323220  61.5556360  17.5085500  68.7925330  58.3781140  24.2172120
  68.3796510  59.2034850  24.4712110  68.0601280  57.7926180  24.0248480
  60.9258120  61.1641040  19.0790790  60.5215120  60.4518290  18.5836690
  61.0121240  60.8194280  19.9678830  59.6386740  57.9384250  22.8589830
  60.1901330  58.0479590  22.0843080  60.1530250  58.3121850  23.5745060
  67.5263470  61.4383410  13.8079060  67.9656750  60.6005840  13.6616880
  68.2391890  62.0712810  13.8943200  59.3129470  61.4603610  26.4695170
  59.1737240  62.3326410  26.8382570  58.4310830  61.1176420  26.3243110
  57.6262750  60.0586020  16.5797440  57.5060350  60.7848110  15.9678710
  57.3163640  59.2888930  16.1025350  55.2648120  63.2301160  22.3866080
  55.3428540  63.3649930  21.4421800  55.8789800  62.5217050  22.5794200
  60.0926410  53.4021090  19.9621110  59.6494560  54.1830630  19.6305630
  60.6511400  53.7250980  20.6692050  64.3796220  56.2689610  25.5656430
  63.9175590  56.4772630  26.3776370  63.9774330  55.4548960  25.2627100
  69.3800730  57.4898560  26.6953090  68.5294320  57.1904310  27.0162160
  69.2202520  57.7340570  25.7836910  66.4750440  58.9900310  28.7951880
  66.8003850  58.1564060  28.4554110  67.2630770  59.5128830  28.9430210
  63.2085230  53.0231790  14.8426940  62.5839410  53.0191660  15.5680250
  63.1215350  52.1562750  14.4462910  62.1302310  53.9468420  21.8210710
  62.4274640  54.8531250  21.7402730  62.6787870  53.4587200  21.2070280
  59.8840630  58.5254660  17.6902360  59.6581550  58.3091830  18.5948980
  59.1033160  58.9583120  17.3448330  67.1138390  58.5318030  16.2893010
  66.5147280  59.2553830  16.1056630  67.6618000  58.4694810  15.5069460
  62.3239840  59.4240240  28.3562630  62.2283440  58.4834970  28.2063030
  63.1671820  59.6455310  27.9610700  65.7203260  57.1681570  18.3196290
  66.1132830  57.4853770  17.5064980  66.0820110  56.2893450  18.4340810
  57.4550380  55.8353910  26.5096410  57.0613770  56.6829120  26.7169190
  56.7668780  55.1980280  26.7005050  64.0295430  55.9188880  29.5793150
  63.3393750  55.7261080  30.2139240  64.7727730  56.2023520  30.1117450
  54.7567430  53.7582370  20.5426490  54.4680480  54.3285230  21.2551470
  55.5013190  53.2786820  20.9057720  54.9437660  57.7002490  11.7529210
  54.8612330  58.6433250  11.8944200  54.5920720  57.5577400  10.8741560
  66.3058400  59.7587320  22.4147070  65.5739520  60.2674130  22.7637170
  65.9082740  58.9417300  22.1135850  62.7435790  56.4341520  20.8199560
  62.7471850  55.9931470  19.9704100  63.6386910  56.7558850  20.9271380
  58.5938170  56.3168010  19.7793770  58.2538220  56.7943240  20.5360820
  57.8315490  55.8633130  19.4194870  62.8055940  57.4353600  13.8106320
  62.9268760  57.3940080  14.7592140  62.4204450  58.2977750  13.6553050
  66.7684310  55.2121000  21.8270010  66.7857050  55.6629650  22.6711860
  66.5199890  54.3126640  22.0403450  61.8177440  59.7454740  13.2089620
  61.2494340  59.2972990  12.5825530  62.5266440  60.1047520  12.6754770
  63.0443760  60.4943300  22.5664970  63.4113890  60.0201870  23.3126310
  62.8548820  61.3684870  22.9073310  55.9084250  55.2386990  18.6958440
  55.6231170  54.8742660  19.5337060  55.8463110  54.5067450  18.0821580
  60.8343130  59.5351940  24.8849180  60.5300200  60.4143920  25.1099540
  61.7889590  59.5951730  24.9206620  59.3624920  63.7412930  15.4816030
  58.5887180  63.2010550  15.3214750  60.0919550  63.2219540  15.1433790
  65.5822840  54.1316250  15.4171810  64.7687450  53.6329420  15.3417120
  65.3884790  54.9714500  15.0008160  65.5031700  62.8087350  27.1611420
  65.4369010  61.8883020  26.9069010  64.8736840  62.9062790  27.8756060
  68.2971230  58.5035900  13.7133970  69.1850850  58.8153130  13.5385310
  68.2676320  57.6308150  13.3214550  59.4062320  63.4093310  19.1194840
  59.9240990  62.6061570  19.0651730  58.9546340  63.3472450  19.9611670
  56.8906860  60.3754680  26.0320540  56.5321800  61.0408530  26.6193880
  56.5961420  59.5438230  26.4033160  60.0919980  60.8338920  28.9160090
  59.7920120  60.9796100  28.0187910  60.8631220  60.2744210  28.8233480
  55.4014910  60.3745940  12.6555140  56.2709760  60.6570740  12.9391060
  54.9105230  61.1881810  12.5403950  62.5649720  61.7619150  16.7763420
  63.0212500  62.5724400  17.0023610  62.2137930  61.4442290  17.6081910
  58.4661500  52.1056800  17.2485940  58.3376130  52.0974700  18.1970860
  57.6423520  52.4439890  16.8976950  55.4655430  53.8647920  26.7092640
  54.7513950  54.0644840  27.3145250  55.8850470  53.0887490  27.0807440
  57.3861420  62.1919410  14.7837200  56.7789370  62.9318310  14.7932500
  57.8610770  62.2818770  13.9575400  66.9594210  56.3570230  24.4594090
  67.3275030  55.5365440  24.7873660  66.0992410  56.4172120  24.8749740
  62.2940270  57.5913120  16.6839530  61.5856420  58.0599460  17.1253140
  62.5784750  56.9335130  17.3184720  63.9196200  59.0109820  24.6832060
  64.4181450  59.4855640  25.3483910  64.0619150  58.0873340  24.8902090
  66.3255700  54.3163780  18.1235320  66.2023480  54.3349910  17.1744830
  67.2740260  54.3642720  18.2433720  60.4975290  55.8998200  14.0590240
  61.3465820  56.3368350  13.9930430  60.1306560  56.2118460  14.8862300
  69.4185070  60.4710960  18.9721810  68.4775210  60.4861190  19.1469500
  69.7329140  59.6846920  19.4182110  59.3966710  62.1530560  12.5325770
  60.1629980  62.0411920  13.0951200  59.4741400  61.4568530  11.8802540
  58.0913470  59.5855630  13.2158660  58.1717060  58.6383140  13.3276060
  58.9833220  59.9162510  13.3219320  55.6184270  61.4070550  28.4514830
  56.1223290  60.8277830  29.0231060  54.8791690  61.6910780  28.9891200
  62.6722210  62.8141540  27.9850350  61.9067880  63.3826540  27.9005020
  62.8538170  62.5217750  27.0918580  65.7610620  63.1904770  12.6103110
  65.2120720  63.6374070  13.2545850  66.3829880  62.6854020  13.1340780
  57.6507350  59.5500140  29.3464900  57.6912690  59.2514010  30.2550130
  58.5052850  59.9507750  29.1872420  61.4285740  62.1495690  14.5068410
  61.8502160  61.9835560  15.3499800  61.5536580  61.3395920  14.0123550
  59.5913160  58.1292240  27.3139390  59.0609620  57.6383190  26.6862730
  60.2601230  58.5576440  26.7797320  63.9413380  61.1733300  11.7545510
  64.4619040  60.4582320  11.3886660  64.5881780  61.8119170  12.0546020
  68.4891220  62.5961700  27.0780580  68.9032240  62.7506780  27.9271000
  67.5542220  62.7216920  27.2406360  68.9613390  59.9357860  29.0819730
  69.5434160  59.1810180  28.9940210  69.1375160  60.4665300  28.3051210
  60.0785460  55.0954610  27.3936680  59.9842330  54.4775360  26.6687550
  59.4982850  55.8220900  27.1666590  62.8446900  53.6527850  24.4264070
  62.3964200  53.6752110  23.5809620  62.2112100  53.2546870  25.0234370
  63.2506450  62.5482180  25.0476510  63.6694560  63.3914910  24.8752750
  62.3315080  62.6854220  24.8183290  65.5870350  60.2798360  26.4314350
  65.7066560  59.6839500  27.1709190  66.4464350  60.3168050  26.0115650
  67.9258250  60.8335550  25.0076860  67.3993470  61.3578170  24.4042000
  68.2689590  61.4662940  25.6386590  60.3244640  58.2228920  11.4526570
  60.1233700  57.3596280  11.8139910  60.1536690  58.1362280  10.5148170
  62.3539120  56.8219710  27.6890170  62.9438810  56.5135560  28.3767990
  61.5359360  56.3499460  27.8450070  67.1732550  56.4385520  27.9223190
  66.4848070  55.7767060  27.8573180  67.8938570  55.9923790  28.3671650
  67.8032950  53.0337150  13.9813450  68.0835240  52.1905050  14.3372870
  67.0298680  53.2660260  14.4952200  59.1227440  55.3229540  11.4404450
  59.4253340  55.3296970  10.5323600  59.8622030  54.9727400  11.9372110
  62.3412370  54.2664160  12.4260650  61.9934370  53.5888150  11.8463100
  62.5425140  53.8053670  13.2404040  55.6818010  60.7951810  18.8225020
  55.0266850  60.5263450  18.1784720  56.5195960  60.6856290  18.3727000
  68.6308450  55.5893100  13.0443510  69.0493330  55.4024080  12.2040170
  68.3244510  54.7372150  13.3546440  56.7193940  61.1804380  23.3628360
  57.0866980  61.0931780  24.2424380  56.1504760  60.4170930  23.2635220
  56.2709940  58.0913470  27.2686780  55.3765990  58.0580230  27.6080490
  56.8107490  58.2900260  28.0338030  54.8956090  58.0050740  14.7650350
  53.9920170  58.2680940  14.5902010  55.3796710  58.2761910  13.9850310
  57.4383300  57.0616280  12.6744730  58.1475000  56.6399500  12.1892010
  56.7223240  57.1291510  12.0428080  57.0857460  53.1155610  11.7147380
  57.8085590  53.6564550  12.0328600  57.3581980  52.8419030  10.8388920
  56.7749650  52.3661800  21.6170000  57.4225840  51.8159180  21.1765160
  57.1951490  52.6204950  22.4385810  56.5281650  52.5217470  24.3595320
  56.1796470  52.9781290  25.1253500  56.1969350  51.6274600  24.4417750
  64.0406470  53.7129350  27.8814740  63.9795360  54.3051180  28.6310150
  64.9806850  53.6055310  27.7365000  66.6781030  53.3699410  27.5207030
  67.2921440  53.6878700  26.8588110  67.2230590  52.8848000  28.1402890
  57.2002290  52.0493670  27.6346090  57.7485280  51.8681720  26.8712200
  57.2657600  51.2587780  28.1702400  67.4189070  51.9331550  23.8476320
  66.5448910  52.2666660  23.6449250  67.3099820  51.4604730  24.6728190
  68.3261050  54.1402420  25.2318040  67.9974410  53.3254180  24.8519770
  69.2743350  54.0972230  25.1083730  65.1663890  52.8501390  22.7869230
  64.3835680  53.3246890  23.0665990  64.8726820  51.9456220  22.6782410
  56.5104300  53.1548870  15.3082950  57.2683660  53.2677750  14.7346980
  56.0481470  53.9918070  15.2626380  63.0518110  55.2688140  18.2985260
  62.2392620  54.8945030  17.9581140  63.5559750  54.5133220  18.6006450
  67.5543090  51.9330590  19.5368330  68.1572460  52.5050800  20.0116850
  66.8136080  52.4970030  19.3142230  58.8829450  53.6812920  13.8484920
  59.4122210  52.8942720  13.7192870  59.5157770  54.3604110  14.0820450
  61.0767290  53.4188060  16.9030310  60.4470030  52.7175370  17.0700440
  60.5372430  54.1792190  16.6863470  61.2022850  52.6972040  29.3382800
  60.9207120  53.2005640  28.5743620  61.5842550  51.8993790  28.9724930
  67.8038310  52.1125620  29.9163270  67.6903760  52.4320230  30.8114790
  68.6208050  52.5138130  29.6200550  64.8414500  61.9097110   2.1607280
  64.0656600  61.4297550   2.4505850  65.4927430  61.2302760   1.9863440
  58.8580330  62.2216920   3.0383040  58.0265210  61.9665630   3.4379550
  59.4661310  62.2927690   3.7740960  55.2305290  59.7824460   2.7065130
  55.8021400  59.0146660   2.7068770  55.2306830  60.0813220   1.7971740
  56.4730160  55.1908820   4.4934060  56.2933000  54.2934570   4.7736820
  56.0710240  55.7380690   5.1681010  57.0916830  57.6869320   3.1016400
  57.7726940  57.9507690   3.7203800  56.7764880  56.8470190   3.4354410
  61.2841400  58.7336680   2.1888990  61.7919620  59.2317650   2.8294010
  61.8154640  57.9571880   2.0128350  59.5677500  53.3735240   6.4552410
  59.5695940  53.8907630   5.6498310  58.7381810  52.8965420   6.4322340
  60.8180350  63.0130420   4.6325910  60.4849730  63.6399340   5.2746980
  60.9947030  63.5392300   3.8527580  69.3314260  56.8275500   2.1002250
  68.6269830  57.1160390   2.6805360  69.6926420  57.6375610   1.7401810
  59.2492830  55.0845200   4.4622860  59.5909640  55.9287250   4.1676730
  58.3108640  55.2328940   4.5788200  67.8821220  63.1924600   4.4057520
  68.2990010  62.9784710   3.5710980  68.6061040  63.4497390   4.9766140
  68.7925330  58.3781140   5.4428630  68.3796510  59.2034850   5.6968620
  68.0601280  57.7926180   5.2504990  59.6386740  57.9384250   4.0846340
  60.1901330  58.0479590   3.3099590  60.1530250  58.3121850   4.8001570
  59.3129470  61.4603610   7.6951680  59.1737240  62.3326410   8.0639080
  58.4310830  61.1176420   7.5499620  55.2648120  63.2301160   3.6122590
  55.3428540  63.3649930   2.6678310  55.8789800  62.5217050   3.8050710
  64.3796220  56.2689610   6.7912940  63.9175590  56.4772630   7.6032880
  63.9774330  55.4548960   6.4883610  69.3800730  57.4898560   7.9209600
  68.5294320  57.1904310   8.2418670  69.2202520  57.7340570   7.0093420
  66.4750440  58.9900310  10.0208390  66.8003850  58.1564060   9.6810620
  67.2630770  59.5128830  10.1686720  62.1302310  53.9468420   3.0467220
  62.4274640  54.8531250   2.9659240  62.6787870  53.4587200   2.4326790
  62.3239840  59.4240240   9.5819140  62.2283440  58.4834970   9.4319540
  63.1671820  59.6455310   9.1867210  57.4550380  55.8353910   7.7352920
  57.0613770  56.6829120   7.9425700  56.7668780  55.1980280   7.9261560
  64.0295430  55.9188880  10.8049660  63.3393750  55.7261080  11.4395750
  64.7727730  56.2023520  11.3373960  54.7567430  53.7582370   1.7683000
  54.4680480  54.3285230   2.4807980  55.5013190  53.2786820   2.1314230
  66.3058400  59.7587320   3.6403580  65.5739520  60.2674130   3.9893680
  65.9082740  58.9417300   3.3392360  66.7684310  55.2121000   3.0526520
  66.7857050  55.6629650   3.8968370  66.5199890  54.3126640   3.2659960
  63.0443760  60.4943300   3.7921480  63.4113890  60.0201870   4.5382820
  62.8548820  61.3684870   4.1329820  60.8343130  59.5351940   6.1105690
  60.5300200  60.4143920   6.3356050  61.7889590  59.5951730   6.1463130
  65.5031700  62.8087350   8.3867930  65.4369010  61.8883020   8.1325520
  64.8736840  62.9062790   9.1012570  56.8906860  60.3754680   7.2577050
  56.5321800  61.0408530   7.8450390  56.5961420  59.5438230   7.6289670
  60.0919980  60.8338920  10.1416600  59.7920120  60.9796100   9.2444420
  60.8631220  60.2744210  10.0489990  55.4655430  53.8647920   7.9349150
  54.7513950  54.0644840   8.5401760  55.8850470  53.0887490   8.3063950
  66.9594210  56.3570230   5.6850600  67.3275030  55.5365440   6.0130170
  66.0992410  56.4172120   6.1006250  63.9196200  59.0109820   5.9088570
  64.4181450  59.4855640   6.5740420  64.0619150  58.0873340   6.1158600
  55.6184270  61.4070550   9.6771340  56.1223290  60.8277830  10.2487570
  54.8791690  61.6910780  10.2147710  62.6722210  62.8141540   9.2106860
  61.9067880  63.3826540   9.1261530  62.8538170  62.5217750   8.3175090
  57.6507350  59.5500140  10.5721410  57.6912690  59.2514010  11.4806640
  58.5052850  59.9507750  10.4128930  59.5913160  58.1292240   8.5395900
  59.0609620  57.6383190   7.9119240  60.2601230  58.5576440   8.0053830
  68.4891220  62.5961700   8.3037090  68.9032240  62.7506780   9.1527510
  67.5542220  62.7216920   8.4662870  68.9613390  59.9357860  10.3076240
  69.5434160  59.1810180  10.2196720  69.1375160  60.4665300   9.5307720
  60.0785460  55.0954610   8.6193190  59.9842330  54.4775360   7.8944060
  59.4982850  55.8220900   8.3923100  62.8446900  53.6527850   5.6520580
  62.3964200  53.6752110   4.8066130  62.2112100  53.2546870   6.2490880
  63.2506450  62.5482180   6.2733020  63.6694560  63.3914910   6.1009260
  62.3315080  62.6854220   6.0439800  65.5870350  60.2798360   7.6570860
  65.7066560  59.6839500   8.3965700  66.4464350  60.3168050   7.2372160
  67.9258250  60.8335550   6.2333370  67.3993470  61.3578170   5.6298510
  68.2689590  61.4662940   6.8643100  62.3539120  56.8219710   8.9146680
  62.9438810  56.5135560   9.6024500  61.5359360  56.3499460   9.0706580
  67.1732550  56.4385520   9.1479700  66.4848070  55.7767060   9.0829690
  67.8938570  55.9923790   9.5928160  56.7193940  61.1804380   4.5884870
  57.0866980  61.0931780   5.4680890  56.1504760  60.4170930   4.4891730
  56.2709940  58.0913470   8.4943290  55.3765990  58.0580230   8.8337000
  56.8107490  58.2900260   9.2594540  56.7749650  52.3661800   2.8426510
  57.4225840  51.8159180   2.4021670  57.1951490  52.6204950   3.6642320
  56.5281650  52.5217470   5.5851830  56.1796470  52.9781290   6.3510010
  56.1969350  51.6274600   5.6674260  64.0406470  53.7129350   9.1071250
  63.9795360  54.3051180   9.8566660  64.9806850  53.6055310   8.9621510
  66.6781030  53.3699410   8.7463540  67.2921440  53.6878700   8.0844620
  67.2230590  52.8848000   9.3659400  57.2002290  52.0493670   8.8602600
  57.7485280  51.8681720   8.0968710  57.2657600  51.2587780   9.3958910
  67.4189070  51.9331550   5.0732830  66.5448910  52.2666660   4.8705760
  67.3099820  51.4604730   5.8984700  68.3261050  54.1402420   6.4574550
  67.9974410  53.3254180   6.0776280  69.2743350  54.0972230   6.3340240
  65.1663890  52.8501390   4.0125740  64.3835680  53.3246890   4.2922500
  64.8726820  51.9456220   3.9038920  61.2022850  52.6972040  10.5639310
  60.9207120  53.2005640   9.8000130  61.5842550  51.8993790  10.1981440
  67.8038310  52.1125620  11.1419780  67.6903760  52.4320230  12.0371300
  68.6208050  52.5138130  10.8457060  66.7096460  41.3574600  75.3771970
  66.6290510  40.4429210  75.1063680  66.2960880  41.8541670  74.6711680
  68.8621930  47.5413810  76.0380370  68.4003460  46.7701050  76.3667540
  69.6747480  47.5679880  76.5432820  57.2672280  38.4075320  71.9199390
  56.3788980  38.7491290  71.8179270  57.5513470  38.2075640  71.0280220
  65.0885240  49.8271820  75.6584360  64.4696680  50.2829320  75.0878800
  65.9437020  49.9823280  75.2574060  59.4433670  36.9906820  72.9537770
  59.5500420  37.8910550  73.2606530  58.5326030  36.9424790  72.6632420
  69.0952780  36.1131630  74.4248670  69.9162400  35.6228200  74.4674150
  69.1286860  36.7029290  75.1780510  65.9548590  44.7111060  73.0516270
  65.3365860  45.1760510  72.4878990  66.4671840  45.4038540  73.4685780
  55.3231790  45.3967590  70.4255900  54.9459770  45.8854690  69.6940800
  55.5804860  46.0692870  71.0562430  62.9320720  33.7983980  75.8841410
  63.2395700  33.2430870  75.1676910  62.0021420  33.9328440  75.7014400
  69.7781200  46.2367490  73.2639040  69.6677530  45.2941820  73.3888460
  69.7749450  46.5983130  74.1501800  65.3201480  41.8632810  72.6201530
  64.3930760  41.7970190  72.8490000  65.4726300  42.8012940  72.5056770
  65.3070560  38.1349810  69.6168690  64.3674230  38.2963770  69.7021150
  65.6253820  38.8535490  69.0704680  69.3498770  43.4253110  73.1236780
  68.7311190  43.0872660  72.4763080  69.3323220  42.7812870  73.8315970
  60.9258120  42.3897550  75.4021260  60.5215120  41.6774800  74.9067160
  61.0121240  42.0450790  76.2909300  67.5263470  42.6639920  70.1309530
  67.9656750  41.8262350  69.9847350  68.2391890  43.2969320  70.2173670
  65.6358850  47.6035990  74.0990770  66.0754760  48.3460320  73.6846160
  65.5745740  47.8462560  75.0229730  57.6262750  41.2842530  72.9027910
  57.5060350  42.0104620  72.2909180  57.3163640  40.5145440  72.4255820
  56.5095750  46.1557860  75.1202730  56.1023830  46.2972450  74.2656330
  57.4008760  45.8718020  74.9173940  68.3029030  50.5905110  71.4553780
  68.1430170  50.3008050  72.3535610  68.1375740  49.8145240  70.9199010
  60.7817410  50.3703640  73.2325400  60.6059890  49.4539180  73.0193200
  59.9273150  50.7290930  73.4723200  68.0055160  48.0992670  70.0151780
  67.3120320  48.0969960  69.3554060  68.7478020  47.6751990  69.5845950
  67.5705090  49.7255380  74.0900270  68.0262040  48.9444760  74.4038890
  67.9097610  50.4362200  74.6341450  60.0926410  34.6277600  76.2851580
  59.6494560  35.4087140  75.9536100  60.6511400  34.9507490  76.9922520
  63.2085230  34.2488300  71.1657410  62.5839410  34.2448170  71.8910720
  63.1215350  33.3819260  70.7693380  59.8840630  39.7511170  74.0132830
  59.6581550  39.5348340  74.9179450  59.1033160  40.1839630  73.6678800
  67.1138390  39.7574540  72.6123480  66.5147280  40.4810340  72.4287100
  67.6618000  39.6951320  71.8299930  65.7203260  38.3938080  74.6426760
  66.1132830  38.7110280  73.8295450  66.0820110  37.5149960  74.7571280
  54.9437660  38.9259000  68.0759680  54.8612330  39.8689760  68.2174670
  54.5920720  38.7833910  67.1972030  58.5938170  37.5424520  76.1024240
  58.2538220  38.0199750  76.8591290  57.8315490  37.0889640  75.7425340
  62.8055940  38.6610110  70.1336790  62.9268760  38.6196590  71.0822610
  62.4204450  39.5234260  69.9783520  61.8177440  40.9711250  69.5320090
  61.2494340  40.5229500  68.9056000  62.5266440  41.3304030  68.9985240
  55.9084250  36.4643500  75.0188910  55.6231170  36.0999170  75.8567530
  55.8463110  35.7323960  74.4052050  59.3624920  44.9669440  71.8046500
  58.5887180  44.4267060  71.6445220  60.0919550  44.4476050  71.4664260
  65.5822840  35.3572760  71.7402280  64.7687450  34.8585930  71.6647590
  65.3884790  36.1971010  71.3238630  68.2971230  39.7292410  70.0364440
  69.1850850  40.0409640  69.8615780  68.2676320  38.8564660  69.6445020
  59.4062320  44.6349820  75.4425310  59.9240990  43.8318080  75.3882200
  58.9546340  44.5728960  76.2842140  64.2931820  45.9016100  70.7152610
  64.6347520  46.6458330  70.2195930  63.4644530  46.2147220  71.0777440
  67.1759230  45.2231940  76.0798120  67.5283050  44.6260070  75.4199490
  66.2921560  44.8976170  76.2506370  63.2622510  45.9829630  73.4868530
  63.9493640  46.5298840  73.8676120  62.4754930  46.5270360  73.5218140
  55.4014910  41.6002450  68.9785610  56.2709760  41.8827250  69.2621530
  54.9105230  42.4138320  68.8634420  62.5649720  42.9875660  73.0993890
  63.0212500  43.7980910  73.3254080  62.2137930  42.6698800  73.9312380
  58.4661500  33.3313310  73.5716410  58.3376130  33.3231210  74.5201330
  57.6423520  33.6696400  73.2207420  69.9870130  46.7862970  68.7702780
  69.7607710  46.0693410  69.3627420  69.5966330  46.5375410  67.9324530
  55.7686160  50.8129830  69.5447240  56.1283800  51.4119170  68.8904510
  55.6278500  51.3589720  70.3182270  61.7854780  48.1961030  70.3620910
  61.7764880  48.9290720  69.7465420  60.8653140  47.9492610  70.4547870
  57.3861420  43.4175920  71.1067670  56.7789370  44.1574820  71.1162970
  57.8610770  43.5075280  70.2805870  64.7714380  48.2589270  69.0246100
  64.8726360  48.0553260  68.0948080  63.8716120  48.0047550  69.2293880
  62.2940270  38.8169630  73.0070000  61.5856420  39.2855970  73.4483610
  62.5784750  38.1591640  73.6415190  66.3255700  35.5420290  74.4465790
  66.2023480  35.5606420  73.4975300  67.2740260  35.5899230  74.5664190
  63.4132490  50.7775590  73.7193770  63.6673990  50.7396980  72.7973140
  62.4644970  50.6508920  73.7122020  60.4975290  37.1254710  70.3820710
  61.3465820  37.5624860  70.3160900  60.1306560  37.4374970  71.2092770
  69.4185070  41.6967470  75.2952280  68.4775210  41.7117700  75.4699970
  69.7329140  40.9103430  75.7412580  59.3966710  43.3787070  68.8556240
  60.1629980  43.2668430  69.4181670  59.4741400  42.6825040  68.2033010
  58.0913470  40.8112140  69.5389130  58.1717060  39.8639650  69.6506530
  58.9833220  41.1419020  69.6449790  58.8928180  50.9607530  76.6423670
  59.6290660  50.4122990  76.9132240  59.2769100  51.8263540  76.5029660
  55.7773660  47.0281100  72.5165180  54.8513440  47.2702240  72.5070590
  56.2430090  47.8555360  72.3949930  62.0030490  50.1337840  68.4649240
  62.7959100  50.4226670  68.0131030  61.4834840  49.7030010  67.7861720
  62.5207890  45.3541250  68.3291590  62.4158530  44.7393600  69.0552970
  62.3532110  44.8307140  67.5454600  65.7610620  44.4161280  68.9333580
  65.2120720  44.8630580  69.5776320  66.3829880  43.9110530  69.4571250
  61.4285740  43.3752200  70.8298880  61.8502160  43.2092070  71.6730270
  61.5536580  42.5652430  70.3354020  63.9413380  42.3989810  68.0775980
  64.4619040  41.6838830  67.7117130  64.5881780  43.0375680  68.3776490
  60.3244640  39.4485430  67.7757040  60.1233700  38.5852790  68.1370380
  60.1536690  39.3618790  66.8378640  67.8032950  34.2593660  70.3043920
  68.0835240  33.4161560  70.6603340  67.0298680  34.4916770  70.8182670
  59.1227440  36.5486050  67.7634920  59.4253340  36.5553480  66.8554070
  59.8622030  36.1983910  68.2602580  62.3412370  35.4920670  68.7491120
  61.9934370  34.8144660  68.1693570  62.5425140  35.0310180  69.5634510
  64.5061410  50.4801420  70.3677720  65.4012200  50.8186390  70.3896480
  64.5379040  49.7580830  69.7402000  58.1457570  45.8528470  68.5964720
  58.5832440  46.3958140  69.2522300  58.6305300  45.0275420  68.6061060
  55.3603370  48.6417500  76.0484980  55.6906380  47.7738560  75.8163620
  55.7894370  48.8476020  76.8789940  59.9565290  46.9726510  73.7086950
  59.6560830  46.8491480  74.6090860  59.8502780  46.1135100  73.3002680
  55.6818010  42.0208320  75.1455490  55.0266850  41.7519960  74.5015190
  56.5195960  41.9112800  74.6957470  68.6308450  36.8149610  69.3673980
  69.0493330  36.6280590  68.5270640  68.3244510  35.9628660  69.6776910
  54.8956090  39.2307250  71.0880820  53.9920170  39.4937450  70.9132480
  55.3796710  39.5018420  70.3080780  57.4383300  38.2872790  68.9975200
  58.1475000  37.8656010  68.5122480  56.7223240  38.3548020  68.3658550
  57.0857460  34.3412120  68.0377850  57.8085590  34.8821060  68.3559070
  57.3581980  34.0675540  67.1619390  55.8876280  50.5488600  74.1281560
  55.7198320  49.9159280  74.8263450  55.0210790  50.7548000  73.7775750
  56.5104300  34.3805380  71.6313420  57.2683660  34.4934260  71.0577450
  56.0481470  35.2174580  71.5856850  63.0518110  36.4944650  74.6215730
  62.2392620  36.1201540  74.2811610  63.5559750  35.7389730  74.9236920
  67.5543090  33.1587100  75.8598800  68.1572460  33.7307310  76.3347320
  66.8136080  33.7226540  75.6372700  57.4938980  49.2421830  71.5731700
  56.9686600  49.6229860  70.8693660  57.4183560  49.8672600  72.2941410
  58.8829450  34.9069430  70.1715390  59.4122210  34.1199230  70.0423340
  59.5157770  35.5860620  70.4050920  61.0767290  34.6444570  73.2260780
  60.4470030  33.9431880  73.3930910  60.5372430  35.4048700  73.0093940
  60.0931950  51.1904210  70.4480950  60.8250770  50.9063490  69.9004840
  60.3525620  50.9517490  71.3380330  59.2546740  47.3068940  70.4527280
  58.6255620  47.7754040  71.0013110  59.3694570  46.4618160  70.8873470
  66.7096460  41.3574600  56.6028480  66.6290510  40.4429210  56.3320190
  66.2960880  41.8541670  55.8968190  64.8414500  43.1353620  58.4837750
  64.0656600  42.6554060  58.7736320  65.4927430  42.4559270  58.3093910
  58.8580330  43.4473430  59.3613510  58.0265210  43.1922140  59.7610020
  59.4661310  43.5184200  60.0971430  68.8621930  47.5413810  57.2636880
  68.4003460  46.7701050  57.5924050  69.6747480  47.5679880  57.7689330
  58.8381590  47.4813520  59.5571530  59.1409630  46.5911260  59.3781750
  59.5825180  48.0383740  59.3293780  57.2672280  38.4075320  53.1455900
  56.3788980  38.7491290  53.0435780  57.5513470  38.2075640  52.2536730
  55.2305290  41.0080970  59.0295600  55.8021400  40.2403170  59.0299240
  55.2306830  41.3069730  58.1202210  65.0885240  49.8271820  56.8840870
  64.4696680  50.2829320  56.3135310  65.9437020  49.9823280  56.4830570
  64.2823490  45.8110810  58.4907910  64.2131770  44.8700750  58.3297040
  65.0443350  45.9012220  59.0630480  56.4730160  36.4165330  60.8164530
  56.2933000  35.5191080  61.0967290  56.0710240  36.9637200  61.4911480
  65.3128660  38.6181190  58.7176840  65.6893480  37.7453070  58.6050510
  65.2148170  38.9539890  57.8267280  59.4433670  36.9906820  54.1794280
  59.5500420  37.8910550  54.4863040  58.5326030  36.9424790  53.8888930
  69.0952780  36.1131630  55.6505180  69.9162400  35.6228200  55.6930660
  69.1286860  36.7029290  56.4037020  57.0916830  38.9125830  59.4246870
  57.7726940  39.1764200  60.0434270  56.7764880  38.0726700  59.7584880
  61.2841400  39.9593190  58.5119460  61.7919620  40.4574160  59.1524480
  61.8154640  39.1828390  58.3358820  59.5677500  34.5991750  62.7782880
  59.5695940  35.1164140  61.9728780  58.7381810  34.1221930  62.7552810
  65.9548590  44.7111060  54.2772780  65.3365860  45.1760510  53.7135500
  66.4671840  45.4038540  54.6942290  60.8180350  44.2386930  60.9556380
  60.4849730  44.8655850  61.5977450  60.9947030  44.7648810  60.1758050
  69.3314260  38.0532010  58.4232720  68.6269830  38.3416900  59.0035830
  69.6926420  38.8632120  58.0632280  59.2492830  36.3101710  60.7853330
  59.5909640  37.1543760  60.4907200  58.3108640  36.4585450  60.9018670
  60.0299450  46.2067730  62.7705560  60.6473450  46.8818810  62.4890010
  59.1692570  46.6155710  62.6793060  55.3231790  45.3967590  51.6512410
  54.9459770  45.8854690  50.9197310  55.5804860  46.0692870  52.2818940
  62.9320720  33.7983980  57.1097920  63.2395700  33.2430870  56.3933420
  62.0021420  33.9328440  56.9270910  68.4835780  49.5151270  59.4005380
  68.4962940  49.1113560  58.5327640  67.9311000  50.2898560  59.2966810
  69.7781200  46.2367490  54.4895550  69.6677530  45.2941820  54.6144970
  69.7749450  46.5983130  55.3758310  67.8821220  44.4181110  60.7287990
  68.2990010  44.2041220  59.8941450  68.6061040  44.6753900  61.2996610
  65.3201480  41.8632810  53.8458040  64.3930760  41.7970190  54.0746510
  65.4726300  42.8012940  53.7313280  65.3070560  38.1349810  50.8425200
  64.3674230  38.2963770  50.9277660  65.6253820  38.8535490  50.2961190
  69.3498770  43.4253110  54.3493290  68.7311190  43.0872660  53.7019590
  69.3323220  42.7812870  55.0572480  68.7925330  39.6037650  61.7659100
  68.3796510  40.4291360  62.0199090  68.0601280  39.0182690  61.5735460
  60.9258120  42.3897550  56.6277770  60.5215120  41.6774800  56.1323670
  61.0121240  42.0450790  57.5165810  61.3939820  46.0765110  58.7916980
  61.0968110  45.4710580  58.1124760  62.3439640  46.1142420  58.6806340
  59.6386740  39.1640760  60.4076810  60.1901330  39.2736100  59.6330060
  60.1530250  39.5378360  61.1232040  69.4825430  49.6496980  62.4540080
  69.0055990  50.4569170  62.2612690  68.7987220  48.9975310  62.6066290
  60.4858250  45.8146800  65.4424780  59.5886780  46.0386770  65.6898180
  60.5111120  45.9381740  64.4936180  67.5263470  42.6639920  51.3566040
  67.9656750  41.8262350  51.2103860  68.2391890  43.2969320  51.4430180
  59.3129470  42.6860120  64.0182150  59.1737240  43.5582920  64.3869550
  58.4310830  42.3432930  63.8730090  65.6358850  47.6035990  55.3247280
  66.0754760  48.3460320  54.9102670  65.5745740  47.8462560  56.2486240
  61.1109820  48.6281820  66.2267300  61.0825250  49.0324770  65.3595730
  60.9474790  47.6992180  66.0638900  57.6262750  41.2842530  54.1284420
  57.5060350  42.0104620  53.5165690  57.3163640  40.5145440  53.6512330
  55.2648120  44.4557670  59.9353060  55.3428540  44.5906440  58.9908780
  55.8789800  43.7473560  60.1281180  56.5095750  46.1557860  56.3459240
  56.1023830  46.2972450  55.4912840  57.4008760  45.8718020  56.1430450
  66.3274630  50.3049770  63.2526290  66.8419300  50.2157780  64.0548720
  65.4843710  50.6509470  63.5454200  68.3029030  50.5905110  52.6810290
  68.1430170  50.3008050  53.5792120  68.1375740  49.8145240  52.1455520
  60.7817410  50.3703640  54.4581910  60.6059890  49.4539180  54.2449710
  59.9273150  50.7290930  54.6979710  68.0055160  48.0992670  51.2408290
  67.3120320  48.0969960  50.5810570  68.7478020  47.6751990  50.8102460
  67.5705090  49.7255380  55.3156780  68.0262040  48.9444760  55.6295400
  67.9097610  50.4362200  55.8597960  55.3207640  45.4971840  62.4747520
  55.4838680  45.0277200  61.6566890  55.7860090  44.9895400  63.1396360
  60.0926410  34.6277600  57.5108090  59.6494560  35.4087140  57.1792610
  60.6511400  34.9507490  58.2179030  64.3796220  37.4946120  63.1143410
  63.9175590  37.7029140  63.9263350  63.9774330  36.6805470  62.8114080
  69.3800730  38.7155070  64.2440070  68.5294320  38.4160820  64.5649140
  69.2202520  38.9597080  63.3323890  66.4750440  40.2156820  66.3438860
  66.8003850  39.3820570  66.0041090  67.2630770  40.7385340  66.4917190
  63.2085230  34.2488300  52.3913920  62.5839410  34.2448170  53.1167230
  63.1215350  33.3819260  51.9949890  62.1302310  35.1724930  59.3697690
  62.4274640  36.0787760  59.2889710  62.6787870  34.6843710  58.7557260
  59.8840630  39.7511170  55.2389340  59.6581550  39.5348340  56.1435960
  59.1033160  40.1839630  54.8935310  67.1138390  39.7574540  53.8379990
  66.5147280  40.4810340  53.6543610  67.6618000  39.6951320  53.0556440
  62.3239840  40.6496750  65.9049610  62.2283440  39.7091480  65.7550010
  63.1671820  40.8711820  65.5097680  65.7203260  38.3938080  55.8683270
  66.1132830  38.7110280  55.0551960  66.0820110  37.5149960  55.9827790
  57.4550380  37.0610420  64.0583390  57.0613770  37.9085630  64.2656170
  56.7668780  36.4236790  64.2492030  64.0295430  37.1445390  67.1280130
  63.3393750  36.9517590  67.7626220  64.7727730  37.4280030  67.6604430
  54.7567430  34.9838880  58.0913470  54.4680480  35.5541740  58.8038450
  55.5013190  34.5043330  58.4544700  66.3058400  40.9843830  59.9634050
  65.5739520  41.4930640  60.3124150  65.9082740  40.1673810  59.6622830
  62.7435790  37.6598030  58.3686540  62.7471850  37.2187980  57.5191080
  63.6386910  37.9815360  58.4758360  58.5938170  37.5424520  57.3280750
  58.2538220  38.0199750  58.0847800  57.8315490  37.0889640  56.9681850
  62.8055940  38.6610110  51.3593300  62.9268760  38.6196590  52.3079120
  62.4204450  39.5234260  51.2040030  66.7684310  36.4377510  59.3756990
  66.7857050  36.8886160  60.2198840  66.5199890  35.5383150  59.5890430
  61.8177440  40.9711250  50.7576600  61.2494340  40.5229500  50.1312510
  62.5266440  41.3304030  50.2241750  56.8946620  44.8723270  64.6343330
  56.5101410  44.2316940  65.2326290  57.2058810  45.5759390  65.2038060
  63.0443760  41.7199810  60.1151950  63.4113890  41.2458380  60.8613290
  62.8548820  42.5941380  60.4560290  55.9084250  36.4643500  56.2445420
  55.6231170  36.0999170  57.0824040  55.8463110  35.7323960  55.6308560
  60.8343130  40.7608450  62.4336160  60.5300200  41.6400430  62.6586520
  61.7889590  40.8208240  62.4693600  59.3624920  44.9669440  53.0303010
  58.5887180  44.4267060  52.8701730  60.0919550  44.4476050  52.6920770
  65.5822840  35.3572760  52.9658790  64.7687450  34.8585930  52.8904100
  65.3884790  36.1971010  52.5495140  65.5031700  44.0343860  64.7098400
  65.4369010  43.1139530  64.4555990  64.8736840  44.1319300  65.4243040
  68.2971230  39.7292410  51.2620950  69.1850850  40.0409640  51.0872290
  68.2676320  38.8564660  50.8701530  59.4062320  44.6349820  56.6681820
  59.9240990  43.8318080  56.6138710  58.9546340  44.5728960  57.5098650
  64.2931820  45.9016100  51.9409120  64.6347520  46.6458330  51.4452440
  63.4644530  46.2147220  52.3033950  56.8906860  41.6011190  63.5807520
  56.5321800  42.2665040  64.1680860  56.5961420  40.7694740  63.9520140
  60.0919980  42.0595430  66.4647070  59.7920120  42.2052610  65.5674890
  60.8631220  41.5000720  66.3720460  65.4348430  46.8564430  64.4602200
  65.4492970  45.9245390  64.2421110  64.7273530  46.9424190  65.0991970
  67.1759230  45.2231940  57.3054630  67.5283050  44.6260070  56.6456000
  66.2921560  44.8976170  57.4762880  63.2622510  45.9829630  54.7125040
  63.9493640  46.5298840  55.0932630  62.4754930  46.5270360  54.7474650
  62.5649720  42.9875660  54.3250400  63.0212500  43.7980910  54.5510590
  62.2137930  42.6698800  55.1568890  64.8682330  48.4982000  61.5542700
  65.5124550  48.7041380  62.2316120  65.2311770  47.7370400  61.1013550
  58.4661500  33.3313310  54.7972920  58.3376130  33.3231210  55.7457840
  57.6423520  33.6696400  54.4463930  66.1414410  46.5014350  60.2720150
  66.7836640  45.8007510  60.3852320  66.6663760  47.2812790  60.0917040
  69.9870130  46.7862970  49.9959290  69.7607710  46.0693410  50.5883930
  69.5966330  46.5375410  49.1581040  67.9152030  47.3009250  63.4756210
  68.2508270  47.8875940  64.1534130  66.9952370  47.1701960  63.7054000
  55.7686160  50.8129830  50.7703750  56.1283800  51.4119170  50.1161020
  55.6278500  51.3589720  51.5438780  55.4655430  35.0904430  64.2579620
  54.7513950  35.2901350  64.8632230  55.8850470  34.3144000  64.6294420
  55.7528020  49.0784690  65.2446150  55.8619140  48.1379430  65.1041540
  55.1008580  49.3439440  64.5959880  63.7440610  47.3500580  66.6444270
  63.4237480  46.6309820  67.1889960  63.0698970  48.0255650  66.7180330
  61.7854780  48.1961030  51.5877420  61.7764880  48.9290720  50.9721930
  60.8653140  47.9492610  51.6804380  57.3861420  43.4175920  52.3324180
  56.7789370  44.1574820  52.3419480  57.8610770  43.5075280  51.5062380
  66.9594210  37.5826740  62.0081070  67.3275030  36.7621950  62.3360640
  66.0992410  37.6428630  62.4236720  64.7714380  48.2589270  50.2502610
  64.8726360  48.0553260  49.3204590  63.8716120  48.0047550  50.4550390
  62.2940270  38.8169630  54.2326510  61.5856420  39.2855970  54.6740120
  62.5784750  38.1591640  54.8671700  63.9196200  40.2366330  62.2319040
  64.4181450  40.7112150  62.8970890  64.0619150  39.3129850  62.4389070
  66.3255700  35.5420290  55.6722300  66.2023480  35.5606420  54.7231810
  67.2740260  35.5899230  55.7920700  63.4132490  50.7775590  54.9450280
  63.6673990  50.7396980  54.0229650  62.4644970  50.6508920  54.9378530
  60.4975290  37.1254710  51.6077220  61.3465820  37.5624860  51.5417410
  60.1306560  37.4374970  52.4349280  69.4185070  41.6967470  56.5208790
  68.4775210  41.7117700  56.6956480  69.7329140  40.9103430  56.9669090
  59.3966710  43.3787070  50.0812750  60.1629980  43.2668430  50.6438180
  59.4741400  42.6825040  49.4289520  58.0913470  40.8112140  50.7645640
  58.1717060  39.8639650  50.8763040  58.9833220  41.1419020  50.8706300
  58.8928180  50.9607530  57.8680180  59.6290660  50.4122990  58.1388750
  59.2769100  51.8263540  57.7286170  55.7773660  47.0281100  53.7421690
  54.8513440  47.2702240  53.7327100  56.2430090  47.8555360  53.6206440
  57.8986460  50.1453600  67.0565760  58.6999190  50.4665650  67.4701160
  57.3838280  49.7849180  67.7785670  62.0030490  50.1337840  49.6905750
  62.7959100  50.4226670  49.2387540  61.4834840  49.7030010  49.0118230
  66.7351090  46.2533470  67.0041170  66.1289250  46.2765070  66.2636920
  66.4305200  45.5216510  67.5408420  68.1651460  49.9813760  65.6150580
  69.1173210  49.8971780  65.5650820  68.0179680  50.6455470  66.2884370
  55.6184270  42.6327060  66.0001810  56.1223290  42.0534340  66.5718040
  54.8791690  42.9167290  66.5378180  62.5207890  45.3541250  49.5548100
  62.4158530  44.7393600  50.2809480  62.3532110  44.8307140  48.7711110
  62.6722210  44.0398050  65.5337330  61.9067880  44.6083050  65.4492000
  62.8538170  43.7474260  64.6405560  65.7610620  44.4161280  50.1590090
  65.2120720  44.8630580  50.8032830  66.3829880  43.9110530  50.6827760
  57.6507350  40.7756650  66.8951880  57.6912690  40.4770520  67.8037110
  58.5052850  41.1764260  66.7359400  61.4285740  43.3752200  52.0555390
  61.8502160  43.2092070  52.8986780  61.5536580  42.5652430  51.5610530
  59.5913160  39.3548750  64.8626370  59.0609620  38.8639700  64.2349710
  60.2601230  39.7832950  64.3284300  63.9413380  42.3989810  49.3032490
  64.4619040  41.6838830  48.9373640  64.5881780  43.0375680  49.6033000
  68.4891220  43.8218210  64.6267560  68.9032240  43.9763290  65.4757980
  67.5542220  43.9473430  64.7893340  68.9613390  41.1614370  66.6306710
  69.5434160  40.4066690  66.5427190  69.1375160  41.6921810  65.8538190
  60.0785460  36.3211120  64.9423660  59.9842330  35.7031870  64.2174530
  59.4982850  37.0477410  64.7153570  62.8446900  34.8784360  61.9751050
  62.3964200  34.9008620  61.1296600  62.2112100  34.4803380  62.5721350
  63.2506450  43.7738690  62.5963490  63.6694560  44.6171420  62.4239730
  62.3315080  43.9110730  62.3670270  65.5870350  41.5054870  63.9801330
  65.7066560  40.9096010  64.7196170  66.4464350  41.5424560  63.5602630
  67.9258250  42.0592060  62.5563840  67.3993470  42.5834680  61.9528980
  68.2689590  42.6919450  63.1873570  60.3244640  39.4485430  49.0013550
  60.1233700  38.5852790  49.3626890  60.1536690  39.3618790  48.0635150
  61.1013870  50.0791700  63.7121220  60.5634960  50.8037760  63.3929920
  61.3547830  49.6022040  62.9218560  62.3539120  38.0476220  65.2377150
  62.9438810  37.7392070  65.9254970  61.5359360  37.5755970  65.3937050
  67.1732550  37.6642030  65.4710170  66.4848070  37.0023570  65.4060160
  67.8938570  37.2180300  65.9158630  67.8032950  34.2593660  51.5300430
  68.0835240  33.4161560  51.8859850  67.0298680  34.4916770  52.0439180
  59.1227440  36.5486050  48.9891430  59.4253340  36.5553480  48.0810580
  59.8622030  36.1983910  49.4859090  63.9576080  51.3142910  63.9707870
  63.8834780  52.2178050  64.2780240  63.0554920  50.9954810  63.9429940
  62.3412370  35.4920670  49.9747630  61.9934370  34.8144660  49.3950080
  62.5425140  35.0310180  50.7891020  64.5061410  50.4801420  51.5934230
  65.4012200  50.8186390  51.6152990  64.5379040  49.7580830  50.9658510
  58.1457570  45.8528470  49.8221230  58.5832440  46.3958140  50.4778810
  58.6305300  45.0275420  49.8317570  55.3603370  48.6417500  57.2741490
  55.6906380  47.7738560  57.0420130  55.7894370  48.8476020  58.1046450
  59.9565290  46.9726510  54.9343460  59.6560830  46.8491480  55.8347370
  59.8502780  46.1135100  54.5259190  55.8493580  49.5088090  60.0123120
  55.4124570  49.6888890  60.8447270  56.4171260  50.2662710  59.8704840
  55.6818010  42.0208320  56.3712000  55.0266850  41.7519960  55.7271700
  56.5195960  41.9112800  55.9213980  68.6308450  36.8149610  50.5930490
  69.0493330  36.6280590  49.7527150  68.3244510  35.9628660  50.9033420
  56.7193940  42.4060890  60.9115340  57.0866980  42.3188290  61.7911360
  56.1504760  41.6427440  60.8122200  56.2709940  39.3169980  64.8173760
  55.3765990  39.2836740  65.1567470  56.8107490  39.5156770  65.5825010
  54.8956090  39.2307250  52.3137330  53.9920170  39.4937450  52.1388990
  55.3796710  39.5018420  51.5337290  57.4383300  38.2872790  50.2231710
  58.1475000  37.8656010  49.7378990  56.7223240  38.3548020  49.5915060
  57.0857460  34.3412120  49.2634360  57.8085590  34.8821060  49.5815580
  57.3581980  34.0675540  48.3875900  56.7749650  33.5918310  59.1656980
  57.4225840  33.0415690  58.7252140  57.1951490  33.8461460  59.9872790
  56.5281650  33.7473980  61.9082300  56.1796470  34.2037800  62.6740480
  56.1969350  32.8531110  61.9904730  58.1346020  46.9193580  66.0735490
  58.0915650  46.5486490  66.9549950  58.2657030  47.8571150  66.2137310
  61.8352050  48.4753170  61.6745210  61.5943410  48.7427730  60.7875730
  62.7754690  48.6458900  61.7296070  64.0406470  34.9385860  65.4301720
  63.9795360  35.5307690  66.1797130  64.9806850  34.8311820  65.2851980
  66.6781030  34.5955920  65.0694010  67.2921440  34.9135210  64.4075090
  67.2230590  34.1104510  65.6889870  57.2002290  33.2750180  65.1833070
  57.7485280  33.0938230  64.4199180  57.2657600  32.4844290  65.7189380
  57.9734050  49.8655830  63.1933270  57.3794370  49.7340530  63.9323310
  57.9657890  49.0293970  62.7275370  67.4189070  33.1588060  61.3963300
  66.5448910  33.4923170  61.1936230  67.3099820  32.6861240  62.2215170
  68.3261050  35.3658930  62.7805020  67.9974410  34.5510690  62.4006750
  69.2743350  35.3228740  62.6570710  57.6046280  47.2314210  62.1441310
  56.8780340  46.6119500  62.0767260  57.6655430  47.6254820  61.2739390
  61.2091380  49.4459210  58.9290720  61.7256400  48.8346570  58.4038980
  61.8588760  49.9487990  59.4201730  63.9486880  50.3367700  59.7559700
  64.2364690  50.0822000  58.8792710  64.4610100  49.7845060  60.3465270
  65.1663890  34.0757900  60.3356210  64.3835680  34.5503400  60.6152970
  64.8726820  33.1712730  60.2269390  55.8876280  50.5488600  55.3538070
  55.7198320  49.9159280  56.0519960  55.0210790  50.7548000  55.0032260
  56.5104300  34.3805380  52.8569930  57.2683660  34.4934260  52.2833960
  56.0481470  35.2174580  52.8113360  63.0518110  36.4944650  55.8472240
  62.2392620  36.1201540  55.5068120  63.5559750  35.7389730  56.1493430
  67.5543090  33.1587100  57.0855310  68.1572460  33.7307310  57.5603830
  66.8136080  33.7226540  56.8629210  57.4938980  49.2421830  52.7988210
  56.9686600  49.6229860  52.0950170  57.4183560  49.8672600  53.5197920
  58.8829450  34.9069430  51.3971900  59.4122210  34.1199230  51.2679850
  59.5157770  35.5860620  51.6307430  61.0767290  34.6444570  54.4517290
  60.4470030  33.9431880  54.6187420  60.5372430  35.4048700  54.2350450
  64.0159240  51.2583800  67.1227900  64.9426550  51.0228070  67.1663860
  64.0009670  52.0855800  66.6413930  61.2022850  33.9228550  66.8869780
  60.9207120  34.4262150  66.1230600  61.5842550  33.1250300  66.5211910
  60.0931950  51.1904210  51.6737460  60.8250770  50.9063490  51.1261350
  60.3525620  50.9517490  52.5636840  59.2546740  47.3068940  51.6783790
  58.6255620  47.7754040  52.2269620  59.3694570  46.4618160  52.1129980
  67.8038310  33.3382130  67.4650250  67.6903760  33.6576740  68.3601770
  68.6208050  33.7394640  67.1687530  66.7096460  41.3574600  37.8284990
  66.6290510  40.4429210  37.5576700  66.2960880  41.8541670  37.1224700
  64.8414500  43.1353620  39.7094260  64.0656600  42.6554060  39.9992830
  65.4927430  42.4559270  39.5350420  68.8621930  47.5413810  38.4893390
  68.4003460  46.7701050  38.8180560  69.6747480  47.5679880  38.9945840
  58.8381590  47.4813520  40.7828040  59.1409630  46.5911260  40.6038260
  59.5825180  48.0383740  40.5550290  57.2672280  38.4075320  34.3712410
  56.3788980  38.7491290  34.2692290  57.5513470  38.2075640  33.4793240
  65.0885240  49.8271820  38.1097380  64.4696680  50.2829320  37.5391820
  65.9437020  49.9823280  37.7087080  64.2823490  45.8110810  39.7164420
  64.2131770  44.8700750  39.5553550  65.0443350  45.9012220  40.2886990
  65.3128660  38.6181190  39.9433350  65.6893480  37.7453070  39.8307020
  65.2148170  38.9539890  39.0523790  59.4433670  36.9906820  35.4050790
  59.5500420  37.8910550  35.7119550  58.5326030  36.9424790  35.1145440
  69.0952780  36.1131630  36.8761690  69.9162400  35.6228200  36.9187170
  69.1286860  36.7029290  37.6293530  61.2841400  39.9593190  39.7375970
  61.7919620  40.4574160  40.3780990  61.8154640  39.1828390  39.5615330
  59.5677500  34.5991750  44.0039390  59.5695940  35.1164140  43.1985290
  58.7381810  34.1221930  43.9809320  65.9548590  44.7111060  35.5029290
  65.3365860  45.1760510  34.9392010  66.4671840  45.4038540  35.9198800
  60.8180350  44.2386930  42.1812890  60.4849730  44.8655850  42.8233960
  60.9947030  44.7648810  41.4014560  69.3314260  38.0532010  39.6489230
  68.6269830  38.3416900  40.2292340  69.6926420  38.8632120  39.2888790
  59.2492830  36.3101710  42.0109840  59.5909640  37.1543760  41.7163710
  58.3108640  36.4585450  42.1275180  60.0299450  46.2067730  43.9962070
  60.6473450  46.8818810  43.7146520  59.1692570  46.6155710  43.9049570
  55.3231790  45.3967590  32.8768920  54.9459770  45.8854690  32.1453820
  55.5804860  46.0692870  33.5075450  62.9320720  33.7983980  38.3354430
  63.2395700  33.2430870  37.6189930  62.0021420  33.9328440  38.1527420
  68.4835780  49.5151270  40.6261890  68.4962940  49.1113560  39.7584150
  67.9311000  50.2898560  40.5223320  69.7781200  46.2367490  35.7152060
  69.6677530  45.2941820  35.8401480  69.7749450  46.5983130  36.6014820
  67.8821220  44.4181110  41.9544500  68.2990010  44.2041220  41.1197960
  68.6061040  44.6753900  42.5253120  65.3201480  41.8632810  35.0714550
  64.3930760  41.7970190  35.3003020  65.4726300  42.8012940  34.9569790
  65.3070560  38.1349810  32.0681710  64.3674230  38.2963770  32.1534170
  65.6253820  38.8535490  31.5217700  69.3498770  43.4253110  35.5749800
  68.7311190  43.0872660  34.9276100  69.3323220  42.7812870  36.2828990
  68.7925330  39.6037650  42.9915610  68.3796510  40.4291360  43.2455600
  68.0601280  39.0182690  42.7991970  60.9258120  42.3897550  37.8534280
  60.5215120  41.6774800  37.3580180  61.0121240  42.0450790  38.7422320
  61.3939820  46.0765110  40.0173490  61.0968110  45.4710580  39.3381270
  62.3439640  46.1142420  39.9062850  59.6386740  39.1640760  41.6333320
  60.1901330  39.2736100  40.8586570  60.1530250  39.5378360  42.3488550
  69.4825430  49.6496980  43.6796590  69.0055990  50.4569170  43.4869200
  68.7987220  48.9975310  43.8322800  60.4858250  45.8146800  46.6681290
  59.5886780  46.0386770  46.9154690  60.5111120  45.9381740  45.7192690
  67.5263470  42.6639920  32.5822550  67.9656750  41.8262350  32.4360370
  68.2391890  43.2969320  32.6686690  59.3129470  42.6860120  45.2438660
  59.1737240  43.5582920  45.6126060  58.4310830  42.3432930  45.0986600
  65.6358850  47.6035990  36.5503790  66.0754760  48.3460320  36.1359180
  65.5745740  47.8462560  37.4742750  61.1109820  48.6281820  47.4523810
  61.0825250  49.0324770  46.5852240  60.9474790  47.6992180  47.2895410
  57.6262750  41.2842530  35.3540930  57.5060350  42.0104620  34.7422200
  57.3163640  40.5145440  34.8768840  56.5095750  46.1557860  37.5715750
  56.1023830  46.2972450  36.7169350  57.4008760  45.8718020  37.3686960
  66.3274630  50.3049770  44.4782800  66.8419300  50.2157780  45.2805230
  65.4843710  50.6509470  44.7710710  68.3029030  50.5905110  33.9066800
  68.1430170  50.3008050  34.8048630  68.1375740  49.8145240  33.3712030
  60.7817410  50.3703640  35.6838420  60.6059890  49.4539180  35.4706220
  59.9273150  50.7290930  35.9236220  68.0055160  48.0992670  32.4664800
  67.3120320  48.0969960  31.8067080  68.7478020  47.6751990  32.0358970
  67.5705090  49.7255380  36.5413290  68.0262040  48.9444760  36.8551910
  67.9097610  50.4362200  37.0854470  60.0926410  34.6277600  38.7364600
  59.6494560  35.4087140  38.4049120  60.6511400  34.9507490  39.4435540
  64.3796220  37.4946120  44.3399920  63.9175590  37.7029140  45.1519860
  63.9774330  36.6805470  44.0370590  69.3800730  38.7155070  45.4696580
  68.5294320  38.4160820  45.7905650  69.2202520  38.9597080  44.5580400
  66.4750440  40.2156820  47.5695370  66.8003850  39.3820570  47.2297600
  67.2630770  40.7385340  47.7173700  63.2085230  34.2488300  33.6170430
  62.5839410  34.2448170  34.3423740  63.1215350  33.3819260  33.2206400
  62.1302310  35.1724930  40.5954200  62.4274640  36.0787760  40.5146220
  62.6787870  34.6843710  39.9813770  59.8840630  39.7511170  36.4645850
  59.6581550  39.5348340  37.3692470  59.1033160  40.1839630  36.1191820
  67.1138390  39.7574540  35.0636500  66.5147280  40.4810340  34.8800120
  67.6618000  39.6951320  34.2812950  62.3239840  40.6496750  47.1306120
  62.2283440  39.7091480  46.9806520  63.1671820  40.8711820  46.7354190
  65.7203260  38.3938080  37.0939780  66.1132830  38.7110280  36.2808470
  66.0820110  37.5149960  37.2084300  64.0295430  37.1445390  48.3536640
  63.3393750  36.9517590  48.9882730  64.7727730  37.4280030  48.8860940
  54.9437660  38.9259000  30.5272700  54.8612330  39.8689760  30.6687690
  54.5920720  38.7833910  29.6485050  66.3058400  40.9843830  41.1890560
  65.5739520  41.4930640  41.5380660  65.9082740  40.1673810  40.8879340
  62.7435790  37.6598030  39.5943050  62.7471850  37.2187980  38.7447590
  63.6386910  37.9815360  39.7014870  58.5938170  37.5424520  38.5537260
  58.2538220  38.0199750  39.3104310  57.8315490  37.0889640  38.1938360
  62.8055940  38.6610110  32.5849810  62.9268760  38.6196590  33.5335630
  62.4204450  39.5234260  32.4296540  66.7684310  36.4377510  40.6013500
  66.7857050  36.8886160  41.4455350  66.5199890  35.5383150  40.8146940
  61.8177440  40.9711250  31.9833110  61.2494340  40.5229500  31.3569020
  62.5266440  41.3304030  31.4498260  63.0443760  41.7199810  41.3408460
  63.4113890  41.2458380  42.0869800  62.8548820  42.5941380  41.6816800
  55.9084250  36.4643500  37.4701930  55.6231170  36.0999170  38.3080550
  55.8463110  35.7323960  36.8565070  60.8343130  40.7608450  43.6592670
  60.5300200  41.6400430  43.8843030  61.7889590  40.8208240  43.6950110
  59.3624920  44.9669440  34.2559520  58.5887180  44.4267060  34.0958240
  60.0919550  44.4476050  33.9177280  65.5822840  35.3572760  34.1915300
  64.7687450  34.8585930  34.1160610  65.3884790  36.1971010  33.7751650
  65.5031700  44.0343860  45.9354910  65.4369010  43.1139530  45.6812500
  64.8736840  44.1319300  46.6499550  68.2971230  39.7292410  32.4877460
  69.1850850  40.0409640  32.3128800  68.2676320  38.8564660  32.0958040
  59.4062320  44.6349820  37.8938330  59.9240990  43.8318080  37.8395220
  58.9546340  44.5728960  38.7355160  64.2931820  45.9016100  33.1665630
  64.6347520  46.6458330  32.6708950  63.4644530  46.2147220  33.5290460
  60.0919980  42.0595430  47.6903580  59.7920120  42.2052610  46.7931400
  60.8631220  41.5000720  47.5976970  65.4348430  46.8564430  45.6858710
  65.4492970  45.9245390  45.4677620  64.7273530  46.9424190  46.3248480
  67.1759230  45.2231940  38.5311140  67.5283050  44.6260070  37.8712510
  66.2921560  44.8976170  38.7019390  63.2622510  45.9829630  35.9381550
  63.9493640  46.5298840  36.3189140  62.4754930  46.5270360  35.9731160
  55.4014910  41.6002450  31.4298630  56.2709760  41.8827250  31.7134550
  54.9105230  42.4138320  31.3147440  62.5649720  42.9875660  35.5506910
  63.0212500  43.7980910  35.7767100  62.2137930  42.6698800  36.3825400
  64.8682330  48.4982000  42.7799210  65.5124550  48.7041380  43.4572630
  65.2311770  47.7370400  42.3270060  58.4661500  33.3313310  36.0229430
  58.3376130  33.3231210  36.9714350  57.6423520  33.6696400  35.6720440
  66.1414410  46.5014350  41.4976660  66.7836640  45.8007510  41.6108830
  66.6663760  47.2812790  41.3173550  69.9870130  46.7862970  31.2215800
  69.7607710  46.0693410  31.8140440  69.5966330  46.5375410  30.3837550
  67.9152030  47.3009250  44.7012720  68.2508270  47.8875940  45.3790640
  66.9952370  47.1701960  44.9310510  55.7686160  50.8129830  31.9960260
  56.1283800  51.4119170  31.3417530  55.6278500  51.3589720  32.7695290
  55.7528020  49.0784690  46.4702660  55.8619140  48.1379430  46.3298050
  55.1008580  49.3439440  45.8216390  63.7440610  47.3500580  47.8700780
  63.4237480  46.6309820  48.4146470  63.0698970  48.0255650  47.9436840
  61.7854780  48.1961030  32.8133930  61.7764880  48.9290720  32.1978440
  60.8653140  47.9492610  32.9060890  57.3861420  43.4175920  33.5580690
  56.7789370  44.1574820  33.5675990  57.8610770  43.5075280  32.7318890
  66.9594210  37.5826740  43.2337580  67.3275030  36.7621950  43.5617150
  66.0992410  37.6428630  43.6493230  64.7714380  48.2589270  31.4759120
  64.8726360  48.0553260  30.5461100  63.8716120  48.0047550  31.6806900
  62.2940270  38.8169630  35.4583020  61.5856420  39.2855970  35.8996630
  62.5784750  38.1591640  36.0928210  63.9196200  40.2366330  43.4575550
  64.4181450  40.7112150  44.1227400  64.0619150  39.3129850  43.6645580
  66.3255700  35.5420290  36.8978810  66.2023480  35.5606420  35.9488320
  67.2740260  35.5899230  37.0177210  63.4132490  50.7775590  36.1706790
  63.6673990  50.7396980  35.2486160  62.4644970  50.6508920  36.1635040
  60.4975290  37.1254710  32.8333730  61.3465820  37.5624860  32.7673920
  60.1306560  37.4374970  33.6605790  69.4185070  41.6967470  37.7465300
  68.4775210  41.7117700  37.9212990  69.7329140  40.9103430  38.1925600
  59.3966710  43.3787070  31.3069260  60.1629980  43.2668430  31.8694690
  59.4741400  42.6825040  30.6546030  58.0913470  40.8112140  31.9902150
  58.1717060  39.8639650  32.1019550  58.9833220  41.1419020  32.0962810
  58.8928180  50.9607530  39.0936690  59.6290660  50.4122990  39.3645260
  59.2769100  51.8263540  38.9542680  55.7773660  47.0281100  34.9678200
  54.8513440  47.2702240  34.9583610  56.2430090  47.8555360  34.8462950
  57.8986460  50.1453600  48.2822270  58.6999190  50.4665650  48.6957670
  57.3838280  49.7849180  49.0042180  62.0030490  50.1337840  30.9162260
  62.7959100  50.4226670  30.4644050  61.4834840  49.7030010  30.2374740
  66.7351090  46.2533470  48.2297680  66.1289250  46.2765070  47.4893430
  66.4305200  45.5216510  48.7664930  68.1651460  49.9813760  46.8407090
  69.1173210  49.8971780  46.7907330  68.0179680  50.6455470  47.5140880
  62.5207890  45.3541250  30.7804610  62.4158530  44.7393600  31.5065990
  62.3532110  44.8307140  29.9967620  62.6722210  44.0398050  46.7593840
  61.9067880  44.6083050  46.6748510  62.8538170  43.7474260  45.8662070
  65.7610620  44.4161280  31.3846600  65.2120720  44.8630580  32.0289340
  66.3829880  43.9110530  31.9084270  57.6507350  40.7756650  48.1208390
  57.6912690  40.4770520  49.0293620  58.5052850  41.1764260  47.9615910
  61.4285740  43.3752200  33.2811900  61.8502160  43.2092070  34.1243290
  61.5536580  42.5652430  32.7867040  59.5913160  39.3548750  46.0882880
  59.0609620  38.8639700  45.4606220  60.2601230  39.7832950  45.5540810
  63.9413380  42.3989810  30.5289000  64.4619040  41.6838830  30.1630150
  64.5881780  43.0375680  30.8289510  68.4891220  43.8218210  45.8524070
  68.9032240  43.9763290  46.7014490  67.5542220  43.9473430  46.0149850
  68.9613390  41.1614370  47.8563220  69.5434160  40.4066690  47.7683700
  69.1375160  41.6921810  47.0794700  60.0785460  36.3211120  46.1680170
  59.9842330  35.7031870  45.4431040  59.4982850  37.0477410  45.9410080
  62.8446900  34.8784360  43.2007560  62.3964200  34.9008620  42.3553110
  62.2112100  34.4803380  43.7977860  63.2506450  43.7738690  43.8220000
  63.6694560  44.6171420  43.6496240  62.3315080  43.9110730  43.5926780
  65.5870350  41.5054870  45.2057840  65.7066560  40.9096010  45.9452680
  66.4464350  41.5424560  44.7859140  67.9258250  42.0592060  43.7820350
  67.3993470  42.5834680  43.1785490  68.2689590  42.6919450  44.4130080
  60.3244640  39.4485430  30.2270060  60.1233700  38.5852790  30.5883400
  60.1536690  39.3618790  29.2891660  61.1013870  50.0791700  44.9377730
  60.5634960  50.8037760  44.6186430  61.3547830  49.6022040  44.1475070
  62.3539120  38.0476220  46.4633660  62.9438810  37.7392070  47.1511480
  61.5359360  37.5755970  46.6193560  67.1732550  37.6642030  46.6966680
  66.4848070  37.0023570  46.6316670  67.8938570  37.2180300  47.1415140
  67.8032950  34.2593660  32.7556940  68.0835240  33.4161560  33.1116360
  67.0298680  34.4916770  33.2695690  59.1227440  36.5486050  30.2147940
  59.4253340  36.5553480  29.3067090  59.8622030  36.1983910  30.7115600
  63.9576080  51.3142910  45.1964380  63.8834780  52.2178050  45.5036750
  63.0554920  50.9954810  45.1686450  62.3412370  35.4920670  31.2004140
  61.9934370  34.8144660  30.6206590  62.5425140  35.0310180  32.0147530
  64.5061410  50.4801420  32.8190740  65.4012200  50.8186390  32.8409500
  64.5379040  49.7580830  32.1915020  58.1457570  45.8528470  31.0477740
  58.5832440  46.3958140  31.7035320  58.6305300  45.0275420  31.0574080
  55.3603370  48.6417500  38.4998000  55.6906380  47.7738560  38.2676640
  55.7894370  48.8476020  39.3302960  59.9565290  46.9726510  36.1599970
  59.6560830  46.8491480  37.0603880  59.8502780  46.1135100  35.7515700
  55.8493580  49.5088090  41.2379630  55.4124570  49.6888890  42.0703780
  56.4171260  50.2662710  41.0961350  68.6308450  36.8149610  31.8187000
  69.0493330  36.6280590  30.9783660  68.3244510  35.9628660  32.1289930
  54.8956090  39.2307250  33.5393840  53.9920170  39.4937450  33.3645500
  55.3796710  39.5018420  32.7593800  57.4383300  38.2872790  31.4488220
  58.1475000  37.8656010  30.9635500  56.7223240  38.3548020  30.8171570
  57.0857460  34.3412120  30.4890870  57.8085590  34.8821060  30.8072090
  57.3581980  34.0675540  29.6132410  56.7749650  33.5918310  40.3913490
  57.4225840  33.0415690  39.9508650  57.1951490  33.8461460  41.2129300
  56.5281650  33.7473980  43.1338810  56.1796470  34.2037800  43.8996990
  56.1969350  32.8531110  43.2161240  58.1346020  46.9193580  47.2992000
  58.0915650  46.5486490  48.1806460  58.2657030  47.8571150  47.4393820
  61.8352050  48.4753170  42.9001720  61.5943410  48.7427730  42.0132240
  62.7754690  48.6458900  42.9552580  64.0406470  34.9385860  46.6558230
  63.9795360  35.5307690  47.4053640  64.9806850  34.8311820  46.5108490
  66.6781030  34.5955920  46.2950520  67.2921440  34.9135210  45.6331600
  67.2230590  34.1104510  46.9146380  57.2002290  33.2750180  46.4089580
  57.7485280  33.0938230  45.6455690  57.2657600  32.4844290  46.9445890
  57.9734050  49.8655830  44.4189780  57.3794370  49.7340530  45.1579820
  57.9657890  49.0293970  43.9531880  67.4189070  33.1588060  42.6219810
  66.5448910  33.4923170  42.4192740  67.3099820  32.6861240  43.4471680
  68.3261050  35.3658930  44.0061530  67.9974410  34.5510690  43.6263260
  69.2743350  35.3228740  43.8827220  57.6046280  47.2314210  43.3697820
  56.8780340  46.6119500  43.3023770  57.6655430  47.6254820  42.4995900
  61.2091380  49.4459210  40.1547230  61.7256400  48.8346570  39.6295490
  61.8588760  49.9487990  40.6458240  63.9486880  50.3367700  40.9816210
  64.2364690  50.0822000  40.1049220  64.4610100  49.7845060  41.5721780
  65.1663890  34.0757900  41.5612720  64.3835680  34.5503400  41.8409480
  64.8726820  33.1712730  41.4525900  55.8876280  50.5488600  36.5794580
  55.7198320  49.9159280  37.2776470  55.0210790  50.7548000  36.2288770
  56.5104300  34.3805380  34.0826440  57.2683660  34.4934260  33.5090470
  56.0481470  35.2174580  34.0369870  63.0518110  36.4944650  37.0728750
  62.2392620  36.1201540  36.7324630  63.5559750  35.7389730  37.3749940
  67.5543090  33.1587100  38.3111820  68.1572460  33.7307310  38.7860340
  66.8136080  33.7226540  38.0885720  57.4938980  49.2421830  34.0244720
  56.9686600  49.6229860  33.3206680  57.4183560  49.8672600  34.7454430
  58.8829450  34.9069430  32.6228410  59.4122210  34.1199230  32.4936360
  59.5157770  35.5860620  32.8563940  61.0767290  34.6444570  35.6773800
  60.4470030  33.9431880  35.8443930  60.5372430  35.4048700  35.4606960
  64.0159240  51.2583800  48.3484410  64.9426550  51.0228070  48.3920370
  64.0009670  52.0855800  47.8670440  61.2022850  33.9228550  48.1126290
  60.9207120  34.4262150  47.3487110  61.5842550  33.1250300  47.7468420
  60.0931950  51.1904210  32.8993970  60.8250770  50.9063490  32.3517860
  60.3525620  50.9517490  33.7893350  59.2546740  47.3068940  32.9040300
  58.6255620  47.7754040  33.4526130  59.3694570  46.4618160  33.3386490
  67.8038310  33.3382130  48.6906760  67.6903760  33.6576740  49.5858280
  68.6208050  33.7394640  48.3944040  66.7096460  41.3574600  19.0541500
  66.6290510  40.4429210  18.7833210  66.2960880  41.8541670  18.3481210
  64.8414500  43.1353620  20.9350770  64.0656600  42.6554060  21.2249340
  65.4927430  42.4559270  20.7606930  58.8580330  43.4473430  21.8126530
  58.0265210  43.1922140  22.2123040  59.4661310  43.5184200  22.5484450
  68.8621930  47.5413810  19.7149900  68.4003460  46.7701050  20.0437070
  69.6747480  47.5679880  20.2202350  58.8381590  47.4813520  22.0084550
  59.1409630  46.5911260  21.8294770  59.5825180  48.0383740  21.7806800
  57.2672280  38.4075320  15.5968920  56.3788980  38.7491290  15.4948800
  57.5513470  38.2075640  14.7049750  55.2305290  41.0080970  21.4808620
  55.8021400  40.2403170  21.4812260  55.2306830  41.3069730  20.5715230
  65.0885240  49.8271820  19.3353890  64.4696680  50.2829320  18.7648330
  65.9437020  49.9823280  18.9343590  64.2823490  45.8110810  20.9420930
  64.2131770  44.8700750  20.7810060  65.0443350  45.9012220  21.5143500
  56.4730160  36.4165330  23.2677550  56.2933000  35.5191080  23.5480310
  56.0710240  36.9637200  23.9424500  65.3128660  38.6181190  21.1689860
  65.6893480  37.7453070  21.0563530  65.2148170  38.9539890  20.2780300
  59.4433670  36.9906820  16.6307300  59.5500420  37.8910550  16.9376060
  58.5326030  36.9424790  16.3401950  69.0952780  36.1131630  18.1018200
  69.9162400  35.6228200  18.1443680  69.1286860  36.7029290  18.8550040
  57.0916830  38.9125830  21.8759890  57.7726940  39.1764200  22.4947290
  56.7764880  38.0726700  22.2097900  61.2841400  39.9593190  20.9632480
  61.7919620  40.4574160  21.6037500  61.8154640  39.1828390  20.7871840
  59.5677500  34.5991750  25.2295900  59.5695940  35.1164140  24.4241800
  58.7381810  34.1221930  25.2065830  65.9548590  44.7111060  16.7285800
  65.3365860  45.1760510  16.1648520  66.4671840  45.4038540  17.1455310
  60.8180350  44.2386930  23.4069400  60.4849730  44.8655850  24.0490470
  60.9947030  44.7648810  22.6271070  69.3314260  38.0532010  20.8745740
  68.6269830  38.3416900  21.4548850  69.6926420  38.8632120  20.5145300
  59.2492830  36.3101710  23.2366350  59.5909640  37.1543760  22.9420220
  58.3108640  36.4585450  23.3531690  60.0299450  46.2067730  25.2218580
  60.6473450  46.8818810  24.9403030  59.1692570  46.6155710  25.1306080
  55.3231790  45.3967590  14.1025430  54.9459770  45.8854690  13.3710330
  55.5804860  46.0692870  14.7331960  62.9320720  33.7983980  19.5610940
  63.2395700  33.2430870  18.8446440  62.0021420  33.9328440  19.3783930
  68.4835780  49.5151270  21.8518400  68.4962940  49.1113560  20.9840660
  67.9311000  50.2898560  21.7479830  69.7781200  46.2367490  16.9408570
  69.6677530  45.2941820  17.0657990  69.7749450  46.5983130  17.8271330
  67.8821220  44.4181110  23.1801010  68.2990010  44.2041220  22.3454470
  68.6061040  44.6753900  23.7509630  65.3201480  41.8632810  16.2971060
  64.3930760  41.7970190  16.5259530  65.4726300  42.8012940  16.1826300
  65.3070560  38.1349810  13.2938220  64.3674230  38.2963770  13.3790680
  65.6253820  38.8535490  12.7474210  69.3498770  43.4253110  16.8006310
  68.7311190  43.0872660  16.1532610  69.3323220  42.7812870  17.5085500
  68.7925330  39.6037650  24.2172120  68.3796510  40.4291360  24.4712110
  68.0601280  39.0182690  24.0248480  60.9258120  42.3897550  19.0790790
  60.5215120  41.6774800  18.5836690  61.0121240  42.0450790  19.9678830
  61.3939820  46.0765110  21.2430000  61.0968110  45.4710580  20.5637780
  62.3439640  46.1142420  21.1319360  59.6386740  39.1640760  22.8589830
  60.1901330  39.2736100  22.0843080  60.1530250  39.5378360  23.5745060
  69.4825430  49.6496980  24.9053100  69.0055990  50.4569170  24.7125710
  68.7987220  48.9975310  25.0579310  60.4858250  45.8146800  27.8937800
  59.5886780  46.0386770  28.1411200  60.5111120  45.9381740  26.9449200
  67.5263470  42.6639920  13.8079060  67.9656750  41.8262350  13.6616880
  68.2391890  43.2969320  13.8943200  59.3129470  42.6860120  26.4695170
  59.1737240  43.5582920  26.8382570  58.4310830  42.3432930  26.3243110
  65.6358850  47.6035990  17.7760300  66.0754760  48.3460320  17.3615690
  65.5745740  47.8462560  18.6999260  61.1109820  48.6281820  28.6780320
  61.0825250  49.0324770  27.8108750  60.9474790  47.6992180  28.5151920
  57.6262750  41.2842530  16.5797440  57.5060350  42.0104620  15.9678710
  57.3163640  40.5145440  16.1025350  55.2648120  44.4557670  22.3866080
  55.3428540  44.5906440  21.4421800  55.8789800  43.7473560  22.5794200
  56.5095750  46.1557860  18.7972260  56.1023830  46.2972450  17.9425860
  57.4008760  45.8718020  18.5943470  66.3274630  50.3049770  25.7039310
  66.8419300  50.2157780  26.5061740  65.4843710  50.6509470  25.9967220
  68.3029030  50.5905110  15.1323310  68.1430170  50.3008050  16.0305140
  68.1375740  49.8145240  14.5968540  60.7817410  50.3703640  16.9094930
  60.6059890  49.4539180  16.6962730  59.9273150  50.7290930  17.1492730
  68.0055160  48.0992670  13.6921310  67.3120320  48.0969960  13.0323590
  68.7478020  47.6751990  13.2615480  67.5705090  49.7255380  17.7669800
  68.0262040  48.9444760  18.0808420  67.9097610  50.4362200  18.3110980
  55.3207640  45.4971840  24.9260540  55.4838680  45.0277200  24.1079910
  55.7860090  44.9895400  25.5909380  60.0926410  34.6277600  19.9621110
  59.6494560  35.4087140  19.6305630  60.6511400  34.9507490  20.6692050
  64.3796220  37.4946120  25.5656430  63.9175590  37.7029140  26.3776370
  63.9774330  36.6805470  25.2627100  69.3800730  38.7155070  26.6953090
  68.5294320  38.4160820  27.0162160  69.2202520  38.9597080  25.7836910
  66.4750440  40.2156820  28.7951880  66.8003850  39.3820570  28.4554110
  67.2630770  40.7385340  28.9430210  63.2085230  34.2488300  14.8426940
  62.5839410  34.2448170  15.5680250  63.1215350  33.3819260  14.4462910
  62.1302310  35.1724930  21.8210710  62.4274640  36.0787760  21.7402730
  62.6787870  34.6843710  21.2070280  59.8840630  39.7511170  17.6902360
  59.6581550  39.5348340  18.5948980  59.1033160  40.1839630  17.3448330
  67.1138390  39.7574540  16.2893010  66.5147280  40.4810340  16.1056630
  67.6618000  39.6951320  15.5069460  62.3239840  40.6496750  28.3562630
  62.2283440  39.7091480  28.2063030  63.1671820  40.8711820  27.9610700
  65.7203260  38.3938080  18.3196290  66.1132830  38.7110280  17.5064980
  66.0820110  37.5149960  18.4340810  57.4550380  37.0610420  26.5096410
  57.0613770  37.9085630  26.7169190  56.7668780  36.4236790  26.7005050
  64.0295430  37.1445390  29.5793150  63.3393750  36.9517590  30.2139240
  64.7727730  37.4280030  30.1117450  54.7567430  34.9838880  20.5426490
  54.4680480  35.5541740  21.2551470  55.5013190  34.5043330  20.9057720
  54.9437660  38.9259000  11.7529210  54.8612330  39.8689760  11.8944200
  54.5920720  38.7833910  10.8741560  66.3058400  40.9843830  22.4147070
  65.5739520  41.4930640  22.7637170  65.9082740  40.1673810  22.1135850
  62.7435790  37.6598030  20.8199560  62.7471850  37.2187980  19.9704100
  63.6386910  37.9815360  20.9271380  58.5938170  37.5424520  19.7793770
  58.2538220  38.0199750  20.5360820  57.8315490  37.0889640  19.4194870
  62.8055940  38.6610110  13.8106320  62.9268760  38.6196590  14.7592140
  62.4204450  39.5234260  13.6553050  66.7684310  36.4377510  21.8270010
  66.7857050  36.8886160  22.6711860  66.5199890  35.5383150  22.0403450
  61.8177440  40.9711250  13.2089620  61.2494340  40.5229500  12.5825530
  62.5266440  41.3304030  12.6754770  56.8946620  44.8723270  27.0856350
  56.5101410  44.2316940  27.6839310  57.2058810  45.5759390  27.6551080
  63.0443760  41.7199810  22.5664970  63.4113890  41.2458380  23.3126310
  62.8548820  42.5941380  22.9073310  55.9084250  36.4643500  18.6958440
  55.6231170  36.0999170  19.5337060  55.8463110  35.7323960  18.0821580
  60.8343130  40.7608450  24.8849180  60.5300200  41.6400430  25.1099540
  61.7889590  40.8208240  24.9206620  59.3624920  44.9669440  15.4816030
  58.5887180  44.4267060  15.3214750  60.0919550  44.4476050  15.1433790
  65.5822840  35.3572760  15.4171810  64.7687450  34.8585930  15.3417120
  65.3884790  36.1971010  15.0008160  65.5031700  44.0343860  27.1611420
  65.4369010  43.1139530  26.9069010  64.8736840  44.1319300  27.8756060
  68.2971230  39.7292410  13.7133970  69.1850850  40.0409640  13.5385310
  68.2676320  38.8564660  13.3214550  59.4062320  44.6349820  19.1194840
  59.9240990  43.8318080  19.0651730  58.9546340  44.5728960  19.9611670
  64.2931820  45.9016100  14.3922140  64.6347520  46.6458330  13.8965460
  63.4644530  46.2147220  14.7546970  56.8906860  41.6011190  26.0320540
  56.5321800  42.2665040  26.6193880  56.5961420  40.7694740  26.4033160
  60.0919980  42.0595430  28.9160090  59.7920120  42.2052610  28.0187910
  60.8631220  41.5000720  28.8233480  65.4348430  46.8564430  26.9115220
  65.4492970  45.9245390  26.6934130  64.7273530  46.9424190  27.5504990
  67.1759230  45.2231940  19.7567650  67.5283050  44.6260070  19.0969020
  66.2921560  44.8976170  19.9275900  63.2622510  45.9829630  17.1638060
  63.9493640  46.5298840  17.5445650  62.4754930  46.5270360  17.1987670
  55.4014910  41.6002450  12.6555140  56.2709760  41.8827250  12.9391060
  54.9105230  42.4138320  12.5403950  62.5649720  42.9875660  16.7763420
  63.0212500  43.7980910  17.0023610  62.2137930  42.6698800  17.6081910
  64.8682330  48.4982000  24.0055720  65.5124550  48.7041380  24.6829140
  65.2311770  47.7370400  23.5526570  58.4661500  33.3313310  17.2485940
  58.3376130  33.3231210  18.1970860  57.6423520  33.6696400  16.8976950
  66.1414410  46.5014350  22.7233170  66.7836640  45.8007510  22.8365340
  66.6663760  47.2812790  22.5430060  69.9870130  46.7862970  12.4472310
  69.7607710  46.0693410  13.0396950  69.5966330  46.5375410  11.6094060
  67.9152030  47.3009250  25.9269230  68.2508270  47.8875940  26.6047150
  66.9952370  47.1701960  26.1567020  55.7686160  50.8129830  13.2216770
  56.1283800  51.4119170  12.5674040  55.6278500  51.3589720  13.9951800
  55.4655430  35.0904430  26.7092640  54.7513950  35.2901350  27.3145250
  55.8850470  34.3144000  27.0807440  55.7528020  49.0784690  27.6959170
  55.8619140  48.1379430  27.5554560  55.1008580  49.3439440  27.0472900
  63.7440610  47.3500580  29.0957290  63.4237480  46.6309820  29.6402980
  63.0698970  48.0255650  29.1693350  61.7854780  48.1961030  14.0390440
  61.7764880  48.9290720  13.4234950  60.8653140  47.9492610  14.1317400
  57.3861420  43.4175920  14.7837200  56.7789370  44.1574820  14.7932500
  57.8610770  43.5075280  13.9575400  66.9594210  37.5826740  24.4594090
  67.3275030  36.7621950  24.7873660  66.0992410  37.6428630  24.8749740
  64.7714380  48.2589270  12.7015630  64.8726360  48.0553260  11.7717610
  63.8716120  48.0047550  12.9063410  62.2940270  38.8169630  16.6839530
  61.5856420  39.2855970  17.1253140  62.5784750  38.1591640  17.3184720
  63.9196200  40.2366330  24.6832060  64.4181450  40.7112150  25.3483910
  64.0619150  39.3129850  24.8902090  66.3255700  35.5420290  18.1235320
  66.2023480  35.5606420  17.1744830  67.2740260  35.5899230  18.2433720
  63.4132490  50.7775590  17.3963300  63.6673990  50.7396980  16.4742670
  62.4644970  50.6508920  17.3891550  60.4975290  37.1254710  14.0590240
  61.3465820  37.5624860  13.9930430  60.1306560  37.4374970  14.8862300
  69.4185070  41.6967470  18.9721810  68.4775210  41.7117700  19.1469500
  69.7329140  40.9103430  19.4182110  59.3966710  43.3787070  12.5325770
  60.1629980  43.2668430  13.0951200  59.4741400  42.6825040  11.8802540
  58.0913470  40.8112140  13.2158660  58.1717060  39.8639650  13.3276060
  58.9833220  41.1419020  13.3219320  58.8928180  50.9607530  20.3193200
  59.6290660  50.4122990  20.5901770  59.2769100  51.8263540  20.1799190
  55.7773660  47.0281100  16.1934710  54.8513440  47.2702240  16.1840120
  56.2430090  47.8555360  16.0719460  57.8986460  50.1453600  29.5078780
  58.6999190  50.4665650  29.9214180  57.3838280  49.7849180  30.2298690
  62.0030490  50.1337840  12.1418770  62.7959100  50.4226670  11.6900560
  61.4834840  49.7030010  11.4631250  66.7351090  46.2533470  29.4554190
  66.1289250  46.2765070  28.7149940  66.4305200  45.5216510  29.9921440
  68.1651460  49.9813760  28.0663600  69.1173210  49.8971780  28.0163840
  68.0179680  50.6455470  28.7397390  55.6184270  42.6327060  28.4514830
  56.1223290  42.0534340  29.0231060  54.8791690  42.9167290  28.9891200
  62.5207890  45.3541250  12.0061120  62.4158530  44.7393600  12.7322500
  62.3532110  44.8307140  11.2224130  62.6722210  44.0398050  27.9850350
  61.9067880  44.6083050  27.9005020  62.8538170  43.7474260  27.0918580
  65.7610620  44.4161280  12.6103110  65.2120720  44.8630580  13.2545850
  66.3829880  43.9110530  13.1340780  57.6507350  40.7756650  29.3464900
  57.6912690  40.4770520  30.2550130  58.5052850  41.1764260  29.1872420
  61.4285740  43.3752200  14.5068410  61.8502160  43.2092070  15.3499800
  61.5536580  42.5652430  14.0123550  59.5913160  39.3548750  27.3139390
  59.0609620  38.8639700  26.6862730  60.2601230  39.7832950  26.7797320
  63.9413380  42.3989810  11.7545510  64.4619040  41.6838830  11.3886660
  64.5881780  43.0375680  12.0546020  68.4891220  43.8218210  27.0780580
  68.9032240  43.9763290  27.9271000  67.5542220  43.9473430  27.2406360
  68.9613390  41.1614370  29.0819730  69.5434160  40.4066690  28.9940210
  69.1375160  41.6921810  28.3051210  60.0785460  36.3211120  27.3936680
  59.9842330  35.7031870  26.6687550  59.4982850  37.0477410  27.1666590
  62.8446900  34.8784360  24.4264070  62.3964200  34.9008620  23.5809620
  62.2112100  34.4803380  25.0234370  63.2506450  43.7738690  25.0476510
  63.6694560  44.6171420  24.8752750  62.3315080  43.9110730  24.8183290
  65.5870350  41.5054870  26.4314350  65.7066560  40.9096010  27.1709190
  66.4464350  41.5424560  26.0115650  67.9258250  42.0592060  25.0076860
  67.3993470  42.5834680  24.4042000  68.2689590  42.6919450  25.6386590
  60.3244640  39.4485430  11.4526570  60.1233700  38.5852790  11.8139910
  60.1536690  39.3618790  10.5148170  61.1013870  50.0791700  26.1634240
  60.5634960  50.8037760  25.8442940  61.3547830  49.6022040  25.3731580
  62.3539120  38.0476220  27.6890170  62.9438810  37.7392070  28.3767990
  61.5359360  37.5755970  27.8450070  67.1732550  37.6642030  27.9223190
  66.4848070  37.0023570  27.8573180  67.8938570  37.2180300  28.3671650
  67.8032950  34.2593660  13.9813450  68.0835240  33.4161560  14.3372870
  67.0298680  34.4916770  14.4952200  59.1227440  36.5486050  11.4404450
  59.4253340  36.5553480  10.5323600  59.8622030  36.1983910  11.9372110
  63.9576080  51.3142910  26.4220890  63.8834780  52.2178050  26.7293260
  63.0554920  50.9954810  26.3942960  62.3412370  35.4920670  12.4260650
  61.9934370  34.8144660  11.8463100  62.5425140  35.0310180  13.2404040
  64.5061410  50.4801420  14.0447250  65.4012200  50.8186390  14.0666010
  64.5379040  49.7580830  13.4171530  58.1457570  45.8528470  12.2734250
  58.5832440  46.3958140  12.9291830  58.6305300  45.0275420  12.2830590
  55.3603370  48.6417500  19.7254510  55.6906380  47.7738560  19.4933150
  55.7894370  48.8476020  20.5559470  59.9565290  46.9726510  17.3856480
  59.6560830  46.8491480  18.2860390  59.8502780  46.1135100  16.9772210
  55.8493580  49.5088090  22.4636140  55.4124570  49.6888890  23.2960290
  56.4171260  50.2662710  22.3217860  55.6818010  42.0208320  18.8225020
  55.0266850  41.7519960  18.1784720  56.5195960  41.9112800  18.3727000
  68.6308450  36.8149610  13.0443510  69.0493330  36.6280590  12.2040170
  68.3244510  35.9628660  13.3546440  56.7193940  42.4060890  23.3628360
  57.0866980  42.3188290  24.2424380  56.1504760  41.6427440  23.2635220
  56.2709940  39.3169980  27.2686780  55.3765990  39.2836740  27.6080490
  56.8107490  39.5156770  28.0338030  54.8956090  39.2307250  14.7650350
  53.9920170  39.4937450  14.5902010  55.3796710  39.5018420  13.9850310
  57.4383300  38.2872790  12.6744730  58.1475000  37.8656010  12.1892010
  56.7223240  38.3548020  12.0428080  57.0857460  34.3412120  11.7147380
  57.8085590  34.8821060  12.0328600  57.3581980  34.0675540  10.8388920
  56.7749650  33.5918310  21.6170000  57.4225840  33.0415690  21.1765160
  57.1951490  33.8461460  22.4385810  56.5281650  33.7473980  24.3595320
  56.1796470  34.2037800  25.1253500  56.1969350  32.8531110  24.4417750
  58.1346020  46.9193580  28.5248510  58.0915650  46.5486490  29.4062970
  58.2657030  47.8571150  28.6650330  61.8352050  48.4753170  24.1258230
  61.5943410  48.7427730  23.2388750  62.7754690  48.6458900  24.1809090
  64.0406470  34.9385860  27.8814740  63.9795360  35.5307690  28.6310150
  64.9806850  34.8311820  27.7365000  66.6781030  34.5955920  27.5207030
  67.2921440  34.9135210  26.8588110  67.2230590  34.1104510  28.1402890
  57.2002290  33.2750180  27.6346090  57.7485280  33.0938230  26.8712200
  57.2657600  32.4844290  28.1702400  57.9734050  49.8655830  25.6446290
  57.3794370  49.7340530  26.3836330  57.9657890  49.0293970  25.1788390
  67.4189070  33.1588060  23.8476320  66.5448910  33.4923170  23.6449250
  67.3099820  32.6861240  24.6728190  68.3261050  35.3658930  25.2318040
  67.9974410  34.5510690  24.8519770  69.2743350  35.3228740  25.1083730
  57.6046280  47.2314210  24.5954330  56.8780340  46.6119500  24.5280280
  57.6655430  47.6254820  23.7252410  61.2091380  49.4459210  21.3803740
  61.7256400  48.8346570  20.8552000  61.8588760  49.9487990  21.8714750
  63.9486880  50.3367700  22.2072720  64.2364690  50.0822000  21.3305730
  64.4610100  49.7845060  22.7978290  65.1663890  34.0757900  22.7869230
  64.3835680  34.5503400  23.0665990  64.8726820  33.1712730  22.6782410
  55.8876280  50.5488600  17.8051090  55.7198320  49.9159280  18.5032980
  55.0210790  50.7548000  17.4545280  56.5104300  34.3805380  15.3082950
  57.2683660  34.4934260  14.7346980  56.0481470  35.2174580  15.2626380
  63.0518110  36.4944650  18.2985260  62.2392620  36.1201540  17.9581140
  63.5559750  35.7389730  18.6006450  67.5543090  33.1587100  19.5368330
  68.1572460  33.7307310  20.0116850  66.8136080  33.7226540  19.3142230
  57.4938980  49.2421830  15.2501230  56.9686600  49.6229860  14.5463190
  57.4183560  49.8672600  15.9710940  58.8829450  34.9069430  13.8484920
  59.4122210  34.1199230  13.7192870  59.5157770  35.5860620  14.0820450
  61.0767290  34.6444570  16.9030310  60.4470030  33.9431880  17.0700440
  60.5372430  35.4048700  16.6863470  64.0159240  51.2583800  29.5740920
  64.9426550  51.0228070  29.6176880  64.0009670  52.0855800  29.0926950
  61.2022850  33.9228550  29.3382800  60.9207120  34.4262150  28.5743620
  61.5842550  33.1250300  28.9724930  60.0931950  51.1904210  14.1250480
  60.8250770  50.9063490  13.5774370  60.3525620  50.9517490  15.0149860
  59.2546740  47.3068940  14.1296810  58.6255620  47.7754040  14.6782640
  59.3694570  46.4618160  14.5643000  67.8038310  33.3382130  29.9163270
  67.6903760  33.6576740  30.8114790  68.6208050  33.7394640  29.6200550
  64.8414500  43.1353620   2.1607280  64.0656600  42.6554060   2.4505850
  65.4927430  42.4559270   1.9863440  58.8580330  43.4473430   3.0383040
  58.0265210  43.1922140   3.4379550  59.4661310  43.5184200   3.7740960
  58.8381590  47.4813520   3.2341060  59.1409630  46.5911260   3.0551280
  59.5825180  48.0383740   3.0063310  55.2305290  41.0080970   2.7065130
  55.8021400  40.2403170   2.7068770  55.2306830  41.3069730   1.7971740
  64.2823490  45.8110810   2.1677440  64.2131770  44.8700750   2.0066570
  65.0443350  45.9012220   2.7400010  56.4730160  36.4165330   4.4934060
  56.2933000  35.5191080   4.7736820  56.0710240  36.9637200   5.1681010
  57.0916830  38.9125830   3.1016400  57.7726940  39.1764200   3.7203800
  56.7764880  38.0726700   3.4354410  61.2841400  39.9593190   2.1888990
  61.7919620  40.4574160   2.8294010  61.8154640  39.1828390   2.0128350
  59.5677500  34.5991750   6.4552410  59.5695940  35.1164140   5.6498310
  58.7381810  34.1221930   6.4322340  60.8180350  44.2386930   4.6325910
  60.4849730  44.8655850   5.2746980  60.9947030  44.7648810   3.8527580
  69.3314260  38.0532010   2.1002250  68.6269830  38.3416900   2.6805360
  69.6926420  38.8632120   1.7401810  59.2492830  36.3101710   4.4622860
  59.5909640  37.1543760   4.1676730  58.3108640  36.4585450   4.5788200
  60.0299450  46.2067730   6.4475090  60.6473450  46.8818810   6.1659540
  59.1692570  46.6155710   6.3562590  68.4835780  49.5151270   3.0774910
  68.4962940  49.1113560   2.2097170  67.9311000  50.2898560   2.9736340
  67.8821220  44.4181110   4.4057520  68.2990010  44.2041220   3.5710980
  68.6061040  44.6753900   4.9766140  68.7925330  39.6037650   5.4428630
  68.3796510  40.4291360   5.6968620  68.0601280  39.0182690   5.2504990
  61.3939820  46.0765110   2.4686510  61.0968110  45.4710580   1.7894290
  62.3439640  46.1142420   2.3575870  59.6386740  39.1640760   4.0846340
  60.1901330  39.2736100   3.3099590  60.1530250  39.5378360   4.8001570
  69.4825430  49.6496980   6.1309610  69.0055990  50.4569170   5.9382220
  68.7987220  48.9975310   6.2835820  60.4858250  45.8146800   9.1194310
  59.5886780  46.0386770   9.3667710  60.5111120  45.9381740   8.1705710
  59.3129470  42.6860120   7.6951680  59.1737240  43.5582920   8.0639080
  58.4310830  42.3432930   7.5499620  61.1109820  48.6281820   9.9036830
  61.0825250  49.0324770   9.0365260  60.9474790  47.6992180   9.7408430
  55.2648120  44.4557670   3.6122590  55.3428540  44.5906440   2.6678310
  55.8789800  43.7473560   3.8050710  66.3274630  50.3049770   6.9295820
  66.8419300  50.2157780   7.7318250  65.4843710  50.6509470   7.2223730
  55.3207640  45.4971840   6.1517050  55.4838680  45.0277200   5.3336420
  55.7860090  44.9895400   6.8165890  64.3796220  37.4946120   6.7912940
  63.9175590  37.7029140   7.6032880  63.9774330  36.6805470   6.4883610
  69.3800730  38.7155070   7.9209600  68.5294320  38.4160820   8.2418670
  69.2202520  38.9597080   7.0093420  66.4750440  40.2156820  10.0208390
  66.8003850  39.3820570   9.6810620  67.2630770  40.7385340  10.1686720
  62.1302310  35.1724930   3.0467220  62.4274640  36.0787760   2.9659240
  62.6787870  34.6843710   2.4326790  62.3239840  40.6496750   9.5819140
  62.2283440  39.7091480   9.4319540  63.1671820  40.8711820   9.1867210
  57.4550380  37.0610420   7.7352920  57.0613770  37.9085630   7.9425700
  56.7668780  36.4236790   7.9261560  64.0295430  37.1445390  10.8049660
  63.3393750  36.9517590  11.4395750  64.7727730  37.4280030  11.3373960
  54.7567430  34.9838880   1.7683000  54.4680480  35.5541740   2.4807980
  55.5013190  34.5043330   2.1314230  66.3058400  40.9843830   3.6403580
  65.5739520  41.4930640   3.9893680  65.9082740  40.1673810   3.3392360
  66.7684310  36.4377510   3.0526520  66.7857050  36.8886160   3.8968370
  66.5199890  35.5383150   3.2659960  56.8946620  44.8723270   8.3112860
  56.5101410  44.2316940   8.9095820  57.2058810  45.5759390   8.8807590
  63.0443760  41.7199810   3.7921480  63.4113890  41.2458380   4.5382820
  62.8548820  42.5941380   4.1329820  60.8343130  40.7608450   6.1105690
  60.5300200  41.6400430   6.3356050  61.7889590  40.8208240   6.1463130
  65.5031700  44.0343860   8.3867930  65.4369010  43.1139530   8.1325520
  64.8736840  44.1319300   9.1012570  56.8906860  41.6011190   7.2577050
  56.5321800  42.2665040   7.8450390  56.5961420  40.7694740   7.6289670
  60.0919980  42.0595430  10.1416600  59.7920120  42.2052610   9.2444420
  60.8631220  41.5000720  10.0489990  65.4348430  46.8564430   8.1371730
  65.4492970  45.9245390   7.9190640  64.7273530  46.9424190   8.7761500
  64.8682330  48.4982000   5.2312230  65.5124550  48.7041380   5.9085650
  65.2311770  47.7370400   4.7783080  66.1414410  46.5014350   3.9489680
  66.7836640  45.8007510   4.0621850  66.6663760  47.2812790   3.7686570
  67.9152030  47.3009250   7.1525740  68.2508270  47.8875940   7.8303660
  66.9952370  47.1701960   7.3823530  55.4655430  35.0904430   7.9349150
  54.7513950  35.2901350   8.5401760  55.8850470  34.3144000   8.3063950
  55.7528020  49.0784690   8.9215680  55.8619140  48.1379430   8.7811070
  55.1008580  49.3439440   8.2729410  63.7440610  47.3500580  10.3213800
  63.4237480  46.6309820  10.8659490  63.0698970  48.0255650  10.3949860
  66.9594210  37.5826740   5.6850600  67.3275030  36.7621950   6.0130170
  66.0992410  37.6428630   6.1006250  63.9196200  40.2366330   5.9088570
  64.4181450  40.7112150   6.5740420  64.0619150  39.3129850   6.1158600
  57.8986460  50.1453600  10.7335290  58.6999190  50.4665650  11.1470690
  57.3838280  49.7849180  11.4555200  66.7351090  46.2533470  10.6810700
  66.1289250  46.2765070   9.9406450  66.4305200  45.5216510  11.2177950
  68.1651460  49.9813760   9.2920110  69.1173210  49.8971780   9.2420350
  68.0179680  50.6455470   9.9653900  55.6184270  42.6327060   9.6771340
  56.1223290  42.0534340  10.2487570  54.8791690  42.9167290  10.2147710
  62.6722210  44.0398050   9.2106860  61.9067880  44.6083050   9.1261530
  62.8538170  43.7474260   8.3175090  57.6507350  40.7756650  10.5721410
  57.6912690  40.4770520  11.4806640  58.5052850  41.1764260  10.4128930
  59.5913160  39.3548750   8.5395900  59.0609620  38.8639700   7.9119240
  60.2601230  39.7832950   8.0053830  68.4891220  43.8218210   8.3037090
  68.9032240  43.9763290   9.1527510  67.5542220  43.9473430   8.4662870
  68.9613390  41.1614370  10.3076240  69.5434160  40.4066690  10.2196720
  69.1375160  41.6921810   9.5307720  60.0785460  36.3211120   8.6193190
  59.9842330  35.7031870   7.8944060  59.4982850  37.0477410   8.3923100
  62.8446900  34.8784360   5.6520580  62.3964200  34.9008620   4.8066130
  62.2112100  34.4803380   6.2490880  63.2506450  43.7738690   6.2733020
  63.6694560  44.6171420   6.1009260  62.3315080  43.9110730   6.0439800
  65.5870350  41.5054870   7.6570860  65.7066560  40.9096010   8.3965700
  66.4464350  41.5424560   7.2372160  67.9258250  42.0592060   6.2333370
  67.3993470  42.5834680   5.6298510  68.2689590  42.6919450   6.8643100
  61.1013870  50.0791700   7.3890750  60.5634960  50.8037760   7.0699450
  61.3547830  49.6022040   6.5988090  62.3539120  38.0476220   8.9146680
  62.9438810  37.7392070   9.6024500  61.5359360  37.5755970   9.0706580
  67.1732550  37.6642030   9.1479700  66.4848070  37.0023570   9.0829690
  67.8938570  37.2180300   9.5928160  63.9576080  51.3142910   7.6477400
  63.8834780  52.2178050   7.9549770  63.0554920  50.9954810   7.6199470
  55.8493580  49.5088090   3.6892650  55.4124570  49.6888890   4.5216800
  56.4171260  50.2662710   3.5474370  56.7193940  42.4060890   4.5884870
  57.0866980  42.3188290   5.4680890  56.1504760  41.6427440   4.4891730
  56.2709940  39.3169980   8.4943290  55.3765990  39.2836740   8.8337000
  56.8107490  39.5156770   9.2594540  56.7749650  33.5918310   2.8426510
  57.4225840  33.0415690   2.4021670  57.1951490  33.8461460   3.6642320
  56.5281650  33.7473980   5.5851830  56.1796470  34.2037800   6.3510010
  56.1969350  32.8531110   5.6674260  58.1346020  46.9193580   9.7505020
  58.0915650  46.5486490  10.6319480  58.2657030  47.8571150   9.8906840
  61.8352050  48.4753170   5.3514740  61.5943410  48.7427730   4.4645260
  62.7754690  48.6458900   5.4065600  64.0406470  34.9385860   9.1071250
  63.9795360  35.5307690   9.8566660  64.9806850  34.8311820   8.9621510
  66.6781030  34.5955920   8.7463540  67.2921440  34.9135210   8.0844620
  67.2230590  34.1104510   9.3659400  57.2002290  33.2750180   8.8602600
  57.7485280  33.0938230   8.0968710  57.2657600  32.4844290   9.3958910
  57.9734050  49.8655830   6.8702800  57.3794370  49.7340530   7.6092840
  57.9657890  49.0293970   6.4044900  67.4189070  33.1588060   5.0732830
  66.5448910  33.4923170   4.8705760  67.3099820  32.6861240   5.8984700
  68.3261050  35.3658930   6.4574550  67.9974410  34.5510690   6.0776280
  69.2743350  35.3228740   6.3340240  57.6046280  47.2314210   5.8210840
  56.8780340  46.6119500   5.7536790  57.6655430  47.6254820   4.9508920
  61.2091380  49.4459210   2.6060250  61.7256400  48.8346570   2.0808510
  61.8588760  49.9487990   3.0971260  63.9486880  50.3367700   3.4329230
  64.2364690  50.0822000   2.5562240  64.4610100  49.7845060   4.0234800
  65.1663890  34.0757900   4.0125740  64.3835680  34.5503400   4.2922500
  64.8726820  33.1712730   3.9038920  64.0159240  51.2583800  10.7997430
  64.9426550  51.0228070  10.8433390  64.0009670  52.0855800  10.3183460
  61.2022850  33.9228550  10.5639310  60.9207120  34.4262150   9.8000130
  61.5842550  33.1250300  10.1981440  67.8038310  33.3382130  11.1419780
  67.6903760  33.6576740  12.0371300  68.6208050  33.7394640  10.8457060
  66.7096460  22.5831110  75.3771970  66.6290510  21.6685720  75.1063680
  66.2960880  23.0798180  74.6711680  68.8621930  28.7670320  76.0380370
  68.4003460  27.9957560  76.3667540  69.6747480  28.7936390  76.5432820
  57.2672280  19.6331830  71.9199390  56.3788980  19.9747800  71.8179270
  57.5513470  19.4332150  71.0280220  65.0885240  31.0528330  75.6584360
  64.4696680  31.5085830  75.0878800  65.9437020  31.2079790  75.2574060
  59.4433670  18.2163330  72.9537770  59.5500420  19.1167060  73.2606530
  58.5326030  18.1681300  72.6632420  69.0952780  17.3388140  74.4248670
  69.9162400  16.8484710  74.4674150  69.1286860  17.9285800  75.1780510
  65.9548590  25.9367570  73.0516270  65.3365860  26.4017020  72.4878990
  66.4671840  26.6295050  73.4685780  55.3231790  26.6224100  70.4255900
  54.9459770  27.1111200  69.6940800  55.5804860  27.2949380  71.0562430
  62.9320720  15.0240490  75.8841410  63.2395700  14.4687380  75.1676910
  62.0021420  15.1584950  75.7014400  69.7781200  27.4624000  73.2639040
  69.6677530  26.5198330  73.3888460  69.7749450  27.8239640  74.1501800
  65.3201480  23.0889320  72.6201530  64.3930760  23.0226700  72.8490000
  65.4726300  24.0269450  72.5056770  65.3070560  19.3606320  69.6168690
  64.3674230  19.5220280  69.7021150  65.6253820  20.0792000  69.0704680
  69.3498770  24.6509620  73.1236780  68.7311190  24.3129170  72.4763080
  69.3323220  24.0069380  73.8315970  60.9258120  23.6154060  75.4021260
  60.5215120  22.9031310  74.9067160  61.0121240  23.2707300  76.2909300
  67.5263470  23.8896430  70.1309530  67.9656750  23.0518860  69.9847350
  68.2391890  24.5225830  70.2173670  65.6358850  28.8292500  74.0990770
  66.0754760  29.5716830  73.6846160  65.5745740  29.0719070  75.0229730
  57.6262750  22.5099040  72.9027910  57.5060350  23.2361130  72.2909180
  57.3163640  21.7401950  72.4255820  56.5095750  27.3814370  75.1202730
  56.1023830  27.5228960  74.2656330  57.4008760  27.0974530  74.9173940
  68.3029030  31.8161620  71.4553780  68.1430170  31.5264560  72.3535610
  68.1375740  31.0401750  70.9199010  60.7817410  31.5960150  73.2325400
  60.6059890  30.6795690  73.0193200  59.9273150  31.9547440  73.4723200
  68.0055160  29.3249180  70.0151780  67.3120320  29.3226470  69.3554060
  68.7478020  28.9008500  69.5845950  67.5705090  30.9511890  74.0900270
  68.0262040  30.1701270  74.4038890  67.9097610  31.6618710  74.6341450
  60.0926410  15.8534110  76.2851580  59.6494560  16.6343650  75.9536100
  60.6511400  16.1764000  76.9922520  63.2085230  15.4744810  71.1657410
  62.5839410  15.4704680  71.8910720  63.1215350  14.6075770  70.7693380
  59.8840630  20.9767680  74.0132830  59.6581550  20.7604850  74.9179450
  59.1033160  21.4096140  73.6678800  67.1138390  20.9831050  72.6123480
  66.5147280  21.7066850  72.4287100  67.6618000  20.9207830  71.8299930
  65.7203260  19.6194590  74.6426760  66.1132830  19.9366790  73.8295450
  66.0820110  18.7406470  74.7571280  54.9437660  20.1515510  68.0759680
  54.8612330  21.0946270  68.2174670  54.5920720  20.0090420  67.1972030
  58.5938170  18.7681030  76.1024240  58.2538220  19.2456260  76.8591290
  57.8315490  18.3146150  75.7425340  62.8055940  19.8866620  70.1336790
  62.9268760  19.8453100  71.0822610  62.4204450  20.7490770  69.9783520
  61.8177440  22.1967760  69.5320090  61.2494340  21.7486010  68.9056000
  62.5266440  22.5560540  68.9985240  55.9084250  17.6900010  75.0188910
  55.6231170  17.3255680  75.8567530  55.8463110  16.9580470  74.4052050
  59.3624920  26.1925950  71.8046500  58.5887180  25.6523570  71.6445220
  60.0919550  25.6732560  71.4664260  65.5822840  16.5829270  71.7402280
  64.7687450  16.0842440  71.6647590  65.3884790  17.4227520  71.3238630
  68.2971230  20.9548920  70.0364440  69.1850850  21.2666150  69.8615780
  68.2676320  20.0821170  69.6445020  59.4062320  25.8606330  75.4425310
  59.9240990  25.0574590  75.3882200  58.9546340  25.7985470  76.2842140
  64.2931820  27.1272610  70.7152610  64.6347520  27.8714840  70.2195930
  63.4644530  27.4403730  71.0777440  67.1759230  26.4488450  76.0798120
  67.5283050  25.8516580  75.4199490  66.2921560  26.1232680  76.2506370
  63.2622510  27.2086140  73.4868530  63.9493640  27.7555350  73.8676120
  62.4754930  27.7526870  73.5218140  55.4014910  22.8258960  68.9785610
  56.2709760  23.1083760  69.2621530  54.9105230  23.6394830  68.8634420
  62.5649720  24.2132170  73.0993890  63.0212500  25.0237420  73.3254080
  62.2137930  23.8955310  73.9312380  58.4661500  14.5569820  73.5716410
  58.3376130  14.5487720  74.5201330  57.6423520  14.8952910  73.2207420
  69.9870130  28.0119480  68.7702780  69.7607710  27.2949920  69.3627420
  69.5966330  27.7631920  67.9324530  55.7686160  32.0386340  69.5447240
  56.1283800  32.6375680  68.8904510  55.6278500  32.5846230  70.3182270
  61.7854780  29.4217540  70.3620910  61.7764880  30.1547230  69.7465420
  60.8653140  29.1749120  70.4547870  57.3861420  24.6432430  71.1067670
  56.7789370  25.3831330  71.1162970  57.8610770  24.7331790  70.2805870
  64.7714380  29.4845780  69.0246100  64.8726360  29.2809770  68.0948080
  63.8716120  29.2304060  69.2293880  62.2940270  20.0426140  73.0070000
  61.5856420  20.5112480  73.4483610  62.5784750  19.3848150  73.6415190
  66.3255700  16.7676800  74.4465790  66.2023480  16.7862930  73.4975300
  67.2740260  16.8155740  74.5664190  63.4132490  32.0032100  73.7193770
  63.6673990  31.9653490  72.7973140  62.4644970  31.8765430  73.7122020
  60.4975290  18.3511220  70.3820710  61.3465820  18.7881370  70.3160900
  60.1306560  18.6631480  71.2092770  69.4185070  22.9223980  75.2952280
  68.4775210  22.9374210  75.4699970  69.7329140  22.1359940  75.7412580
  59.3966710  24.6043580  68.8556240  60.1629980  24.4924940  69.4181670
  59.4741400  23.9081550  68.2033010  58.0913470  22.0368650  69.5389130
  58.1717060  21.0896160  69.6506530  58.9833220  22.3675530  69.6449790
  58.8928180  32.1864040  76.6423670  59.6290660  31.6379500  76.9132240
  59.2769100  33.0520050  76.5029660  55.7773660  28.2537610  72.5165180
  54.8513440  28.4958750  72.5070590  56.2430090  29.0811870  72.3949930
  62.0030490  31.3594350  68.4649240  62.7959100  31.6483180  68.0131030
  61.4834840  30.9286520  67.7861720  62.5207890  26.5797760  68.3291590
  62.4158530  25.9650110  69.0552970  62.3532110  26.0563650  67.5454600
  65.7610620  25.6417790  68.9333580  65.2120720  26.0887090  69.5776320
  66.3829880  25.1367040  69.4571250  61.4285740  24.6008710  70.8298880
  61.8502160  24.4348580  71.6730270  61.5536580  23.7908940  70.3354020
  63.9413380  23.6246320  68.0775980  64.4619040  22.9095340  67.7117130
  64.5881780  24.2632190  68.3776490  60.3244640  20.6741940  67.7757040
  60.1233700  19.8109300  68.1370380  60.1536690  20.5875300  66.8378640
  67.8032950  15.4850170  70.3043920  68.0835240  14.6418070  70.6603340
  67.0298680  15.7173280  70.8182670  59.1227440  17.7742560  67.7634920
  59.4253340  17.7809990  66.8554070  59.8622030  17.4240420  68.2602580
  62.3412370  16.7177180  68.7491120  61.9934370  16.0401170  68.1693570
  62.5425140  16.2566690  69.5634510  64.5061410  31.7057930  70.3677720
  65.4012200  32.0442900  70.3896480  64.5379040  30.9837340  69.7402000
  58.1457570  27.0784980  68.5964720  58.5832440  27.6214650  69.2522300
  58.6305300  26.2531930  68.6061060  55.3603370  29.8674010  76.0484980
  55.6906380  28.9995070  75.8163620  55.7894370  30.0732530  76.8789940
  59.9565290  28.1983020  73.7086950  59.6560830  28.0747990  74.6090860
  59.8502780  27.3391610  73.3002680  55.6818010  23.2464830  75.1455490
  55.0266850  22.9776470  74.5015190  56.5195960  23.1369310  74.6957470
  68.6308450  18.0406120  69.3673980  69.0493330  17.8537100  68.5270640
  68.3244510  17.1885170  69.6776910  54.8956090  20.4563760  71.0880820
  53.9920170  20.7193960  70.9132480  55.3796710  20.7274930  70.3080780
  57.4383300  19.5129300  68.9975200  58.1475000  19.0912520  68.5122480
  56.7223240  19.5804530  68.3658550  57.0857460  15.5668630  68.0377850
  57.8085590  16.1077570  68.3559070  57.3581980  15.2932050  67.1619390
  55.8876280  31.7745110  74.1281560  55.7198320  31.1415790  74.8263450
  55.0210790  31.9804510  73.7775750  56.5104300  15.6061890  71.6313420
  57.2683660  15.7190770  71.0577450  56.0481470  16.4431090  71.5856850
  63.0518110  17.7201160  74.6215730  62.2392620  17.3458050  74.2811610
  63.5559750  16.9646240  74.9236920  67.5543090  14.3843610  75.8598800
  68.1572460  14.9563820  76.3347320  66.8136080  14.9483050  75.6372700
  57.4938980  30.4678340  71.5731700  56.9686600  30.8486370  70.8693660
  57.4183560  31.0929110  72.2941410  58.8829450  16.1325940  70.1715390
  59.4122210  15.3455740  70.0423340  59.5157770  16.8117130  70.4050920
  61.0767290  15.8701080  73.2260780  60.4470030  15.1688390  73.3930910
  60.5372430  16.6305210  73.0093940  60.0931950  32.4160720  70.4480950
  60.8250770  32.1320000  69.9004840  60.3525620  32.1774000  71.3380330
  59.2546740  28.5325450  70.4527280  58.6255620  29.0010550  71.0013110
  59.3694570  27.6874670  70.8873470  66.7096460  22.5831110  56.6028480
  66.6290510  21.6685720  56.3320190  66.2960880  23.0798180  55.8968190
  64.8414500  24.3610130  58.4837750  64.0656600  23.8810570  58.7736320
  65.4927430  23.6815780  58.3093910  58.8580330  24.6729940  59.3613510
  58.0265210  24.4178650  59.7610020  59.4661310  24.7440710  60.0971430
  68.8621930  28.7670320  57.2636880  68.4003460  27.9957560  57.5924050
  69.6747480  28.7936390  57.7689330  58.8381590  28.7070030  59.5571530
  59.1409630  27.8167770  59.3781750  59.5825180  29.2640250  59.3293780
  57.2672280  19.6331830  53.1455900  56.3788980  19.9747800  53.0435780
  57.5513470  19.4332150  52.2536730  55.2305290  22.2337480  59.0295600
  55.8021400  21.4659680  59.0299240  55.2306830  22.5326240  58.1202210
  65.0885240  31.0528330  56.8840870  64.4696680  31.5085830  56.3135310
  65.9437020  31.2079790  56.4830570  64.2823490  27.0367320  58.4907910
  64.2131770  26.0957260  58.3297040  65.0443350  27.1268730  59.0630480
  56.4730160  17.6421840  60.8164530  56.2933000  16.7447590  61.0967290
  56.0710240  18.1893710  61.4911480  65.3128660  19.8437700  58.7176840
  65.6893480  18.9709580  58.6050510  65.2148170  20.1796400  57.8267280
  59.4433670  18.2163330  54.1794280  59.5500420  19.1167060  54.4863040
  58.5326030  18.1681300  53.8888930  69.0952780  17.3388140  55.6505180
  69.9162400  16.8484710  55.6930660  69.1286860  17.9285800  56.4037020
  57.0916830  20.1382340  59.4246870  57.7726940  20.4020710  60.0434270
  56.7764880  19.2983210  59.7584880  61.2841400  21.1849700  58.5119460
  61.7919620  21.6830670  59.1524480  61.8154640  20.4084900  58.3358820
  59.5677500  15.8248260  62.7782880  59.5695940  16.3420650  61.9728780
  58.7381810  15.3478440  62.7552810  65.9548590  25.9367570  54.2772780
  65.3365860  26.4017020  53.7135500  66.4671840  26.6295050  54.6942290
  60.8180350  25.4643440  60.9556380  60.4849730  26.0912360  61.5977450
  60.9947030  25.9905320  60.1758050  69.3314260  19.2788520  58.4232720
  68.6269830  19.5673410  59.0035830  69.6926420  20.0888630  58.0632280
  59.2492830  17.5358220  60.7853330  59.5909640  18.3800270  60.4907200
  58.3108640  17.6841960  60.9018670  60.0299450  27.4324240  62.7705560
  60.6473450  28.1075320  62.4890010  59.1692570  27.8412220  62.6793060
  62.9320720  15.0240490  57.1097920  63.2395700  14.4687380  56.3933420
  62.0021420  15.1584950  56.9270910  68.4835780  30.7407780  59.4005380
  68.4962940  30.3370070  58.5327640  67.9311000  31.5155070  59.2966810
  69.7781200  27.4624000  54.4895550  69.6677530  26.5198330  54.6144970
  69.7749450  27.8239640  55.3758310  67.8821220  25.6437620  60.7287990
  68.2990010  25.4297730  59.8941450  68.6061040  25.9010410  61.2996610
  65.3201480  23.0889320  53.8458040  64.3930760  23.0226700  54.0746510
  65.4726300  24.0269450  53.7313280  65.3070560  19.3606320  50.8425200
  64.3674230  19.5220280  50.9277660  65.6253820  20.0792000  50.2961190
  69.3498770  24.6509620  54.3493290  68.7311190  24.3129170  53.7019590
  69.3323220  24.0069380  55.0572480  68.7925330  20.8294160  61.7659100
  68.3796510  21.6547870  62.0199090  68.0601280  20.2439200  61.5735460
  60.9258120  23.6154060  56.6277770  60.5215120  22.9031310  56.1323670
  61.0121240  23.2707300  57.5165810  61.3939820  27.3021620  58.7916980
  61.0968110  26.6967090  58.1124760  62.3439640  27.3398930  58.6806340
  59.6386740  20.3897270  60.4076810  60.1901330  20.4992610  59.6330060
  60.1530250  20.7634870  61.1232040  69.4825430  30.8753490  62.4540080
  69.0055990  31.6825680  62.2612690  68.7987220  30.2231820  62.6066290
  60.4858250  27.0403310  65.4424780  59.5886780  27.2643280  65.6898180
  60.5111120  27.1638250  64.4936180  67.5263470  23.8896430  51.3566040
  67.9656750  23.0518860  51.2103860  68.2391890  24.5225830  51.4430180
  59.3129470  23.9116630  64.0182150  59.1737240  24.7839430  64.3869550
  58.4310830  23.5689440  63.8730090  65.6358850  28.8292500  55.3247280
  66.0754760  29.5716830  54.9102670  65.5745740  29.0719070  56.2486240
  61.1109820  29.8538330  66.2267300  61.0825250  30.2581280  65.3595730
  60.9474790  28.9248690  66.0638900  57.6262750  22.5099040  54.1284420
  57.5060350  23.2361130  53.5165690  57.3163640  21.7401950  53.6512330
  55.2648120  25.6814180  59.9353060  55.3428540  25.8162950  58.9908780
  55.8789800  24.9730070  60.1281180  56.5095750  27.3814370  56.3459240
  56.1023830  27.5228960  55.4912840  57.4008760  27.0974530  56.1430450
  66.3274630  31.5306280  63.2526290  66.8419300  31.4414290  64.0548720
  65.4843710  31.8765980  63.5454200  68.3029030  31.8161620  52.6810290
  68.1430170  31.5264560  53.5792120  68.1375740  31.0401750  52.1455520
  60.7817410  31.5960150  54.4581910  60.6059890  30.6795690  54.2449710
  59.9273150  31.9547440  54.6979710  68.0055160  29.3249180  51.2408290
  67.3120320  29.3226470  50.5810570  68.7478020  28.9008500  50.8102460
  67.5705090  30.9511890  55.3156780  68.0262040  30.1701270  55.6295400
  67.9097610  31.6618710  55.8597960  55.3207640  26.7228350  62.4747520
  55.4838680  26.2533710  61.6566890  55.7860090  26.2151910  63.1396360
  60.0926410  15.8534110  57.5108090  59.6494560  16.6343650  57.1792610
  60.6511400  16.1764000  58.2179030  64.3796220  18.7202630  63.1143410
  63.9175590  18.9285650  63.9263350  63.9774330  17.9061980  62.8114080
  69.3800730  19.9411580  64.2440070  68.5294320  19.6417330  64.5649140
  69.2202520  20.1853590  63.3323890  66.4750440  21.4413330  66.3438860
  66.8003850  20.6077080  66.0041090  67.2630770  21.9641850  66.4917190
  63.2085230  15.4744810  52.3913920  62.5839410  15.4704680  53.1167230
  63.1215350  14.6075770  51.9949890  62.1302310  16.3981440  59.3697690
  62.4274640  17.3044270  59.2889710  62.6787870  15.9100220  58.7557260
  59.8840630  20.9767680  55.2389340  59.6581550  20.7604850  56.1435960
  59.1033160  21.4096140  54.8935310  67.1138390  20.9831050  53.8379990
  66.5147280  21.7066850  53.6543610  67.6618000  20.9207830  53.0556440
  62.3239840  21.8753260  65.9049610  62.2283440  20.9347990  65.7550010
  63.1671820  22.0968330  65.5097680  65.7203260  19.6194590  55.8683270
  66.1132830  19.9366790  55.0551960  66.0820110  18.7406470  55.9827790
  57.4550380  18.2866930  64.0583390  57.0613770  19.1342140  64.2656170
  56.7668780  17.6493300  64.2492030  64.0295430  18.3701900  67.1280130
  63.3393750  18.1774100  67.7626220  64.7727730  18.6536540  67.6604430
  54.7567430  16.2095390  58.0913470  54.4680480  16.7798250  58.8038450
  55.5013190  15.7299840  58.4544700  66.3058400  22.2100340  59.9634050
  65.5739520  22.7187150  60.3124150  65.9082740  21.3930320  59.6622830
  62.7435790  18.8854540  58.3686540  62.7471850  18.4444490  57.5191080
  63.6386910  19.2071870  58.4758360  58.5938170  18.7681030  57.3280750
  58.2538220  19.2456260  58.0847800  57.8315490  18.3146150  56.9681850
  62.8055940  19.8866620  51.3593300  62.9268760  19.8453100  52.3079120
  62.4204450  20.7490770  51.2040030  66.7684310  17.6634020  59.3756990
  66.7857050  18.1142670  60.2198840  66.5199890  16.7639660  59.5890430
  61.8177440  22.1967760  50.7576600  61.2494340  21.7486010  50.1312510
  62.5266440  22.5560540  50.2241750  56.8946620  26.0979780  64.6343330
  56.5101410  25.4573450  65.2326290  57.2058810  26.8015900  65.2038060
  63.0443760  22.9456320  60.1151950  63.4113890  22.4714890  60.8613290
  62.8548820  23.8197890  60.4560290  55.9084250  17.6900010  56.2445420
  55.6231170  17.3255680  57.0824040  55.8463110  16.9580470  55.6308560
  60.8343130  21.9864960  62.4336160  60.5300200  22.8656940  62.6586520
  61.7889590  22.0464750  62.4693600  59.3624920  26.1925950  53.0303010
  58.5887180  25.6523570  52.8701730  60.0919550  25.6732560  52.6920770
  65.5822840  16.5829270  52.9658790  64.7687450  16.0842440  52.8904100
  65.3884790  17.4227520  52.5495140  65.5031700  25.2600370  64.7098400
  65.4369010  24.3396040  64.4555990  64.8736840  25.3575810  65.4243040
  68.2971230  20.9548920  51.2620950  69.1850850  21.2666150  51.0872290
  68.2676320  20.0821170  50.8701530  59.4062320  25.8606330  56.6681820
  59.9240990  25.0574590  56.6138710  58.9546340  25.7985470  57.5098650
  64.2931820  27.1272610  51.9409120  64.6347520  27.8714840  51.4452440
  63.4644530  27.4403730  52.3033950  56.8906860  22.8267700  63.5807520
  56.5321800  23.4921550  64.1680860  56.5961420  21.9951250  63.9520140
  60.0919980  23.2851940  66.4647070  59.7920120  23.4309120  65.5674890
  60.8631220  22.7257230  66.3720460  65.4348430  28.0820940  64.4602200
  65.4492970  27.1501900  64.2421110  64.7273530  28.1680700  65.0991970
  67.1759230  26.4488450  57.3054630  67.5283050  25.8516580  56.6456000
  66.2921560  26.1232680  57.4762880  63.2622510  27.2086140  54.7125040
  63.9493640  27.7555350  55.0932630  62.4754930  27.7526870  54.7474650
  62.5649720  24.2132170  54.3250400  63.0212500  25.0237420  54.5510590
  62.2137930  23.8955310  55.1568890  64.8682330  29.7238510  61.5542700
  65.5124550  29.9297890  62.2316120  65.2311770  28.9626910  61.1013550
  58.4661500  14.5569820  54.7972920  58.3376130  14.5487720  55.7457840
  57.6423520  14.8952910  54.4463930  66.1414410  27.7270860  60.2720150
  66.7836640  27.0264020  60.3852320  66.6663760  28.5069300  60.0917040
  69.9870130  28.0119480  49.9959290  69.7607710  27.2949920  50.5883930
  69.5966330  27.7631920  49.1581040  67.9152030  28.5265760  63.4756210
  68.2508270  29.1132450  64.1534130  66.9952370  28.3958470  63.7054000
  55.7686160  32.0386340  50.7703750  56.1283800  32.6375680  50.1161020
  55.6278500  32.5846230  51.5438780  55.4655430  16.3160940  64.2579620
  54.7513950  16.5157860  64.8632230  55.8850470  15.5400510  64.6294420
  55.7528020  30.3041200  65.2446150  55.8619140  29.3635940  65.1041540
  55.1008580  30.5695950  64.5959880  63.7440610  28.5757090  66.6444270
  63.4237480  27.8566330  67.1889960  63.0698970  29.2512160  66.7180330
  61.7854780  29.4217540  51.5877420  61.7764880  30.1547230  50.9721930
  60.8653140  29.1749120  51.6804380  57.3861420  24.6432430  52.3324180
  56.7789370  25.3831330  52.3419480  57.8610770  24.7331790  51.5062380
  66.9594210  18.8083250  62.0081070  67.3275030  17.9878460  62.3360640
  66.0992410  18.8685140  62.4236720  64.7714380  29.4845780  50.2502610
  64.8726360  29.2809770  49.3204590  63.8716120  29.2304060  50.4550390
  62.2940270  20.0426140  54.2326510  61.5856420  20.5112480  54.6740120
  62.5784750  19.3848150  54.8671700  63.9196200  21.4622840  62.2319040
  64.4181450  21.9368660  62.8970890  64.0619150  20.5386360  62.4389070
  66.3255700  16.7676800  55.6722300  66.2023480  16.7862930  54.7231810
  67.2740260  16.8155740  55.7920700  63.4132490  32.0032100  54.9450280
  63.6673990  31.9653490  54.0229650  62.4644970  31.8765430  54.9378530
  60.4975290  18.3511220  51.6077220  61.3465820  18.7881370  51.5417410
  60.1306560  18.6631480  52.4349280  69.4185070  22.9223980  56.5208790
  68.4775210  22.9374210  56.6956480  69.7329140  22.1359940  56.9669090
  59.3966710  24.6043580  50.0812750  60.1629980  24.4924940  50.6438180
  59.4741400  23.9081550  49.4289520  58.0913470  22.0368650  50.7645640
  58.1717060  21.0896160  50.8763040  58.9833220  22.3675530  50.8706300
  58.8928180  32.1864040  57.8680180  59.6290660  31.6379500  58.1388750
  59.2769100  33.0520050  57.7286170  55.7773660  28.2537610  53.7421690
  54.8513440  28.4958750  53.7327100  56.2430090  29.0811870  53.6206440
  57.8986460  31.3710110  67.0565760  58.6999190  31.6922160  67.4701160
  57.3838280  31.0105690  67.7785670  62.0030490  31.3594350  49.6905750
  62.7959100  31.6483180  49.2387540  61.4834840  30.9286520  49.0118230
  66.7351090  27.4789980  67.0041170  66.1289250  27.5021580  66.2636920
  66.4305200  26.7473020  67.5408420  68.1651460  31.2070270  65.6150580
  69.1173210  31.1228290  65.5650820  68.0179680  31.8711980  66.2884370
  55.6184270  23.8583570  66.0001810  56.1223290  23.2790850  66.5718040
  54.8791690  24.1423800  66.5378180  62.5207890  26.5797760  49.5548100
  62.4158530  25.9650110  50.2809480  62.3532110  26.0563650  48.7711110
  62.6722210  25.2654560  65.5337330  61.9067880  25.8339560  65.4492000
  62.8538170  24.9730770  64.6405560  65.7610620  25.6417790  50.1590090
  65.2120720  26.0887090  50.8032830  66.3829880  25.1367040  50.6827760
  57.6507350  22.0013160  66.8951880  57.6912690  21.7027030  67.8037110
  58.5052850  22.4020770  66.7359400  61.4285740  24.6008710  52.0555390
  61.8502160  24.4348580  52.8986780  61.5536580  23.7908940  51.5610530
  59.5913160  20.5805260  64.8626370  59.0609620  20.0896210  64.2349710
  60.2601230  21.0089460  64.3284300  63.9413380  23.6246320  49.3032490
  64.4619040  22.9095340  48.9373640  64.5881780  24.2632190  49.6033000
  68.4891220  25.0474720  64.6267560  68.9032240  25.2019800  65.4757980
  67.5542220  25.1729940  64.7893340  68.9613390  22.3870880  66.6306710
  69.5434160  21.6323200  66.5427190  69.1375160  22.9178320  65.8538190
  60.0785460  17.5467630  64.9423660  59.9842330  16.9288380  64.2174530
  59.4982850  18.2733920  64.7153570  62.8446900  16.1040870  61.9751050
  62.3964200  16.1265130  61.1296600  62.2112100  15.7059890  62.5721350
  63.2506450  24.9995200  62.5963490  63.6694560  25.8427930  62.4239730
  62.3315080  25.1367240  62.3670270  65.5870350  22.7311380  63.9801330
  65.7066560  22.1352520  64.7196170  66.4464350  22.7681070  63.5602630
  67.9258250  23.2848570  62.5563840  67.3993470  23.8091190  61.9528980
  68.2689590  23.9175960  63.1873570  60.3244640  20.6741940  49.0013550
  60.1233700  19.8109300  49.3626890  60.1536690  20.5875300  48.0635150
  61.1013870  31.3048210  63.7121220  60.5634960  32.0294270  63.3929920
  61.3547830  30.8278550  62.9218560  62.3539120  19.2732730  65.2377150
  62.9438810  18.9648580  65.9254970  61.5359360  18.8012480  65.3937050
  67.1732550  18.8898540  65.4710170  66.4848070  18.2280080  65.4060160
  67.8938570  18.4436810  65.9158630  67.8032950  15.4850170  51.5300430
  68.0835240  14.6418070  51.8859850  67.0298680  15.7173280  52.0439180
  59.1227440  17.7742560  48.9891430  59.4253340  17.7809990  48.0810580
  59.8622030  17.4240420  49.4859090  63.9576080  32.5399420  63.9707870
  63.8834780  33.4434560  64.2780240  63.0554920  32.2211320  63.9429940
  62.3412370  16.7177180  49.9747630  61.9934370  16.0401170  49.3950080
  62.5425140  16.2566690  50.7891020  64.5061410  31.7057930  51.5934230
  65.4012200  32.0442900  51.6152990  64.5379040  30.9837340  50.9658510
  58.1457570  27.0784980  49.8221230  58.5832440  27.6214650  50.4778810
  58.6305300  26.2531930  49.8317570  55.3603370  29.8674010  57.2741490
  55.6906380  28.9995070  57.0420130  55.7894370  30.0732530  58.1046450
  59.9565290  28.1983020  54.9343460  59.6560830  28.0747990  55.8347370
  59.8502780  27.3391610  54.5259190  55.8493580  30.7344600  60.0123120
  55.4124570  30.9145400  60.8447270  56.4171260  31.4919220  59.8704840
  55.6818010  23.2464830  56.3712000  55.0266850  22.9776470  55.7271700
  56.5195960  23.1369310  55.9213980  68.6308450  18.0406120  50.5930490
  69.0493330  17.8537100  49.7527150  68.3244510  17.1885170  50.9033420
  56.7193940  23.6317400  60.9115340  57.0866980  23.5444800  61.7911360
  56.1504760  22.8683950  60.8122200  56.2709940  20.5426490  64.8173760
  55.3765990  20.5093250  65.1567470  56.8107490  20.7413280  65.5825010
  57.4383300  19.5129300  50.2231710  58.1475000  19.0912520  49.7378990
  56.7223240  19.5804530  49.5915060  57.0857460  15.5668630  49.2634360
  57.8085590  16.1077570  49.5815580  57.3581980  15.2932050  48.3875900
  56.7749650  14.8174820  59.1656980  57.4225840  14.2672200  58.7252140
  57.1951490  15.0717970  59.9872790  56.5281650  14.9730490  61.9082300
  56.1796470  15.4294310  62.6740480  56.1969350  14.0787620  61.9904730
  58.1346020  28.1450090  66.0735490  58.0915650  27.7743000  66.9549950
  58.2657030  29.0827660  66.2137310  61.8352050  29.7009680  61.6745210
  61.5943410  29.9684240  60.7875730  62.7754690  29.8715410  61.7296070
  64.0406470  16.1642370  65.4301720  63.9795360  16.7564200  66.1797130
  64.9806850  16.0568330  65.2851980  66.6781030  15.8212430  65.0694010
  67.2921440  16.1391720  64.4075090  67.2230590  15.3361020  65.6889870
  57.2002290  14.5006690  65.1833070  57.7485280  14.3194740  64.4199180
  57.2657600  13.7100800  65.7189380  57.9734050  31.0912340  63.1933270
  57.3794370  30.9597040  63.9323310  57.9657890  30.2550480  62.7275370
  67.4189070  14.3844570  61.3963300  66.5448910  14.7179680  61.1936230
  67.3099820  13.9117750  62.2215170  68.3261050  16.5915440  62.7805020
  67.9974410  15.7767200  62.4006750  69.2743350  16.5485250  62.6570710
  57.6046280  28.4570720  62.1441310  56.8780340  27.8376010  62.0767260
  57.6655430  28.8511330  61.2739390  61.2091380  30.6715720  58.9290720
  61.7256400  30.0603080  58.4038980  61.8588760  31.1744500  59.4201730
  63.9486880  31.5624210  59.7559700  64.2364690  31.3078510  58.8792710
  64.4610100  31.0101570  60.3465270  65.1663890  15.3014410  60.3356210
  64.3835680  15.7759910  60.6152970  64.8726820  14.3969240  60.2269390
  55.8876280  31.7745110  55.3538070  55.7198320  31.1415790  56.0519960
  55.0210790  31.9804510  55.0032260  56.5104300  15.6061890  52.8569930
  57.2683660  15.7190770  52.2833960  56.0481470  16.4431090  52.8113360
  63.0518110  17.7201160  55.8472240  62.2392620  17.3458050  55.5068120
  63.5559750  16.9646240  56.1493430  67.5543090  14.3843610  57.0855310
  68.1572460  14.9563820  57.5603830  66.8136080  14.9483050  56.8629210
  57.4938980  30.4678340  52.7988210  56.9686600  30.8486370  52.0950170
  57.4183560  31.0929110  53.5197920  58.8829450  16.1325940  51.3971900
  59.4122210  15.3455740  51.2679850  59.5157770  16.8117130  51.6307430
  61.0767290  15.8701080  54.4517290  60.4470030  15.1688390  54.6187420
  60.5372430  16.6305210  54.2350450  64.0159240  32.4840310  67.1227900
  64.9426550  32.2484580  67.1663860  64.0009670  33.3112310  66.6413930
  61.2022850  15.1485060  66.8869780  60.9207120  15.6518660  66.1230600
  61.5842550  14.3506810  66.5211910  60.0931950  32.4160720  51.6737460
  60.8250770  32.1320000  51.1261350  60.3525620  32.1774000  52.5636840
  59.2546740  28.5325450  51.6783790  58.6255620  29.0010550  52.2269620
  59.3694570  27.6874670  52.1129980  67.8038310  14.5638640  67.4650250
  67.6903760  14.8833250  68.3601770  68.6208050  14.9651150  67.1687530
  66.7096460  22.5831110  37.8284990  66.6290510  21.6685720  37.5576700
  66.2960880  23.0798180  37.1224700  64.8414500  24.3610130  39.7094260
  64.0656600  23.8810570  39.9992830  65.4927430  23.6815780  39.5350420
  58.8580330  24.6729940  40.5870020  58.0265210  24.4178650  40.9866530
  59.4661310  24.7440710  41.3227940  68.8621930  28.7670320  38.4893390
  68.4003460  27.9957560  38.8180560  69.6747480  28.7936390  38.9945840
  58.8381590  28.7070030  40.7828040  59.1409630  27.8167770  40.6038260
  59.5825180  29.2640250  40.5550290  57.2672280  19.6331830  34.3712410
  56.3788980  19.9747800  34.2692290  57.5513470  19.4332150  33.4793240
  55.2305290  22.2337480  40.2552110  55.8021400  21.4659680  40.2555750
  55.2306830  22.5326240  39.3458720  65.0885240  31.0528330  38.1097380
  64.4696680  31.5085830  37.5391820  65.9437020  31.2079790  37.7087080
  64.2823490  27.0367320  39.7164420  64.2131770  26.0957260  39.5553550
  65.0443350  27.1268730  40.2886990  56.4730160  17.6421840  42.0421040
  56.2933000  16.7447590  42.3223800  56.0710240  18.1893710  42.7167990
  65.3128660  19.8437700  39.9433350  65.6893480  18.9709580  39.8307020
  65.2148170  20.1796400  39.0523790  59.4433670  18.2163330  35.4050790
  59.5500420  19.1167060  35.7119550  58.5326030  18.1681300  35.1145440
  69.0952780  17.3388140  36.8761690  69.9162400  16.8484710  36.9187170
  69.1286860  17.9285800  37.6293530  57.0916830  20.1382340  40.6503380
  57.7726940  20.4020710  41.2690780  56.7764880  19.2983210  40.9841390
  61.2841400  21.1849700  39.7375970  61.7919620  21.6830670  40.3780990
  61.8154640  20.4084900  39.5615330  59.5677500  15.8248260  44.0039390
  59.5695940  16.3420650  43.1985290  58.7381810  15.3478440  43.9809320
  65.9548590  25.9367570  35.5029290  65.3365860  26.4017020  34.9392010
  66.4671840  26.6295050  35.9198800  60.8180350  25.4643440  42.1812890
  60.4849730  26.0912360  42.8233960  60.9947030  25.9905320  41.4014560
  69.3314260  19.2788520  39.6489230  68.6269830  19.5673410  40.2292340
  69.6926420  20.0888630  39.2888790  59.2492830  17.5358220  42.0109840
  59.5909640  18.3800270  41.7163710  58.3108640  17.6841960  42.1275180
  60.0299450  27.4324240  43.9962070  60.6473450  28.1075320  43.7146520
  59.1692570  27.8412220  43.9049570  55.3231790  26.6224100  32.8768920
  54.9459770  27.1111200  32.1453820  55.5804860  27.2949380  33.5075450
  62.9320720  15.0240490  38.3354430  63.2395700  14.4687380  37.6189930
  62.0021420  15.1584950  38.1527420  68.4835780  30.7407780  40.6261890
  68.4962940  30.3370070  39.7584150  67.9311000  31.5155070  40.5223320
  69.7781200  27.4624000  35.7152060  69.6677530  26.5198330  35.8401480
  69.7749450  27.8239640  36.6014820  67.8821220  25.6437620  41.9544500
  68.2990010  25.4297730  41.1197960  68.6061040  25.9010410  42.5253120
  65.3201480  23.0889320  35.0714550  64.3930760  23.0226700  35.3003020
  65.4726300  24.0269450  34.9569790  65.3070560  19.3606320  32.0681710
  64.3674230  19.5220280  32.1534170  65.6253820  20.0792000  31.5217700
  69.3498770  24.6509620  35.5749800  68.7311190  24.3129170  34.9276100
  69.3323220  24.0069380  36.2828990  68.7925330  20.8294160  42.9915610
  68.3796510  21.6547870  43.2455600  68.0601280  20.2439200  42.7991970
  60.9258120  23.6154060  37.8534280  60.5215120  22.9031310  37.3580180
  61.0121240  23.2707300  38.7422320  61.3939820  27.3021620  40.0173490
  61.0968110  26.6967090  39.3381270  62.3439640  27.3398930  39.9062850
  59.6386740  20.3897270  41.6333320  60.1901330  20.4992610  40.8586570
  60.1530250  20.7634870  42.3488550  69.4825430  30.8753490  43.6796590
  69.0055990  31.6825680  43.4869200  68.7987220  30.2231820  43.8322800
  60.4858250  27.0403310  46.6681290  59.5886780  27.2643280  46.9154690
  60.5111120  27.1638250  45.7192690  67.5263470  23.8896430  32.5822550
  67.9656750  23.0518860  32.4360370  68.2391890  24.5225830  32.6686690
  59.3129470  23.9116630  45.2438660  59.1737240  24.7839430  45.6126060
  58.4310830  23.5689440  45.0986600  65.6358850  28.8292500  36.5503790
  66.0754760  29.5716830  36.1359180  65.5745740  29.0719070  37.4742750
  61.1109820  29.8538330  47.4523810  61.0825250  30.2581280  46.5852240
  60.9474790  28.9248690  47.2895410  57.6262750  22.5099040  35.3540930
  57.5060350  23.2361130  34.7422200  57.3163640  21.7401950  34.8768840
  55.2648120  25.6814180  41.1609570  55.3428540  25.8162950  40.2165290
  55.8789800  24.9730070  41.3537690  56.5095750  27.3814370  37.5715750
  56.1023830  27.5228960  36.7169350  57.4008760  27.0974530  37.3686960
  66.3274630  31.5306280  44.4782800  66.8419300  31.4414290  45.2805230
  65.4843710  31.8765980  44.7710710  68.3029030  31.8161620  33.9066800
  68.1430170  31.5264560  34.8048630  68.1375740  31.0401750  33.3712030
  60.7817410  31.5960150  35.6838420  60.6059890  30.6795690  35.4706220
  59.9273150  31.9547440  35.9236220  68.0055160  29.3249180  32.4664800
  67.3120320  29.3226470  31.8067080  68.7478020  28.9008500  32.0358970
  67.5705090  30.9511890  36.5413290  68.0262040  30.1701270  36.8551910
  67.9097610  31.6618710  37.0854470  55.3207640  26.7228350  43.7004030
  55.4838680  26.2533710  42.8823400  55.7860090  26.2151910  44.3652870
  60.0926410  15.8534110  38.7364600  59.6494560  16.6343650  38.4049120
  60.6511400  16.1764000  39.4435540  64.3796220  18.7202630  44.3399920
  63.9175590  18.9285650  45.1519860  63.9774330  17.9061980  44.0370590
  69.3800730  19.9411580  45.4696580  68.5294320  19.6417330  45.7905650
  69.2202520  20.1853590  44.5580400  66.4750440  21.4413330  47.5695370
  66.8003850  20.6077080  47.2297600  67.2630770  21.9641850  47.7173700
  63.2085230  15.4744810  33.6170430  62.5839410  15.4704680  34.3423740
  63.1215350  14.6075770  33.2206400  62.1302310  16.3981440  40.5954200
  62.4274640  17.3044270  40.5146220  62.6787870  15.9100220  39.9813770
  59.8840630  20.9767680  36.4645850  59.6581550  20.7604850  37.3692470
  59.1033160  21.4096140  36.1191820  67.1138390  20.9831050  35.0636500
  66.5147280  21.7066850  34.8800120  67.6618000  20.9207830  34.2812950
  62.3239840  21.8753260  47.1306120  62.2283440  20.9347990  46.9806520
  63.1671820  22.0968330  46.7354190  65.7203260  19.6194590  37.0939780
  66.1132830  19.9366790  36.2808470  66.0820110  18.7406470  37.2084300
  57.4550380  18.2866930  45.2839900  57.0613770  19.1342140  45.4912680
  56.7668780  17.6493300  45.4748540  64.0295430  18.3701900  48.3536640
  63.3393750  18.1774100  48.9882730  64.7727730  18.6536540  48.8860940
  54.7567430  16.2095390  39.3169980  54.4680480  16.7798250  40.0294960
  55.5013190  15.7299840  39.6801210  54.9437660  20.1515510  30.5272700
  54.8612330  21.0946270  30.6687690  54.5920720  20.0090420  29.6485050
  66.3058400  22.2100340  41.1890560  65.5739520  22.7187150  41.5380660
  65.9082740  21.3930320  40.8879340  62.7435790  18.8854540  39.5943050
  62.7471850  18.4444490  38.7447590  63.6386910  19.2071870  39.7014870
  58.5938170  18.7681030  38.5537260  58.2538220  19.2456260  39.3104310
  57.8315490  18.3146150  38.1938360  62.8055940  19.8866620  32.5849810
  62.9268760  19.8453100  33.5335630  62.4204450  20.7490770  32.4296540
  66.7684310  17.6634020  40.6013500  66.7857050  18.1142670  41.4455350
  66.5199890  16.7639660  40.8146940  61.8177440  22.1967760  31.9833110
  61.2494340  21.7486010  31.3569020  62.5266440  22.5560540  31.4498260
  56.8946620  26.0979780  45.8599840  56.5101410  25.4573450  46.4582800
  57.2058810  26.8015900  46.4294570  63.0443760  22.9456320  41.3408460
  63.4113890  22.4714890  42.0869800  62.8548820  23.8197890  41.6816800
  55.9084250  17.6900010  37.4701930  55.6231170  17.3255680  38.3080550
  55.8463110  16.9580470  36.8565070  60.8343130  21.9864960  43.6592670
  60.5300200  22.8656940  43.8843030  61.7889590  22.0464750  43.6950110
  59.3624920  26.1925950  34.2559520  58.5887180  25.6523570  34.0958240
  60.0919550  25.6732560  33.9177280  65.5822840  16.5829270  34.1915300
  64.7687450  16.0842440  34.1160610  65.3884790  17.4227520  33.7751650
  65.5031700  25.2600370  45.9354910  65.4369010  24.3396040  45.6812500
  64.8736840  25.3575810  46.6499550  68.2971230  20.9548920  32.4877460
  69.1850850  21.2666150  32.3128800  68.2676320  20.0821170  32.0958040
  59.4062320  25.8606330  37.8938330  59.9240990  25.0574590  37.8395220
  58.9546340  25.7985470  38.7355160  64.2931820  27.1272610  33.1665630
  64.6347520  27.8714840  32.6708950  63.4644530  27.4403730  33.5290460
  56.8906860  22.8267700  44.8064030  56.5321800  23.4921550  45.3937370
  56.5961420  21.9951250  45.1776650  60.0919980  23.2851940  47.6903580
  59.7920120  23.4309120  46.7931400  60.8631220  22.7257230  47.5976970
  65.4348430  28.0820940  45.6858710  65.4492970  27.1501900  45.4677620
  64.7273530  28.1680700  46.3248480  67.1759230  26.4488450  38.5311140
  67.5283050  25.8516580  37.8712510  66.2921560  26.1232680  38.7019390
  63.2622510  27.2086140  35.9381550  63.9493640  27.7555350  36.3189140
  62.4754930  27.7526870  35.9731160  55.4014910  22.8258960  31.4298630
  56.2709760  23.1083760  31.7134550  54.9105230  23.6394830  31.3147440
  62.5649720  24.2132170  35.5506910  63.0212500  25.0237420  35.7767100
  62.2137930  23.8955310  36.3825400  64.8682330  29.7238510  42.7799210
  65.5124550  29.9297890  43.4572630  65.2311770  28.9626910  42.3270060
  58.4661500  14.5569820  36.0229430  58.3376130  14.5487720  36.9714350
  57.6423520  14.8952910  35.6720440  66.1414410  27.7270860  41.4976660
  66.7836640  27.0264020  41.6108830  66.6663760  28.5069300  41.3173550
  69.9870130  28.0119480  31.2215800  69.7607710  27.2949920  31.8140440
  69.5966330  27.7631920  30.3837550  67.9152030  28.5265760  44.7012720
  68.2508270  29.1132450  45.3790640  66.9952370  28.3958470  44.9310510
  55.7686160  32.0386340  31.9960260  56.1283800  32.6375680  31.3417530
  55.6278500  32.5846230  32.7695290  55.4655430  16.3160940  45.4836130
  54.7513950  16.5157860  46.0888740  55.8850470  15.5400510  45.8550930
  55.7528020  30.3041200  46.4702660  55.8619140  29.3635940  46.3298050
  55.1008580  30.5695950  45.8216390  63.7440610  28.5757090  47.8700780
  63.4237480  27.8566330  48.4146470  63.0698970  29.2512160  47.9436840
  61.7854780  29.4217540  32.8133930  61.7764880  30.1547230  32.1978440
  60.8653140  29.1749120  32.9060890  57.3861420  24.6432430  33.5580690
  56.7789370  25.3831330  33.5675990  57.8610770  24.7331790  32.7318890
  66.9594210  18.8083250  43.2337580  67.3275030  17.9878460  43.5617150
  66.0992410  18.8685140  43.6493230  64.7714380  29.4845780  31.4759120
  64.8726360  29.2809770  30.5461100  63.8716120  29.2304060  31.6806900
  62.2940270  20.0426140  35.4583020  61.5856420  20.5112480  35.8996630
  62.5784750  19.3848150  36.0928210  63.9196200  21.4622840  43.4575550
  64.4181450  21.9368660  44.1227400  64.0619150  20.5386360  43.6645580
  66.3255700  16.7676800  36.8978810  66.2023480  16.7862930  35.9488320
  67.2740260  16.8155740  37.0177210  63.4132490  32.0032100  36.1706790
  63.6673990  31.9653490  35.2486160  62.4644970  31.8765430  36.1635040
  60.4975290  18.3511220  32.8333730  61.3465820  18.7881370  32.7673920
  60.1306560  18.6631480  33.6605790  69.4185070  22.9223980  37.7465300
  68.4775210  22.9374210  37.9212990  69.7329140  22.1359940  38.1925600
  59.3966710  24.6043580  31.3069260  60.1629980  24.4924940  31.8694690
  59.4741400  23.9081550  30.6546030  58.0913470  22.0368650  31.9902150
  58.1717060  21.0896160  32.1019550  58.9833220  22.3675530  32.0962810
  58.8928180  32.1864040  39.0936690  59.6290660  31.6379500  39.3645260
  59.2769100  33.0520050  38.9542680  55.7773660  28.2537610  34.9678200
  54.8513440  28.4958750  34.9583610  56.2430090  29.0811870  34.8462950
  57.8986460  31.3710110  48.2822270  58.6999190  31.6922160  48.6957670
  57.3838280  31.0105690  49.0042180  62.0030490  31.3594350  30.9162260
  62.7959100  31.6483180  30.4644050  61.4834840  30.9286520  30.2374740
  66.7351090  27.4789980  48.2297680  66.1289250  27.5021580  47.4893430
  66.4305200  26.7473020  48.7664930  68.1651460  31.2070270  46.8407090
  69.1173210  31.1228290  46.7907330  68.0179680  31.8711980  47.5140880
  62.5207890  26.5797760  30.7804610  62.4158530  25.9650110  31.5065990
  62.3532110  26.0563650  29.9967620  62.6722210  25.2654560  46.7593840
  61.9067880  25.8339560  46.6748510  62.8538170  24.9730770  45.8662070
  65.7610620  25.6417790  31.3846600  65.2120720  26.0887090  32.0289340
  66.3829880  25.1367040  31.9084270  57.6507350  22.0013160  48.1208390
  57.6912690  21.7027030  49.0293620  58.5052850  22.4020770  47.9615910
  61.4285740  24.6008710  33.2811900  61.8502160  24.4348580  34.1243290
  61.5536580  23.7908940  32.7867040  59.5913160  20.5805260  46.0882880
  59.0609620  20.0896210  45.4606220  60.2601230  21.0089460  45.5540810
  63.9413380  23.6246320  30.5289000  64.4619040  22.9095340  30.1630150
  64.5881780  24.2632190  30.8289510  68.4891220  25.0474720  45.8524070
  68.9032240  25.2019800  46.7014490  67.5542220  25.1729940  46.0149850
  68.9613390  22.3870880  47.8563220  69.5434160  21.6323200  47.7683700
  69.1375160  22.9178320  47.0794700  60.0785460  17.5467630  46.1680170
  59.9842330  16.9288380  45.4431040  59.4982850  18.2733920  45.9410080
  62.8446900  16.1040870  43.2007560  62.3964200  16.1265130  42.3553110
  62.2112100  15.7059890  43.7977860  63.2506450  24.9995200  43.8220000
  63.6694560  25.8427930  43.6496240  62.3315080  25.1367240  43.5926780
  65.5870350  22.7311380  45.2057840  65.7066560  22.1352520  45.9452680
  66.4464350  22.7681070  44.7859140  67.9258250  23.2848570  43.7820350
  67.3993470  23.8091190  43.1785490  68.2689590  23.9175960  44.4130080
  60.3244640  20.6741940  30.2270060  60.1233700  19.8109300  30.5883400
  60.1536690  20.5875300  29.2891660  61.1013870  31.3048210  44.9377730
  60.5634960  32.0294270  44.6186430  61.3547830  30.8278550  44.1475070
  62.3539120  19.2732730  46.4633660  62.9438810  18.9648580  47.1511480
  61.5359360  18.8012480  46.6193560  67.1732550  18.8898540  46.6966680
  66.4848070  18.2280080  46.6316670  67.8938570  18.4436810  47.1415140
  67.8032950  15.4850170  32.7556940  68.0835240  14.6418070  33.1116360
  67.0298680  15.7173280  33.2695690  59.1227440  17.7742560  30.2147940
  59.4253340  17.7809990  29.3067090  59.8622030  17.4240420  30.7115600
  63.9576080  32.5399420  45.1964380  63.8834780  33.4434560  45.5036750
  63.0554920  32.2211320  45.1686450  62.3412370  16.7177180  31.2004140
  61.9934370  16.0401170  30.6206590  62.5425140  16.2566690  32.0147530
  64.5061410  31.7057930  32.8190740  65.4012200  32.0442900  32.8409500
  64.5379040  30.9837340  32.1915020  58.1457570  27.0784980  31.0477740
  58.5832440  27.6214650  31.7035320  58.6305300  26.2531930  31.0574080
  55.3603370  29.8674010  38.4998000  55.6906380  28.9995070  38.2676640
  55.7894370  30.0732530  39.3302960  59.9565290  28.1983020  36.1599970
  59.6560830  28.0747990  37.0603880  59.8502780  27.3391610  35.7515700
  55.8493580  30.7344600  41.2379630  55.4124570  30.9145400  42.0703780
  56.4171260  31.4919220  41.0961350  55.6818010  23.2464830  37.5968510
  55.0266850  22.9776470  36.9528210  56.5195960  23.1369310  37.1470490
  68.6308450  18.0406120  31.8187000  69.0493330  17.8537100  30.9783660
  68.3244510  17.1885170  32.1289930  56.7193940  23.6317400  42.1371850
  57.0866980  23.5444800  43.0167870  56.1504760  22.8683950  42.0378710
  56.2709940  20.5426490  46.0430270  55.3765990  20.5093250  46.3823980
  56.8107490  20.7413280  46.8081520  54.8956090  20.4563760  33.5393840
  53.9920170  20.7193960  33.3645500  55.3796710  20.7274930  32.7593800
  57.4383300  19.5129300  31.4488220  58.1475000  19.0912520  30.9635500
  56.7223240  19.5804530  30.8171570  57.0857460  15.5668630  30.4890870
  57.8085590  16.1077570  30.8072090  57.3581980  15.2932050  29.6132410
  56.7749650  14.8174820  40.3913490  57.4225840  14.2672200  39.9508650
  57.1951490  15.0717970  41.2129300  56.5281650  14.9730490  43.1338810
  56.1796470  15.4294310  43.8996990  56.1969350  14.0787620  43.2161240
  58.1346020  28.1450090  47.2992000  58.0915650  27.7743000  48.1806460
  58.2657030  29.0827660  47.4393820  61.8352050  29.7009680  42.9001720
  61.5943410  29.9684240  42.0132240  62.7754690  29.8715410  42.9552580
  64.0406470  16.1642370  46.6558230  63.9795360  16.7564200  47.4053640
  64.9806850  16.0568330  46.5108490  66.6781030  15.8212430  46.2950520
  67.2921440  16.1391720  45.6331600  67.2230590  15.3361020  46.9146380
  57.2002290  14.5006690  46.4089580  57.7485280  14.3194740  45.6455690
  57.2657600  13.7100800  46.9445890  57.9734050  31.0912340  44.4189780
  57.3794370  30.9597040  45.1579820  57.9657890  30.2550480  43.9531880
  67.4189070  14.3844570  42.6219810  66.5448910  14.7179680  42.4192740
  67.3099820  13.9117750  43.4471680  68.3261050  16.5915440  44.0061530
  67.9974410  15.7767200  43.6263260  69.2743350  16.5485250  43.8827220
  57.6046280  28.4570720  43.3697820  56.8780340  27.8376010  43.3023770
  57.6655430  28.8511330  42.4995900  61.2091380  30.6715720  40.1547230
  61.7256400  30.0603080  39.6295490  61.8588760  31.1744500  40.6458240
  63.9486880  31.5624210  40.9816210  64.2364690  31.3078510  40.1049220
  64.4610100  31.0101570  41.5721780  65.1663890  15.3014410  41.5612720
  64.3835680  15.7759910  41.8409480  64.8726820  14.3969240  41.4525900
  55.8876280  31.7745110  36.5794580  55.7198320  31.1415790  37.2776470
  55.0210790  31.9804510  36.2288770  56.5104300  15.6061890  34.0826440
  57.2683660  15.7190770  33.5090470  56.0481470  16.4431090  34.0369870
  63.0518110  17.7201160  37.0728750  62.2392620  17.3458050  36.7324630
  63.5559750  16.9646240  37.3749940  67.5543090  14.3843610  38.3111820
  68.1572460  14.9563820  38.7860340  66.8136080  14.9483050  38.0885720
  57.4938980  30.4678340  34.0244720  56.9686600  30.8486370  33.3206680
  57.4183560  31.0929110  34.7454430  58.8829450  16.1325940  32.6228410
  59.4122210  15.3455740  32.4936360  59.5157770  16.8117130  32.8563940
  61.0767290  15.8701080  35.6773800  60.4470030  15.1688390  35.8443930
  60.5372430  16.6305210  35.4606960  64.0159240  32.4840310  48.3484410
  64.9426550  32.2484580  48.3920370  64.0009670  33.3112310  47.8670440
  61.2022850  15.1485060  48.1126290  60.9207120  15.6518660  47.3487110
  61.5842550  14.3506810  47.7468420  60.0931950  32.4160720  32.8993970
  60.8250770  32.1320000  32.3517860  60.3525620  32.1774000  33.7893350
  59.2546740  28.5325450  32.9040300  58.6255620  29.0010550  33.4526130
  59.3694570  27.6874670  33.3386490  67.8038310  14.5638640  48.6906760
  67.6903760  14.8833250  49.5858280  68.6208050  14.9651150  48.3944040
  66.7096460  22.5831110  19.0541500  66.6290510  21.6685720  18.7833210
  66.2960880  23.0798180  18.3481210  64.8414500  24.3610130  20.9350770
  64.0656600  23.8810570  21.2249340  65.4927430  23.6815780  20.7606930
  58.8580330  24.6729940  21.8126530  58.0265210  24.4178650  22.2123040
  59.4661310  24.7440710  22.5484450  68.8621930  28.7670320  19.7149900
  68.4003460  27.9957560  20.0437070  69.6747480  28.7936390  20.2202350
  58.8381590  28.7070030  22.0084550  59.1409630  27.8167770  21.8294770
  59.5825180  29.2640250  21.7806800  57.2672280  19.6331830  15.5968920
  56.3788980  19.9747800  15.4948800  57.5513470  19.4332150  14.7049750
  55.2305290  22.2337480  21.4808620  55.8021400  21.4659680  21.4812260
  55.2306830  22.5326240  20.5715230  65.0885240  31.0528330  19.3353890
  64.4696680  31.5085830  18.7648330  65.9437020  31.2079790  18.9343590
  64.2823490  27.0367320  20.9420930  64.2131770  26.0957260  20.7810060
  65.0443350  27.1268730  21.5143500  56.4730160  17.6421840  23.2677550
  56.2933000  16.7447590  23.5480310  56.0710240  18.1893710  23.9424500
  65.3128660  19.8437700  21.1689860  65.6893480  18.9709580  21.0563530
  65.2148170  20.1796400  20.2780300  59.4433670  18.2163330  16.6307300
  59.5500420  19.1167060  16.9376060  58.5326030  18.1681300  16.3401950
  69.0952780  17.3388140  18.1018200  69.9162400  16.8484710  18.1443680
  69.1286860  17.9285800  18.8550040  57.0916830  20.1382340  21.8759890
  57.7726940  20.4020710  22.4947290  56.7764880  19.2983210  22.2097900
  61.2841400  21.1849700  20.9632480  61.7919620  21.6830670  21.6037500
  61.8154640  20.4084900  20.7871840  59.5677500  15.8248260  25.2295900
  59.5695940  16.3420650  24.4241800  58.7381810  15.3478440  25.2065830
  65.9548590  25.9367570  16.7285800  65.3365860  26.4017020  16.1648520
  66.4671840  26.6295050  17.1455310  60.8180350  25.4643440  23.4069400
  60.4849730  26.0912360  24.0490470  60.9947030  25.9905320  22.6271070
  69.3314260  19.2788520  20.8745740  68.6269830  19.5673410  21.4548850
  69.6926420  20.0888630  20.5145300  59.2492830  17.5358220  23.2366350
  59.5909640  18.3800270  22.9420220  58.3108640  17.6841960  23.3531690
  60.0299450  27.4324240  25.2218580  60.6473450  28.1075320  24.9403030
  59.1692570  27.8412220  25.1306080  55.3231790  26.6224100  14.1025430
  54.9459770  27.1111200  13.3710330  55.5804860  27.2949380  14.7331960
  62.9320720  15.0240490  19.5610940  63.2395700  14.4687380  18.8446440
  62.0021420  15.1584950  19.3783930  68.4835780  30.7407780  21.8518400
  68.4962940  30.3370070  20.9840660  67.9311000  31.5155070  21.7479830
  69.7781200  27.4624000  16.9408570  69.6677530  26.5198330  17.0657990
  69.7749450  27.8239640  17.8271330  67.8821220  25.6437620  23.1801010
  68.2990010  25.4297730  22.3454470  68.6061040  25.9010410  23.7509630
  65.3201480  23.0889320  16.2971060  64.3930760  23.0226700  16.5259530
  65.4726300  24.0269450  16.1826300  65.3070560  19.3606320  13.2938220
  64.3674230  19.5220280  13.3790680  65.6253820  20.0792000  12.7474210
  69.3498770  24.6509620  16.8006310  68.7311190  24.3129170  16.1532610
  69.3323220  24.0069380  17.5085500  68.7925330  20.8294160  24.2172120
  68.3796510  21.6547870  24.4712110  68.0601280  20.2439200  24.0248480
  60.9258120  23.6154060  19.0790790  60.5215120  22.9031310  18.5836690
  61.0121240  23.2707300  19.9678830  61.3939820  27.3021620  21.2430000
  61.0968110  26.6967090  20.5637780  62.3439640  27.3398930  21.1319360
  59.6386740  20.3897270  22.8589830  60.1901330  20.4992610  22.0843080
  60.1530250  20.7634870  23.5745060  69.4825430  30.8753490  24.9053100
  69.0055990  31.6825680  24.7125710  68.7987220  30.2231820  25.0579310
  60.4858250  27.0403310  27.8937800  59.5886780  27.2643280  28.1411200
  60.5111120  27.1638250  26.9449200  67.5263470  23.8896430  13.8079060
  67.9656750  23.0518860  13.6616880  68.2391890  24.5225830  13.8943200
  59.3129470  23.9116630  26.4695170  59.1737240  24.7839430  26.8382570
  58.4310830  23.5689440  26.3243110  65.6358850  28.8292500  17.7760300
  66.0754760  29.5716830  17.3615690  65.5745740  29.0719070  18.6999260
  61.1109820  29.8538330  28.6780320  61.0825250  30.2581280  27.8108750
  60.9474790  28.9248690  28.5151920  57.6262750  22.5099040  16.5797440
  57.5060350  23.2361130  15.9678710  57.3163640  21.7401950  16.1025350
  55.2648120  25.6814180  22.3866080  55.3428540  25.8162950  21.4421800
  55.8789800  24.9730070  22.5794200  56.5095750  27.3814370  18.7972260
  56.1023830  27.5228960  17.9425860  57.4008760  27.0974530  18.5943470
  66.3274630  31.5306280  25.7039310  66.8419300  31.4414290  26.5061740
  65.4843710  31.8765980  25.9967220  68.3029030  31.8161620  15.1323310
  68.1430170  31.5264560  16.0305140  68.1375740  31.0401750  14.5968540
  60.7817410  31.5960150  16.9094930  60.6059890  30.6795690  16.6962730
  59.9273150  31.9547440  17.1492730  68.0055160  29.3249180  13.6921310
  67.3120320  29.3226470  13.0323590  68.7478020  28.9008500  13.2615480
  67.5705090  30.9511890  17.7669800  68.0262040  30.1701270  18.0808420
  67.9097610  31.6618710  18.3110980  55.3207640  26.7228350  24.9260540
  55.4838680  26.2533710  24.1079910  55.7860090  26.2151910  25.5909380
  60.0926410  15.8534110  19.9621110  59.6494560  16.6343650  19.6305630
  60.6511400  16.1764000  20.6692050  64.3796220  18.7202630  25.5656430
  63.9175590  18.9285650  26.3776370  63.9774330  17.9061980  25.2627100
  69.3800730  19.9411580  26.6953090  68.5294320  19.6417330  27.0162160
  69.2202520  20.1853590  25.7836910  66.4750440  21.4413330  28.7951880
  66.8003850  20.6077080  28.4554110  67.2630770  21.9641850  28.9430210
  63.2085230  15.4744810  14.8426940  62.5839410  15.4704680  15.5680250
  63.1215350  14.6075770  14.4462910  62.1302310  16.3981440  21.8210710
  62.4274640  17.3044270  21.7402730  62.6787870  15.9100220  21.2070280
  59.8840630  20.9767680  17.6902360  59.6581550  20.7604850  18.5948980
  59.1033160  21.4096140  17.3448330  67.1138390  20.9831050  16.2893010
  66.5147280  21.7066850  16.1056630  67.6618000  20.9207830  15.5069460
  62.3239840  21.8753260  28.3562630  62.2283440  20.9347990  28.2063030
  63.1671820  22.0968330  27.9610700  65.7203260  19.6194590  18.3196290
  66.1132830  19.9366790  17.5064980  66.0820110  18.7406470  18.4340810
  57.4550380  18.2866930  26.5096410  57.0613770  19.1342140  26.7169190
  56.7668780  17.6493300  26.7005050  64.0295430  18.3701900  29.5793150
  63.3393750  18.1774100  30.2139240  64.7727730  18.6536540  30.1117450
  54.7567430  16.2095390  20.5426490  54.4680480  16.7798250  21.2551470
  55.5013190  15.7299840  20.9057720  54.9437660  20.1515510  11.7529210
  54.8612330  21.0946270  11.8944200  54.5920720  20.0090420  10.8741560
  66.3058400  22.2100340  22.4147070  65.5739520  22.7187150  22.7637170
  65.9082740  21.3930320  22.1135850  62.7435790  18.8854540  20.8199560
  62.7471850  18.4444490  19.9704100  63.6386910  19.2071870  20.9271380
  58.5938170  18.7681030  19.7793770  58.2538220  19.2456260  20.5360820
  57.8315490  18.3146150  19.4194870  62.8055940  19.8866620  13.8106320
  62.9268760  19.8453100  14.7592140  62.4204450  20.7490770  13.6553050
  66.7684310  17.6634020  21.8270010  66.7857050  18.1142670  22.6711860
  66.5199890  16.7639660  22.0403450  61.8177440  22.1967760  13.2089620
  61.2494340  21.7486010  12.5825530  62.5266440  22.5560540  12.6754770
  56.8946620  26.0979780  27.0856350  56.5101410  25.4573450  27.6839310
  57.2058810  26.8015900  27.6551080  63.0443760  22.9456320  22.5664970
  63.4113890  22.4714890  23.3126310  62.8548820  23.8197890  22.9073310
  55.9084250  17.6900010  18.6958440  55.6231170  17.3255680  19.5337060
  55.8463110  16.9580470  18.0821580  60.8343130  21.9864960  24.8849180
  60.5300200  22.8656940  25.1099540  61.7889590  22.0464750  24.9206620
  59.3624920  26.1925950  15.4816030  58.5887180  25.6523570  15.3214750
  60.0919550  25.6732560  15.1433790  65.5822840  16.5829270  15.4171810
  64.7687450  16.0842440  15.3417120  65.3884790  17.4227520  15.0008160
  65.5031700  25.2600370  27.1611420  65.4369010  24.3396040  26.9069010
  64.8736840  25.3575810  27.8756060  68.2971230  20.9548920  13.7133970
  69.1850850  21.2666150  13.5385310  68.2676320  20.0821170  13.3214550
  59.4062320  25.8606330  19.1194840  59.9240990  25.0574590  19.0651730
  58.9546340  25.7985470  19.9611670  64.2931820  27.1272610  14.3922140
  64.6347520  27.8714840  13.8965460  63.4644530  27.4403730  14.7546970
  56.8906860  22.8267700  26.0320540  56.5321800  23.4921550  26.6193880
  56.5961420  21.9951250  26.4033160  60.0919980  23.2851940  28.9160090
  59.7920120  23.4309120  28.0187910  60.8631220  22.7257230  28.8233480
  65.4348430  28.0820940  26.9115220  65.4492970  27.1501900  26.6934130
  64.7273530  28.1680700  27.5504990  67.1759230  26.4488450  19.7567650
  67.5283050  25.8516580  19.0969020  66.2921560  26.1232680  19.9275900
  63.2622510  27.2086140  17.1638060  63.9493640  27.7555350  17.5445650
  62.4754930  27.7526870  17.1987670  55.4014910  22.8258960  12.6555140
  56.2709760  23.1083760  12.9391060  54.9105230  23.6394830  12.5403950
  62.5649720  24.2132170  16.7763420  63.0212500  25.0237420  17.0023610
  62.2137930  23.8955310  17.6081910  64.8682330  29.7238510  24.0055720
  65.5124550  29.9297890  24.6829140  65.2311770  28.9626910  23.5526570
  58.4661500  14.5569820  17.2485940  58.3376130  14.5487720  18.1970860
  57.6423520  14.8952910  16.8976950  66.1414410  27.7270860  22.7233170
  66.7836640  27.0264020  22.8365340  66.6663760  28.5069300  22.5430060
  69.9870130  28.0119480  12.4472310  69.7607710  27.2949920  13.0396950
  69.5966330  27.7631920  11.6094060  67.9152030  28.5265760  25.9269230
  68.2508270  29.1132450  26.6047150  66.9952370  28.3958470  26.1567020
  55.7686160  32.0386340  13.2216770  56.1283800  32.6375680  12.5674040
  55.6278500  32.5846230  13.9951800  55.4655430  16.3160940  26.7092640
  54.7513950  16.5157860  27.3145250  55.8850470  15.5400510  27.0807440
  55.7528020  30.3041200  27.6959170  55.8619140  29.3635940  27.5554560
  55.1008580  30.5695950  27.0472900  63.7440610  28.5757090  29.0957290
  63.4237480  27.8566330  29.6402980  63.0698970  29.2512160  29.1693350
  61.7854780  29.4217540  14.0390440  61.7764880  30.1547230  13.4234950
  60.8653140  29.1749120  14.1317400  57.3861420  24.6432430  14.7837200
  56.7789370  25.3831330  14.7932500  57.8610770  24.7331790  13.9575400
  66.9594210  18.8083250  24.4594090  67.3275030  17.9878460  24.7873660
  66.0992410  18.8685140  24.8749740  64.7714380  29.4845780  12.7015630
  64.8726360  29.2809770  11.7717610  63.8716120  29.2304060  12.9063410
  62.2940270  20.0426140  16.6839530  61.5856420  20.5112480  17.1253140
  62.5784750  19.3848150  17.3184720  63.9196200  21.4622840  24.6832060
  64.4181450  21.9368660  25.3483910  64.0619150  20.5386360  24.8902090
  66.3255700  16.7676800  18.1235320  66.2023480  16.7862930  17.1744830
  67.2740260  16.8155740  18.2433720  63.4132490  32.0032100  17.3963300
  63.6673990  31.9653490  16.4742670  62.4644970  31.8765430  17.3891550
  60.4975290  18.3511220  14.0590240  61.3465820  18.7881370  13.9930430
  60.1306560  18.6631480  14.8862300  69.4185070  22.9223980  18.9721810
  68.4775210  22.9374210  19.1469500  69.7329140  22.1359940  19.4182110
  59.3966710  24.6043580  12.5325770  60.1629980  24.4924940  13.0951200
  59.4741400  23.9081550  11.8802540  58.0913470  22.0368650  13.2158660
  58.1717060  21.0896160  13.3276060  58.9833220  22.3675530  13.3219320
  58.8928180  32.1864040  20.3193200  59.6290660  31.6379500  20.5901770
  59.2769100  33.0520050  20.1799190  55.7773660  28.2537610  16.1934710
  54.8513440  28.4958750  16.1840120  56.2430090  29.0811870  16.0719460
  57.8986460  31.3710110  29.5078780  58.6999190  31.6922160  29.9214180
  57.3838280  31.0105690  30.2298690  62.0030490  31.3594350  12.1418770
  62.7959100  31.6483180  11.6900560  61.4834840  30.9286520  11.4631250
  66.7351090  27.4789980  29.4554190  66.1289250  27.5021580  28.7149940
  66.4305200  26.7473020  29.9921440  68.1651460  31.2070270  28.0663600
  69.1173210  31.1228290  28.0163840  68.0179680  31.8711980  28.7397390
  55.6184270  23.8583570  28.4514830  56.1223290  23.2790850  29.0231060
  54.8791690  24.1423800  28.9891200  62.5207890  26.5797760  12.0061120
  62.4158530  25.9650110  12.7322500  62.3532110  26.0563650  11.2224130
  62.6722210  25.2654560  27.9850350  61.9067880  25.8339560  27.9005020
  62.8538170  24.9730770  27.0918580  65.7610620  25.6417790  12.6103110
  65.2120720  26.0887090  13.2545850  66.3829880  25.1367040  13.1340780
  57.6507350  22.0013160  29.3464900  57.6912690  21.7027030  30.2550130
  58.5052850  22.4020770  29.1872420  61.4285740  24.6008710  14.5068410
  61.8502160  24.4348580  15.3499800  61.5536580  23.7908940  14.0123550
  59.5913160  20.5805260  27.3139390  59.0609620  20.0896210  26.6862730
  60.2601230  21.0089460  26.7797320  63.9413380  23.6246320  11.7545510
  64.4619040  22.9095340  11.3886660  64.5881780  24.2632190  12.0546020
  68.4891220  25.0474720  27.0780580  68.9032240  25.2019800  27.9271000
  67.5542220  25.1729940  27.2406360  68.9613390  22.3870880  29.0819730
  69.5434160  21.6323200  28.9940210  69.1375160  22.9178320  28.3051210
  60.0785460  17.5467630  27.3936680  59.9842330  16.9288380  26.6687550
  59.4982850  18.2733920  27.1666590  62.8446900  16.1040870  24.4264070
  62.3964200  16.1265130  23.5809620  62.2112100  15.7059890  25.0234370
  63.2506450  24.9995200  25.0476510  63.6694560  25.8427930  24.8752750
  62.3315080  25.1367240  24.8183290  65.5870350  22.7311380  26.4314350
  65.7066560  22.1352520  27.1709190  66.4464350  22.7681070  26.0115650
  67.9258250  23.2848570  25.0076860  67.3993470  23.8091190  24.4042000
  68.2689590  23.9175960  25.6386590  60.3244640  20.6741940  11.4526570
  60.1233700  19.8109300  11.8139910  60.1536690  20.5875300  10.5148170
  61.1013870  31.3048210  26.1634240  60.5634960  32.0294270  25.8442940
  61.3547830  30.8278550  25.3731580  62.3539120  19.2732730  27.6890170
  62.9438810  18.9648580  28.3767990  61.5359360  18.8012480  27.8450070
  67.1732550  18.8898540  27.9223190  66.4848070  18.2280080  27.8573180
  67.8938570  18.4436810  28.3671650  67.8032950  15.4850170  13.9813450
  68.0835240  14.6418070  14.3372870  67.0298680  15.7173280  14.4952200
  59.1227440  17.7742560  11.4404450  59.4253340  17.7809990  10.5323600
  59.8622030  17.4240420  11.9372110  63.9576080  32.5399420  26.4220890
  63.8834780  33.4434560  26.7293260  63.0554920  32.2211320  26.3942960
  62.3412370  16.7177180  12.4260650  61.9934370  16.0401170  11.8463100
  62.5425140  16.2566690  13.2404040  64.5061410  31.7057930  14.0447250
  65.4012200  32.0442900  14.0666010  64.5379040  30.9837340  13.4171530
  58.1457570  27.0784980  12.2734250  58.5832440  27.6214650  12.9291830
  58.6305300  26.2531930  12.2830590  55.3603370  29.8674010  19.7254510
  55.6906380  28.9995070  19.4933150  55.7894370  30.0732530  20.5559470
  59.9565290  28.1983020  17.3856480  59.6560830  28.0747990  18.2860390
  59.8502780  27.3391610  16.9772210  55.8493580  30.7344600  22.4636140
  55.4124570  30.9145400  23.2960290  56.4171260  31.4919220  22.3217860
  55.6818010  23.2464830  18.8225020  55.0266850  22.9776470  18.1784720
  56.5195960  23.1369310  18.3727000  68.6308450  18.0406120  13.0443510
  69.0493330  17.8537100  12.2040170  68.3244510  17.1885170  13.3546440
  56.7193940  23.6317400  23.3628360  57.0866980  23.5444800  24.2424380
  56.1504760  22.8683950  23.2635220  56.2709940  20.5426490  27.2686780
  55.3765990  20.5093250  27.6080490  56.8107490  20.7413280  28.0338030
  54.8956090  20.4563760  14.7650350  53.9920170  20.7193960  14.5902010
  55.3796710  20.7274930  13.9850310  57.4383300  19.5129300  12.6744730
  58.1475000  19.0912520  12.1892010  56.7223240  19.5804530  12.0428080
  57.0857460  15.5668630  11.7147380  57.8085590  16.1077570  12.0328600
  57.3581980  15.2932050  10.8388920  56.7749650  14.8174820  21.6170000
  57.4225840  14.2672200  21.1765160  57.1951490  15.0717970  22.4385810
  56.5281650  14.9730490  24.3595320  56.1796470  15.4294310  25.1253500
  56.1969350  14.0787620  24.4417750  58.1346020  28.1450090  28.5248510
  58.0915650  27.7743000  29.4062970  58.2657030  29.0827660  28.6650330
  61.8352050  29.7009680  24.1258230  61.5943410  29.9684240  23.2388750
  62.7754690  29.8715410  24.1809090  64.0406470  16.1642370  27.8814740
  63.9795360  16.7564200  28.6310150  64.9806850  16.0568330  27.7365000
  66.6781030  15.8212430  27.5207030  67.2921440  16.1391720  26.8588110
  67.2230590  15.3361020  28.1402890  57.2002290  14.5006690  27.6346090
  57.7485280  14.3194740  26.8712200  57.2657600  13.7100800  28.1702400
  57.9734050  31.0912340  25.6446290  57.3794370  30.9597040  26.3836330
  57.9657890  30.2550480  25.1788390  67.4189070  14.3844570  23.8476320
  66.5448910  14.7179680  23.6449250  67.3099820  13.9117750  24.6728190
  68.3261050  16.5915440  25.2318040  67.9974410  15.7767200  24.8519770
  69.2743350  16.5485250  25.1083730  57.6046280  28.4570720  24.5954330
  56.8780340  27.8376010  24.5280280  57.6655430  28.8511330  23.7252410
  61.2091380  30.6715720  21.3803740  61.7256400  30.0603080  20.8552000
  61.8588760  31.1744500  21.8714750  63.9486880  31.5624210  22.2072720
  64.2364690  31.3078510  21.3305730  64.4610100  31.0101570  22.7978290
  65.1663890  15.3014410  22.7869230  64.3835680  15.7759910  23.0665990
  64.8726820  14.3969240  22.6782410  55.8876280  31.7745110  17.8051090
  55.7198320  31.1415790  18.5032980  55.0210790  31.9804510  17.4545280
  56.5104300  15.6061890  15.3082950  57.2683660  15.7190770  14.7346980
  56.0481470  16.4431090  15.2626380  63.0518110  17.7201160  18.2985260
  62.2392620  17.3458050  17.9581140  63.5559750  16.9646240  18.6006450
  67.5543090  14.3843610  19.5368330  68.1572460  14.9563820  20.0116850
  66.8136080  14.9483050  19.3142230  57.4938980  30.4678340  15.2501230
  56.9686600  30.8486370  14.5463190  57.4183560  31.0929110  15.9710940
  58.8829450  16.1325940  13.8484920  59.4122210  15.3455740  13.7192870
  59.5157770  16.8117130  14.0820450  61.0767290  15.8701080  16.9030310
  60.4470030  15.1688390  17.0700440  60.5372430  16.6305210  16.6863470
  64.0159240  32.4840310  29.5740920  64.9426550  32.2484580  29.6176880
  64.0009670  33.3112310  29.0926950  61.2022850  15.1485060  29.3382800
  60.9207120  15.6518660  28.5743620  61.5842550  14.3506810  28.9724930
  60.0931950  32.4160720  14.1250480  60.8250770  32.1320000  13.5774370
  60.3525620  32.1774000  15.0149860  59.2546740  28.5325450  14.1296810
  58.6255620  29.0010550  14.6782640  59.3694570  27.6874670  14.5643000
  67.8038310  14.5638640  29.9163270  67.6903760  14.8833250  30.8114790
  68.6208050  14.9651150  29.6200550  64.8414500  24.3610130   2.1607280
  64.0656600  23.8810570   2.4505850  65.4927430  23.6815780   1.9863440
  58.8580330  24.6729940   3.0383040  58.0265210  24.4178650   3.4379550
  59.4661310  24.7440710   3.7740960  58.8381590  28.7070030   3.2341060
  59.1409630  27.8167770   3.0551280  59.5825180  29.2640250   3.0063310
  55.2305290  22.2337480   2.7065130  55.8021400  21.4659680   2.7068770
  55.2306830  22.5326240   1.7971740  64.2823490  27.0367320   2.1677440
  64.2131770  26.0957260   2.0066570  65.0443350  27.1268730   2.7400010
  56.4730160  17.6421840   4.4934060  56.2933000  16.7447590   4.7736820
  56.0710240  18.1893710   5.1681010  57.0916830  20.1382340   3.1016400
  57.7726940  20.4020710   3.7203800  56.7764880  19.2983210   3.4354410
  61.2841400  21.1849700   2.1888990  61.7919620  21.6830670   2.8294010
  61.8154640  20.4084900   2.0128350  59.5677500  15.8248260   6.4552410
  59.5695940  16.3420650   5.6498310  58.7381810  15.3478440   6.4322340
  60.8180350  25.4643440   4.6325910  60.4849730  26.0912360   5.2746980
  60.9947030  25.9905320   3.8527580  69.3314260  19.2788520   2.1002250
  68.6269830  19.5673410   2.6805360  69.6926420  20.0888630   1.7401810
  59.2492830  17.5358220   4.4622860  59.5909640  18.3800270   4.1676730
  58.3108640  17.6841960   4.5788200  60.0299450  27.4324240   6.4475090
  60.6473450  28.1075320   6.1659540  59.1692570  27.8412220   6.3562590
  68.4835780  30.7407780   3.0774910  68.4962940  30.3370070   2.2097170
  67.9311000  31.5155070   2.9736340  67.8821220  25.6437620   4.4057520
  68.2990010  25.4297730   3.5710980  68.6061040  25.9010410   4.9766140
  68.7925330  20.8294160   5.4428630  68.3796510  21.6547870   5.6968620
  68.0601280  20.2439200   5.2504990  61.3939820  27.3021620   2.4686510
  61.0968110  26.6967090   1.7894290  62.3439640  27.3398930   2.3575870
  59.6386740  20.3897270   4.0846340  60.1901330  20.4992610   3.3099590
  60.1530250  20.7634870   4.8001570  69.4825430  30.8753490   6.1309610
  69.0055990  31.6825680   5.9382220  68.7987220  30.2231820   6.2835820
  60.4858250  27.0403310   9.1194310  59.5886780  27.2643280   9.3667710
  60.5111120  27.1638250   8.1705710  59.3129470  23.9116630   7.6951680
  59.1737240  24.7839430   8.0639080  58.4310830  23.5689440   7.5499620
  61.1109820  29.8538330   9.9036830  61.0825250  30.2581280   9.0365260
  60.9474790  28.9248690   9.7408430  55.2648120  25.6814180   3.6122590
  55.3428540  25.8162950   2.6678310  55.8789800  24.9730070   3.8050710
  66.3274630  31.5306280   6.9295820  66.8419300  31.4414290   7.7318250
  65.4843710  31.8765980   7.2223730  55.3207640  26.7228350   6.1517050
  55.4838680  26.2533710   5.3336420  55.7860090  26.2151910   6.8165890
  64.3796220  18.7202630   6.7912940  63.9175590  18.9285650   7.6032880
  63.9774330  17.9061980   6.4883610  69.3800730  19.9411580   7.9209600
  68.5294320  19.6417330   8.2418670  69.2202520  20.1853590   7.0093420
  66.4750440  21.4413330  10.0208390  66.8003850  20.6077080   9.6810620
  67.2630770  21.9641850  10.1686720  62.1302310  16.3981440   3.0467220
  62.4274640  17.3044270   2.9659240  62.6787870  15.9100220   2.4326790
  62.3239840  21.8753260   9.5819140  62.2283440  20.9347990   9.4319540
  63.1671820  22.0968330   9.1867210  57.4550380  18.2866930   7.7352920
  57.0613770  19.1342140   7.9425700  56.7668780  17.6493300   7.9261560
  64.0295430  18.3701900  10.8049660  63.3393750  18.1774100  11.4395750
  64.7727730  18.6536540  11.3373960  54.7567430  16.2095390   1.7683000
  54.4680480  16.7798250   2.4807980  55.5013190  15.7299840   2.1314230
  66.3058400  22.2100340   3.6403580  65.5739520  22.7187150   3.9893680
  65.9082740  21.3930320   3.3392360  66.7684310  17.6634020   3.0526520
  66.7857050  18.1142670   3.8968370  66.5199890  16.7639660   3.2659960
  56.8946620  26.0979780   8.3112860  56.5101410  25.4573450   8.9095820
  57.2058810  26.8015900   8.8807590  63.0443760  22.9456320   3.7921480
  63.4113890  22.4714890   4.5382820  62.8548820  23.8197890   4.1329820
  60.8343130  21.9864960   6.1105690  60.5300200  22.8656940   6.3356050
  61.7889590  22.0464750   6.1463130  65.5031700  25.2600370   8.3867930
  65.4369010  24.3396040   8.1325520  64.8736840  25.3575810   9.1012570
  56.8906860  22.8267700   7.2577050  56.5321800  23.4921550   7.8450390
  56.5961420  21.9951250   7.6289670  60.0919980  23.2851940  10.1416600
  59.7920120  23.4309120   9.2444420  60.8631220  22.7257230  10.0489990
  65.4348430  28.0820940   8.1371730  65.4492970  27.1501900   7.9190640
  64.7273530  28.1680700   8.7761500  64.8682330  29.7238510   5.2312230
  65.5124550  29.9297890   5.9085650  65.2311770  28.9626910   4.7783080
  66.1414410  27.7270860   3.9489680  66.7836640  27.0264020   4.0621850
  66.6663760  28.5069300   3.7686570  67.9152030  28.5265760   7.1525740
  68.2508270  29.1132450   7.8303660  66.9952370  28.3958470   7.3823530
  55.4655430  16.3160940   7.9349150  54.7513950  16.5157860   8.5401760
  55.8850470  15.5400510   8.3063950  55.7528020  30.3041200   8.9215680
  55.8619140  29.3635940   8.7811070  55.1008580  30.5695950   8.2729410
  63.7440610  28.5757090  10.3213800  63.4237480  27.8566330  10.8659490
  63.0698970  29.2512160  10.3949860  66.9594210  18.8083250   5.6850600
  67.3275030  17.9878460   6.0130170  66.0992410  18.8685140   6.1006250
  63.9196200  21.4622840   5.9088570  64.4181450  21.9368660   6.5740420
  64.0619150  20.5386360   6.1158600  57.8986460  31.3710110  10.7335290
  58.6999190  31.6922160  11.1470690  57.3838280  31.0105690  11.4555200
  66.7351090  27.4789980  10.6810700  66.1289250  27.5021580   9.9406450
  66.4305200  26.7473020  11.2177950  68.1651460  31.2070270   9.2920110
  69.1173210  31.1228290   9.2420350  68.0179680  31.8711980   9.9653900
  55.6184270  23.8583570   9.6771340  56.1223290  23.2790850  10.2487570
  54.8791690  24.1423800  10.2147710  62.6722210  25.2654560   9.2106860
  61.9067880  25.8339560   9.1261530  62.8538170  24.9730770   8.3175090
  57.6507350  22.0013160  10.5721410  57.6912690  21.7027030  11.4806640
  58.5052850  22.4020770  10.4128930  59.5913160  20.5805260   8.5395900
  59.0609620  20.0896210   7.9119240  60.2601230  21.0089460   8.0053830
  68.4891220  25.0474720   8.3037090  68.9032240  25.2019800   9.1527510
  67.5542220  25.1729940   8.4662870  68.9613390  22.3870880  10.3076240
  69.5434160  21.6323200  10.2196720  69.1375160  22.9178320   9.5307720
  60.0785460  17.5467630   8.6193190  59.9842330  16.9288380   7.8944060
  59.4982850  18.2733920   8.3923100  62.8446900  16.1040870   5.6520580
  62.3964200  16.1265130   4.8066130  62.2112100  15.7059890   6.2490880
  63.2506450  24.9995200   6.2733020  63.6694560  25.8427930   6.1009260
  62.3315080  25.1367240   6.0439800  65.5870350  22.7311380   7.6570860
  65.7066560  22.1352520   8.3965700  66.4464350  22.7681070   7.2372160
  67.9258250  23.2848570   6.2333370  67.3993470  23.8091190   5.6298510
  68.2689590  23.9175960   6.8643100  61.1013870  31.3048210   7.3890750
  60.5634960  32.0294270   7.0699450  61.3547830  30.8278550   6.5988090
  62.3539120  19.2732730   8.9146680  62.9438810  18.9648580   9.6024500
  61.5359360  18.8012480   9.0706580  67.1732550  18.8898540   9.1479700
  66.4848070  18.2280080   9.0829690  67.8938570  18.4436810   9.5928160
  63.9576080  32.5399420   7.6477400  63.8834780  33.4434560   7.9549770
  63.0554920  32.2211320   7.6199470  55.8493580  30.7344600   3.6892650
  55.4124570  30.9145400   4.5216800  56.4171260  31.4919220   3.5474370
  56.7193940  23.6317400   4.5884870  57.0866980  23.5444800   5.4680890
  56.1504760  22.8683950   4.4891730  56.2709940  20.5426490   8.4943290
  55.3765990  20.5093250   8.8337000  56.8107490  20.7413280   9.2594540
  56.7749650  14.8174820   2.8426510  57.4225840  14.2672200   2.4021670
  57.1951490  15.0717970   3.6642320  56.5281650  14.9730490   5.5851830
  56.1796470  15.4294310   6.3510010  56.1969350  14.0787620   5.6674260
  58.1346020  28.1450090   9.7505020  58.0915650  27.7743000  10.6319480
  58.2657030  29.0827660   9.8906840  61.8352050  29.7009680   5.3514740
  61.5943410  29.9684240   4.4645260  62.7754690  29.8715410   5.4065600
  64.0406470  16.1642370   9.1071250  63.9795360  16.7564200   9.8566660
  64.9806850  16.0568330   8.9621510  66.6781030  15.8212430   8.7463540
  67.2921440  16.1391720   8.0844620  67.2230590  15.3361020   9.3659400
  57.2002290  14.5006690   8.8602600  57.7485280  14.3194740   8.0968710
  57.2657600  13.7100800   9.3958910  57.9734050  31.0912340   6.8702800
  57.3794370  30.9597040   7.6092840  57.9657890  30.2550480   6.4044900
  67.4189070  14.3844570   5.0732830  66.5448910  14.7179680   4.8705760
  67.3099820  13.9117750   5.8984700  68.3261050  16.5915440   6.4574550
  67.9974410  15.7767200   6.0776280  69.2743350  16.5485250   6.3340240
  57.6046280  28.4570720   5.8210840  56.8780340  27.8376010   5.7536790
  57.6655430  28.8511330   4.9508920  61.2091380  30.6715720   2.6060250
  61.7256400  30.0603080   2.0808510  61.8588760  31.1744500   3.0971260
  63.9486880  31.5624210   3.4329230  64.2364690  31.3078510   2.5562240
  64.4610100  31.0101570   4.0234800  65.1663890  15.3014410   4.0125740
  64.3835680  15.7759910   4.2922500  64.8726820  14.3969240   3.9038920
  64.0159240  32.4840310  10.7997430  64.9426550  32.2484580  10.8433390
  64.0009670  33.3112310  10.3183460  61.2022850  15.1485060  10.5639310
  60.9207120  15.6518660   9.8000130  61.5842550  14.3506810  10.1981440
  67.8038310  14.5638640  11.1419780  67.6903760  14.8833250  12.0371300
  68.6208050  14.9651150  10.8457060  66.7096460   3.8087620  75.3771970
  66.6290510   2.8942230  75.1063680  66.2960880   4.3054690  74.6711680
  68.8621930   9.9926830  76.0380370  68.4003460   9.2214070  76.3667540
  69.6747480  10.0192900  76.5432820  65.0885240  12.2784840  75.6584360
  64.4696680  12.7342340  75.0878800  65.9437020  12.4336300  75.2574060
  65.9548590   7.1624080  73.0516270  65.3365860   7.6273530  72.4878990
  66.4671840   7.8551560  73.4685780  55.3231790   7.8480610  70.4255900
  54.9459770   8.3367710  69.6940800  55.5804860   8.5205890  71.0562430
  69.7781200   8.6880510  73.2639040  69.6677530   7.7454840  73.3888460
  69.7749450   9.0496150  74.1501800  65.3201480   4.3145830  72.6201530
  64.3930760   4.2483210  72.8490000  65.4726300   5.2525960  72.5056770
  69.3498770   5.8766130  73.1236780  68.7311190   5.5385680  72.4763080
  69.3323220   5.2325890  73.8315970  60.9258120   4.8410570  75.4021260
  60.5215120   4.1287820  74.9067160  61.0121240   4.4963810  76.2909300
  67.5263470   5.1152940  70.1309530  67.9656750   4.2775370  69.9847350
  68.2391890   5.7482340  70.2173670  65.6358850  10.0549010  74.0990770
  66.0754760  10.7973340  73.6846160  65.5745740  10.2975580  75.0229730
  57.6262750   3.7355550  72.9027910  57.5060350   4.4617640  72.2909180
  57.3163640   2.9658460  72.4255820  56.5095750   8.6070880  75.1202730
  56.1023830   8.7485470  74.2656330  57.4008760   8.3231040  74.9173940
  68.3029030  13.0418130  71.4553780  68.1430170  12.7521070  72.3535610
  68.1375740  12.2658260  70.9199010  60.7817410  12.8216660  73.2325400
  60.6059890  11.9052200  73.0193200  59.9273150  13.1803950  73.4723200
  68.0055160  10.5505690  70.0151780  67.3120320  10.5482980  69.3554060
  68.7478020  10.1265010  69.5845950  67.5705090  12.1768400  74.0900270
  68.0262040  11.3957780  74.4038890  67.9097610  12.8875220  74.6341450
  59.8840630   2.2024190  74.0132830  59.6581550   1.9861360  74.9179450
  59.1033160   2.6352650  73.6678800  67.1138390   2.2087560  72.6123480
  66.5147280   2.9323360  72.4287100  67.6618000   2.1464340  71.8299930
  61.8177440   3.4224270  69.5320090  61.2494340   2.9742520  68.9056000
  62.5266440   3.7817050  68.9985240  59.3624920   7.4182460  71.8046500
  58.5887180   6.8780080  71.6445220  60.0919550   6.8989070  71.4664260
  59.4062320   7.0862840  75.4425310  59.9240990   6.2831100  75.3882200
  58.9546340   7.0241980  76.2842140  64.2931820   8.3529120  70.7152610
  64.6347520   9.0971350  70.2195930  63.4644530   8.6660240  71.0777440
  67.1759230   7.6744960  76.0798120  67.5283050   7.0773090  75.4199490
  66.2921560   7.3489190  76.2506370  63.2622510   8.4342650  73.4868530
  63.9493640   8.9811860  73.8676120  62.4754930   8.9783380  73.5218140
  55.4014910   4.0515470  68.9785610  56.2709760   4.3340270  69.2621530
  54.9105230   4.8651340  68.8634420  62.5649720   5.4388680  73.0993890
  63.0212500   6.2493930  73.3254080  62.2137930   5.1211820  73.9312380
  69.9870130   9.2375990  68.7702780  69.7607710   8.5206430  69.3627420
  69.5966330   8.9888430  67.9324530  55.7686160  13.2642850  69.5447240
  56.1283800  13.8632190  68.8904510  55.6278500  13.8102740  70.3182270
  61.7854780  10.6474050  70.3620910  61.7764880  11.3803740  69.7465420
  60.8653140  10.4005630  70.4547870  57.3861420   5.8688940  71.1067670
  56.7789370   6.6087840  71.1162970  57.8610770   5.9588300  70.2805870
  64.7714380  10.7102290  69.0246100  64.8726360  10.5066280  68.0948080
  63.8716120  10.4560570  69.2293880  63.4132490  13.2288610  73.7193770
  63.6673990  13.1910000  72.7973140  62.4644970  13.1021940  73.7122020
  69.4185070   4.1480490  75.2952280  68.4775210   4.1630720  75.4699970
  69.7329140   3.3616450  75.7412580  59.3966710   5.8300090  68.8556240
  60.1629980   5.7181450  69.4181670  59.4741400   5.1338060  68.2033010
  58.0913470   3.2625160  69.5389130  58.1717060   2.3152670  69.6506530
  58.9833220   3.5932040  69.6449790  58.8928180  13.4120550  76.6423670
  59.6290660  12.8636010  76.9132240  59.2769100  14.2776560  76.5029660
  55.7773660   9.4794120  72.5165180  54.8513440   9.7215260  72.5070590
  56.2430090  10.3068380  72.3949930  62.0030490  12.5850860  68.4649240
  62.7959100  12.8739690  68.0131030  61.4834840  12.1543030  67.7861720
  62.5207890   7.8054270  68.3291590  62.4158530   7.1906620  69.0552970
  62.3532110   7.2820160  67.5454600  65.7610620   6.8674300  68.9333580
  65.2120720   7.3143600  69.5776320  66.3829880   6.3623550  69.4571250
  61.4285740   5.8265220  70.8298880  61.8502160   5.6605090  71.6730270
  61.5536580   5.0165450  70.3354020  63.9413380   4.8502830  68.0775980
  64.4619040   4.1351850  67.7117130  64.5881780   5.4888700  68.3776490
  64.5061410  12.9314440  70.3677720  65.4012200  13.2699410  70.3896480
  64.5379040  12.2093850  69.7402000  58.1457570   8.3041490  68.5964720
  58.5832440   8.8471160  69.2522300  58.6305300   7.4788440  68.6061060
  55.3603370  11.0930520  76.0484980  55.6906380  10.2251580  75.8163620
  55.7894370  11.2989040  76.8789940  59.9565290   9.4239530  73.7086950
  59.6560830   9.3004500  74.6090860  59.8502780   8.5648120  73.3002680
  55.6818010   4.4721340  75.1455490  55.0266850   4.2032980  74.5015190
  56.5195960   4.3625820  74.6957470  55.8876280  13.0001620  74.1281560
  55.7198320  12.3672300  74.8263450  55.0210790  13.2061020  73.7775750
  57.4938980  11.6934850  71.5731700  56.9686600  12.0742880  70.8693660
  57.4183560  12.3185620  72.2941410  60.0931950  13.6417230  70.4480950
  60.8250770  13.3576510  69.9004840  60.3525620  13.4030510  71.3380330
  59.2546740   9.7581960  70.4527280  58.6255620  10.2267060  71.0013110
  59.3694570   8.9131180  70.8873470  66.7096460   3.8087620  56.6028480
  66.6290510   2.8942230  56.3320190  66.2960880   4.3054690  55.8968190
  64.8414500   5.5866640  58.4837750  64.0656600   5.1067080  58.7736320
  65.4927430   4.9072290  58.3093910  58.8580330   5.8986450  59.3613510
  58.0265210   5.6435160  59.7610020  59.4661310   5.9697220  60.0971430
  68.8621930   9.9926830  57.2636880  68.4003460   9.2214070  57.5924050
  69.6747480  10.0192900  57.7689330  58.8381590   9.9326540  59.5571530
  59.1409630   9.0424280  59.3781750  59.5825180  10.4896760  59.3293780
  55.2305290   3.4593990  59.0295600  55.8021400   2.6916190  59.0299240
  55.2306830   3.7582750  58.1202210  65.0885240  12.2784840  56.8840870
  64.4696680  12.7342340  56.3135310  65.9437020  12.4336300  56.4830570
  64.2823490   8.2623830  58.4907910  64.2131770   7.3213770  58.3297040
  65.0443350   8.3525240  59.0630480  65.9548590   7.1624080  54.2772780
  65.3365860   7.6273530  53.7135500  66.4671840   7.8551560  54.6942290
  60.8180350   6.6899950  60.9556380  60.4849730   7.3168870  61.5977450
  60.9947030   7.2161830  60.1758050  60.0299450   8.6580750  62.7705560
  60.6473450   9.3331830  62.4890010  59.1692570   9.0668730  62.6793060
  55.3231790   7.8480610  51.6512410  54.9459770   8.3367710  50.9197310
  55.5804860   8.5205890  52.2818940  68.4835780  11.9664290  59.4005380
  68.4962940  11.5626580  58.5327640  67.9311000  12.7411580  59.2966810
  69.7781200   8.6880510  54.4895550  69.6677530   7.7454840  54.6144970
  69.7749450   9.0496150  55.3758310  67.8821220   6.8694130  60.7287990
  68.2990010   6.6554240  59.8941450  68.6061040   7.1266920  61.2996610
  65.3201480   4.3145830  53.8458040  64.3930760   4.2483210  54.0746510
  65.4726300   5.2525960  53.7313280  69.3498770   5.8766130  54.3493290
  68.7311190   5.5385680  53.7019590  69.3323220   5.2325890  55.0572480
  60.9258120   4.8410570  56.6277770  60.5215120   4.1287820  56.1323670
  61.0121240   4.4963810  57.5165810  61.3939820   8.5278130  58.7916980
  61.0968110   7.9223600  58.1124760  62.3439640   8.5655440  58.6806340
  69.4825430  12.1010000  62.4540080  69.0055990  12.9082190  62.2612690
  68.7987220  11.4488330  62.6066290  60.4858250   8.2659820  65.4424780
  59.5886780   8.4899790  65.6898180  60.5111120   8.3894760  64.4936180
  67.5263470   5.1152940  51.3566040  67.9656750   4.2775370  51.2103860
  68.2391890   5.7482340  51.4430180  59.3129470   5.1373140  64.0182150
  59.1737240   6.0095940  64.3869550  58.4310830   4.7945950  63.8730090
  65.6358850  10.0549010  55.3247280  66.0754760  10.7973340  54.9102670
  65.5745740  10.2975580  56.2486240  61.1109820  11.0794840  66.2267300
  61.0825250  11.4837790  65.3595730  60.9474790  10.1505200  66.0638900
  57.6262750   3.7355550  54.1284420  57.5060350   4.4617640  53.5165690
  57.3163640   2.9658460  53.6512330  55.2648120   6.9070690  59.9353060
  55.3428540   7.0419460  58.9908780  55.8789800   6.1986580  60.1281180
  56.5095750   8.6070880  56.3459240  56.1023830   8.7485470  55.4912840
  57.4008760   8.3231040  56.1430450  66.3274630  12.7562790  63.2526290
  66.8419300  12.6670800  64.0548720  65.4843710  13.1022490  63.5454200
  68.3029030  13.0418130  52.6810290  68.1430170  12.7521070  53.5792120
  68.1375740  12.2658260  52.1455520  60.7817410  12.8216660  54.4581910
  60.6059890  11.9052200  54.2449710  59.9273150  13.1803950  54.6979710
  68.0055160  10.5505690  51.2408290  67.3120320  10.5482980  50.5810570
  68.7478020  10.1265010  50.8102460  67.5705090  12.1768400  55.3156780
  68.0262040  11.3957780  55.6295400  67.9097610  12.8875220  55.8597960
  55.3207640   7.9484860  62.4747520  55.4838680   7.4790220  61.6566890
  55.7860090   7.4408420  63.1396360  66.4750440   2.6669840  66.3438860
  66.8003850   1.8333590  66.0041090  67.2630770   3.1898360  66.4917190
  59.8840630   2.2024190  55.2389340  59.6581550   1.9861360  56.1435960
  59.1033160   2.6352650  54.8935310  67.1138390   2.2087560  53.8379990
  66.5147280   2.9323360  53.6543610  67.6618000   2.1464340  53.0556440
  62.3239840   3.1009770  65.9049610  62.2283440   2.1604500  65.7550010
  63.1671820   3.3224840  65.5097680  66.3058400   3.4356850  59.9634050
  65.5739520   3.9443660  60.3124150  65.9082740   2.6186830  59.6622830
  61.8177440   3.4224270  50.7576600  61.2494340   2.9742520  50.1312510
  62.5266440   3.7817050  50.2241750  56.8946620   7.3236290  64.6343330
  56.5101410   6.6829960  65.2326290  57.2058810   8.0272410  65.2038060
  63.0443760   4.1712830  60.1151950  63.4113890   3.6971400  60.8613290
  62.8548820   5.0454400  60.4560290  60.8343130   3.2121470  62.4336160
  60.5300200   4.0913450  62.6586520  61.7889590   3.2721260  62.4693600
  59.3624920   7.4182460  53.0303010  58.5887180   6.8780080  52.8701730
  60.0919550   6.8989070  52.6920770  65.5031700   6.4856880  64.7098400
  65.4369010   5.5652550  64.4555990  64.8736840   6.5832320  65.4243040
  59.4062320   7.0862840  56.6681820  59.9240990   6.2831100  56.6138710
  58.9546340   7.0241980  57.5098650  64.2931820   8.3529120  51.9409120
  64.6347520   9.0971350  51.4452440  63.4644530   8.6660240  52.3033950
  56.8906860   4.0524210  63.5807520  56.5321800   4.7178060  64.1680860
  56.5961420   3.2207760  63.9520140  60.0919980   4.5108450  66.4647070
  59.7920120   4.6565630  65.5674890  60.8631220   3.9513740  66.3720460
  65.4348430   9.3077450  64.4602200  65.4492970   8.3758410  64.2421110
  64.7273530   9.3937210  65.0991970  67.1759230   7.6744960  57.3054630
  67.5283050   7.0773090  56.6456000  66.2921560   7.3489190  57.4762880
  63.2622510   8.4342650  54.7125040  63.9493640   8.9811860  55.0932630
  62.4754930   8.9783380  54.7474650  55.4014910   4.0515470  50.2042120
  56.2709760   4.3340270  50.4878040  54.9105230   4.8651340  50.0890930
  62.5649720   5.4388680  54.3250400  63.0212500   6.2493930  54.5510590
  62.2137930   5.1211820  55.1568890  64.8682330  10.9495020  61.5542700
  65.5124550  11.1554400  62.2316120  65.2311770  10.1883420  61.1013550
  66.1414410   8.9527370  60.2720150  66.7836640   8.2520530  60.3852320
  66.6663760   9.7325810  60.0917040  69.9870130   9.2375990  49.9959290
  69.7607710   8.5206430  50.5883930  69.5966330   8.9888430  49.1581040
  67.9152030   9.7522270  63.4756210  68.2508270  10.3388960  64.1534130
  66.9952370   9.6214980  63.7054000  55.7686160  13.2642850  50.7703750
  56.1283800  13.8632190  50.1161020  55.6278500  13.8102740  51.5438780
  55.7528020  11.5297710  65.2446150  55.8619140  10.5892450  65.1041540
  55.1008580  11.7952460  64.5959880  63.7440610   9.8013600  66.6444270
  63.4237480   9.0822840  67.1889960  63.0698970  10.4768670  66.7180330
  61.7854780  10.6474050  51.5877420  61.7764880  11.3803740  50.9721930
  60.8653140  10.4005630  51.6804380  57.3861420   5.8688940  52.3324180
  56.7789370   6.6087840  52.3419480  57.8610770   5.9588300  51.5062380
  64.7714380  10.7102290  50.2502610  64.8726360  10.5066280  49.3204590
  63.8716120  10.4560570  50.4550390  63.9196200   2.6879350  62.2319040
  64.4181450   3.1625170  62.8970890  64.0619150   1.7642870  62.4389070
  63.4132490  13.2288610  54.9450280  63.6673990  13.1910000  54.0229650
  62.4644970  13.1021940  54.9378530  69.4185070   4.1480490  56.5208790
  68.4775210   4.1630720  56.6956480  69.7329140   3.3616450  56.9669090
  59.3966710   5.8300090  50.0812750  60.1629980   5.7181450  50.6438180
  59.4741400   5.1338060  49.4289520  58.0913470   3.2625160  50.7645640
  58.1717060   2.3152670  50.8763040  58.9833220   3.5932040  50.8706300
  58.8928180  13.4120550  57.8680180  59.6290660  12.8636010  58.1388750
  59.2769100  14.2776560  57.7286170  55.7773660   9.4794120  53.7421690
  54.8513440   9.7215260  53.7327100  56.2430090  10.3068380  53.6206440
  57.8986460  12.5966620  67.0565760  58.6999190  12.9178670  67.4701160
  57.3838280  12.2362200  67.7785670  62.0030490  12.5850860  49.6905750
  62.7959100  12.8739690  49.2387540  61.4834840  12.1543030  49.0118230
  66.7351090   8.7046490  67.0041170  66.1289250   8.7278090  66.2636920
  66.4305200   7.9729530  67.5408420  68.1651460  12.4326780  65.6150580
  69.1173210  12.3484800  65.5650820  68.0179680  13.0968490  66.2884370
  55.6184270   5.0840080  66.0001810  56.1223290   4.5047360  66.5718040
  54.8791690   5.3680310  66.5378180  62.5207890   7.8054270  49.5548100
  62.4158530   7.1906620  50.2809480  62.3532110   7.2820160  48.7711110
  62.6722210   6.4911070  65.5337330  61.9067880   7.0596070  65.4492000
  62.8538170   6.1987280  64.6405560  65.7610620   6.8674300  50.1590090
  65.2120720   7.3143600  50.8032830  66.3829880   6.3623550  50.6827760
  57.6507350   3.2269670  66.8951880  57.6912690   2.9283540  67.8037110
  58.5052850   3.6277280  66.7359400  61.4285740   5.8265220  52.0555390
  61.8502160   5.6605090  52.8986780  61.5536580   5.0165450  51.5610530
  63.9413380   4.8502830  49.3032490  64.4619040   4.1351850  48.9373640
  64.5881780   5.4888700  49.6033000  68.4891220   6.2731230  64.6267560
  68.9032240   6.4276310  65.4757980  67.5542220   6.3986450  64.7893340
  68.9613390   3.6127390  66.6306710  69.5434160   2.8579710  66.5427190
  69.1375160   4.1434830  65.8538190  63.2506450   6.2251710  62.5963490
  63.6694560   7.0684440  62.4239730  62.3315080   6.3623750  62.3670270
  65.5870350   3.9567890  63.9801330  65.7066560   3.3609030  64.7196170
  66.4464350   3.9937580  63.5602630  67.9258250   4.5105080  62.5563840
  67.3993470   5.0347700  61.9528980  68.2689590   5.1432470  63.1873570
  61.1013870  12.5304720  63.7121220  60.5634960  13.2550780  63.3929920
  61.3547830  12.0535060  62.9218560  63.9576080  13.7655930  63.9707870
  63.8834780  14.6691070  64.2780240  63.0554920  13.4467830  63.9429940
  64.5061410  12.9314440  51.5934230  65.4012200  13.2699410  51.6152990
  64.5379040  12.2093850  50.9658510  58.1457570   8.3041490  49.8221230
  58.5832440   8.8471160  50.4778810  58.6305300   7.4788440  49.8317570
  55.3603370  11.0930520  57.2741490  55.6906380  10.2251580  57.0420130
  55.7894370  11.2989040  58.1046450  59.9565290   9.4239530  54.9343460
  59.6560830   9.3004500  55.8347370  59.8502780   8.5648120  54.5259190
  55.8493580  11.9601110  60.0123120  55.4124570  12.1401910  60.8447270
  56.4171260  12.7175730  59.8704840  55.6818010   4.4721340  56.3712000
  55.0266850   4.2032980  55.7271700  56.5195960   4.3625820  55.9213980
  56.7193940   4.8573910  60.9115340  57.0866980   4.7701310  61.7911360
  56.1504760   4.0940460  60.8122200  56.2709940   1.7683000  64.8173760
  55.3765990   1.7349760  65.1567470  56.8107490   1.9669790  65.5825010
  58.1346020   9.3706600  66.0735490  58.0915650   8.9999510  66.9549950
  58.2657030  10.3084170  66.2137310  61.8352050  10.9266190  61.6745210
  61.5943410  11.1940750  60.7875730  62.7754690  11.0971920  61.7296070
  57.9734050  12.3168850  63.1933270  57.3794370  12.1853550  63.9323310
  57.9657890  11.4806990  62.7275370  57.6046280   9.6827230  62.1441310
  56.8780340   9.0632520  62.0767260  57.6655430  10.0767840  61.2739390
  61.2091380  11.8972230  58.9290720  61.7256400  11.2859590  58.4038980
  61.8588760  12.4001010  59.4201730  63.9486880  12.7880720  59.7559700
  64.2364690  12.5335020  58.8792710  64.4610100  12.2358080  60.3465270
  55.8876280  13.0001620  55.3538070  55.7198320  12.3672300  56.0519960
  55.0210790  13.2061020  55.0032260  57.4938980  11.6934850  52.7988210
  56.9686600  12.0742880  52.0950170  57.4183560  12.3185620  53.5197920
  64.0159240  13.7096820  67.1227900  64.9426550  13.4741090  67.1663860
  64.0009670  14.5368820  66.6413930  60.0931950  13.6417230  51.6737460
  60.8250770  13.3576510  51.1261350  60.3525620  13.4030510  52.5636840
  59.2546740   9.7581960  51.6783790  58.6255620  10.2267060  52.2269620
  59.3694570   8.9131180  52.1129980  66.7096460   3.8087620  37.8284990
  66.6290510   2.8942230  37.5576700  66.2960880   4.3054690  37.1224700
  64.8414500   5.5866640  39.7094260  64.0656600   5.1067080  39.9992830
  65.4927430   4.9072290  39.5350420  58.8580330   5.8986450  40.5870020
  58.0265210   5.6435160  40.9866530  59.4661310   5.9697220  41.3227940
  68.8621930   9.9926830  38.4893390  68.4003460   9.2214070  38.8180560
  69.6747480  10.0192900  38.9945840  58.8381590   9.9326540  40.7828040
  59.1409630   9.0424280  40.6038260  59.5825180  10.4896760  40.5550290
  55.2305290   3.4593990  40.2552110  55.8021400   2.6916190  40.2555750
  55.2306830   3.7582750  39.3458720  65.0885240  12.2784840  38.1097380
  64.4696680  12.7342340  37.5391820  65.9437020  12.4336300  37.7087080
  64.2823490   8.2623830  39.7164420  64.2131770   7.3213770  39.5553550
  65.0443350   8.3525240  40.2886990  65.9548590   7.1624080  35.5029290
  65.3365860   7.6273530  34.9392010  66.4671840   7.8551560  35.9198800
  60.8180350   6.6899950  42.1812890  60.4849730   7.3168870  42.8233960
  60.9947030   7.2161830  41.4014560  60.0299450   8.6580750  43.9962070
  60.6473450   9.3331830  43.7146520  59.1692570   9.0668730  43.9049570
  55.3231790   7.8480610  32.8768920  54.9459770   8.3367710  32.1453820
  55.5804860   8.5205890  33.5075450  68.4835780  11.9664290  40.6261890
  68.4962940  11.5626580  39.7584150  67.9311000  12.7411580  40.5223320
  69.7781200   8.6880510  35.7152060  69.6677530   7.7454840  35.8401480
  69.7749450   9.0496150  36.6014820  67.8821220   6.8694130  41.9544500
  68.2990010   6.6554240  41.1197960  68.6061040   7.1266920  42.5253120
  65.3201480   4.3145830  35.0714550  64.3930760   4.2483210  35.3003020
  65.4726300   5.2525960  34.9569790  69.3498770   5.8766130  35.5749800
  68.7311190   5.5385680  34.9276100  69.3323220   5.2325890  36.2828990
  60.9258120   4.8410570  37.8534280  60.5215120   4.1287820  37.3580180
  61.0121240   4.4963810  38.7422320  61.3939820   8.5278130  40.0173490
  61.0968110   7.9223600  39.3381270  62.3439640   8.5655440  39.9062850
  69.4825430  12.1010000  43.6796590  69.0055990  12.9082190  43.4869200
  68.7987220  11.4488330  43.8322800  60.4858250   8.2659820  46.6681290
  59.5886780   8.4899790  46.9154690  60.5111120   8.3894760  45.7192690
  67.5263470   5.1152940  32.5822550  67.9656750   4.2775370  32.4360370
  68.2391890   5.7482340  32.6686690  59.3129470   5.1373140  45.2438660
  59.1737240   6.0095940  45.6126060  58.4310830   4.7945950  45.0986600
  65.6358850  10.0549010  36.5503790  66.0754760  10.7973340  36.1359180
  65.5745740  10.2975580  37.4742750  61.1109820  11.0794840  47.4523810
  61.0825250  11.4837790  46.5852240  60.9474790  10.1505200  47.2895410
  57.6262750   3.7355550  35.3540930  57.5060350   4.4617640  34.7422200
  57.3163640   2.9658460  34.8768840  55.2648120   6.9070690  41.1609570
  55.3428540   7.0419460  40.2165290  55.8789800   6.1986580  41.3537690
  56.5095750   8.6070880  37.5715750  56.1023830   8.7485470  36.7169350
  57.4008760   8.3231040  37.3686960  66.3274630  12.7562790  44.4782800
  66.8419300  12.6670800  45.2805230  65.4843710  13.1022490  44.7710710
  68.3029030  13.0418130  33.9066800  68.1430170  12.7521070  34.8048630
  68.1375740  12.2658260  33.3712030  60.7817410  12.8216660  35.6838420
  60.6059890  11.9052200  35.4706220  59.9273150  13.1803950  35.9236220
  68.0055160  10.5505690  32.4664800  67.3120320  10.5482980  31.8067080
  68.7478020  10.1265010  32.0358970  67.5705090  12.1768400  36.5413290
  68.0262040  11.3957780  36.8551910  67.9097610  12.8875220  37.0854470
  55.3207640   7.9484860  43.7004030  55.4838680   7.4790220  42.8823400
  55.7860090   7.4408420  44.3652870  66.4750440   2.6669840  47.5695370
  66.8003850   1.8333590  47.2297600  67.2630770   3.1898360  47.7173700
  59.8840630   2.2024190  36.4645850  59.6581550   1.9861360  37.3692470
  59.1033160   2.6352650  36.1191820  67.1138390   2.2087560  35.0636500
  66.5147280   2.9323360  34.8800120  67.6618000   2.1464340  34.2812950
  62.3239840   3.1009770  47.1306120  62.2283440   2.1604500  46.9806520
  63.1671820   3.3224840  46.7354190  66.3058400   3.4356850  41.1890560
  65.5739520   3.9443660  41.5380660  65.9082740   2.6186830  40.8879340
  61.8177440   3.4224270  31.9833110  61.2494340   2.9742520  31.3569020
  62.5266440   3.7817050  31.4498260  56.8946620   7.3236290  45.8599840
  56.5101410   6.6829960  46.4582800  57.2058810   8.0272410  46.4294570
  63.0443760   4.1712830  41.3408460  63.4113890   3.6971400  42.0869800
  62.8548820   5.0454400  41.6816800  60.8343130   3.2121470  43.6592670
  60.5300200   4.0913450  43.8843030  61.7889590   3.2721260  43.6950110
  59.3624920   7.4182460  34.2559520  58.5887180   6.8780080  34.0958240
  60.0919550   6.8989070  33.9177280  65.5031700   6.4856880  45.9354910
  65.4369010   5.5652550  45.6812500  64.8736840   6.5832320  46.6499550
  59.4062320   7.0862840  37.8938330  59.9240990   6.2831100  37.8395220
  58.9546340   7.0241980  38.7355160  64.2931820   8.3529120  33.1665630
  64.6347520   9.0971350  32.6708950  63.4644530   8.6660240  33.5290460
  56.8906860   4.0524210  44.8064030  56.5321800   4.7178060  45.3937370
  56.5961420   3.2207760  45.1776650  60.0919980   4.5108450  47.6903580
  59.7920120   4.6565630  46.7931400  60.8631220   3.9513740  47.5976970
  65.4348430   9.3077450  45.6858710  65.4492970   8.3758410  45.4677620
  64.7273530   9.3937210  46.3248480  67.1759230   7.6744960  38.5311140
  67.5283050   7.0773090  37.8712510  66.2921560   7.3489190  38.7019390
  63.2622510   8.4342650  35.9381550  63.9493640   8.9811860  36.3189140
  62.4754930   8.9783380  35.9731160  55.4014910   4.0515470  31.4298630
  56.2709760   4.3340270  31.7134550  54.9105230   4.8651340  31.3147440
  62.5649720   5.4388680  35.5506910  63.0212500   6.2493930  35.7767100
  62.2137930   5.1211820  36.3825400  64.8682330  10.9495020  42.7799210
  65.5124550  11.1554400  43.4572630  65.2311770  10.1883420  42.3270060
  66.1414410   8.9527370  41.4976660  66.7836640   8.2520530  41.6108830
  66.6663760   9.7325810  41.3173550  69.9870130   9.2375990  31.2215800
  69.7607710   8.5206430  31.8140440  69.5966330   8.9888430  30.3837550
  67.9152030   9.7522270  44.7012720  68.2508270  10.3388960  45.3790640
  66.9952370   9.6214980  44.9310510  55.7686160  13.2642850  31.9960260
  56.1283800  13.8632190  31.3417530  55.6278500  13.8102740  32.7695290
  55.7528020  11.5297710  46.4702660  55.8619140  10.5892450  46.3298050
  55.1008580  11.7952460  45.8216390  63.7440610   9.8013600  47.8700780
  63.4237480   9.0822840  48.4146470  63.0698970  10.4768670  47.9436840
  61.7854780  10.6474050  32.8133930  61.7764880  11.3803740  32.1978440
  60.8653140  10.4005630  32.9060890  57.3861420   5.8688940  33.5580690
  56.7789370   6.6087840  33.5675990  57.8610770   5.9588300  32.7318890
  64.7714380  10.7102290  31.4759120  64.8726360  10.5066280  30.5461100
  63.8716120  10.4560570  31.6806900  63.9196200   2.6879350  43.4575550
  64.4181450   3.1625170  44.1227400  64.0619150   1.7642870  43.6645580
  63.4132490  13.2288610  36.1706790  63.6673990  13.1910000  35.2486160
  62.4644970  13.1021940  36.1635040  69.4185070   4.1480490  37.7465300
  68.4775210   4.1630720  37.9212990  69.7329140   3.3616450  38.1925600
  59.3966710   5.8300090  31.3069260  60.1629980   5.7181450  31.8694690
  59.4741400   5.1338060  30.6546030  58.0913470   3.2625160  31.9902150
  58.1717060   2.3152670  32.1019550  58.9833220   3.5932040  32.0962810
  58.8928180  13.4120550  39.0936690  59.6290660  12.8636010  39.3645260
  59.2769100  14.2776560  38.9542680  55.7773660   9.4794120  34.9678200
  54.8513440   9.7215260  34.9583610  56.2430090  10.3068380  34.8462950
  57.8986460  12.5966620  48.2822270  58.6999190  12.9178670  48.6957670
  57.3838280  12.2362200  49.0042180  62.0030490  12.5850860  30.9162260
  62.7959100  12.8739690  30.4644050  61.4834840  12.1543030  30.2374740
  66.7351090   8.7046490  48.2297680  66.1289250   8.7278090  47.4893430
  66.4305200   7.9729530  48.7664930  68.1651460  12.4326780  46.8407090
  69.1173210  12.3484800  46.7907330  68.0179680  13.0968490  47.5140880
  55.6184270   5.0840080  47.2258320  56.1223290   4.5047360  47.7974550
  54.8791690   5.3680310  47.7634690  62.5207890   7.8054270  30.7804610
  62.4158530   7.1906620  31.5065990  62.3532110   7.2820160  29.9967620
  62.6722210   6.4911070  46.7593840  61.9067880   7.0596070  46.6748510
  62.8538170   6.1987280  45.8662070  65.7610620   6.8674300  31.3846600
  65.2120720   7.3143600  32.0289340  66.3829880   6.3623550  31.9084270
  57.6507350   3.2269670  48.1208390  57.6912690   2.9283540  49.0293620
  58.5052850   3.6277280  47.9615910  61.4285740   5.8265220  33.2811900
  61.8502160   5.6605090  34.1243290  61.5536580   5.0165450  32.7867040
  63.9413380   4.8502830  30.5289000  64.4619040   4.1351850  30.1630150
  64.5881780   5.4888700  30.8289510  68.4891220   6.2731230  45.8524070
  68.9032240   6.4276310  46.7014490  67.5542220   6.3986450  46.0149850
  68.9613390   3.6127390  47.8563220  69.5434160   2.8579710  47.7683700
  69.1375160   4.1434830  47.0794700  63.2506450   6.2251710  43.8220000
  63.6694560   7.0684440  43.6496240  62.3315080   6.3623750  43.5926780
  65.5870350   3.9567890  45.2057840  65.7066560   3.3609030  45.9452680
  66.4464350   3.9937580  44.7859140  67.9258250   4.5105080  43.7820350
  67.3993470   5.0347700  43.1785490  68.2689590   5.1432470  44.4130080
  61.1013870  12.5304720  44.9377730  60.5634960  13.2550780  44.6186430
  61.3547830  12.0535060  44.1475070  63.9576080  13.7655930  45.1964380
  63.8834780  14.6691070  45.5036750  63.0554920  13.4467830  45.1686450
  64.5061410  12.9314440  32.8190740  65.4012200  13.2699410  32.8409500
  64.5379040  12.2093850  32.1915020  58.1457570   8.3041490  31.0477740
  58.5832440   8.8471160  31.7035320  58.6305300   7.4788440  31.0574080
  55.3603370  11.0930520  38.4998000  55.6906380  10.2251580  38.2676640
  55.7894370  11.2989040  39.3302960  59.9565290   9.4239530  36.1599970
  59.6560830   9.3004500  37.0603880  59.8502780   8.5648120  35.7515700
  55.8493580  11.9601110  41.2379630  55.4124570  12.1401910  42.0703780
  56.4171260  12.7175730  41.0961350  55.6818010   4.4721340  37.5968510
  55.0266850   4.2032980  36.9528210  56.5195960   4.3625820  37.1470490
  56.7193940   4.8573910  42.1371850  57.0866980   4.7701310  43.0167870
  56.1504760   4.0940460  42.0378710  56.2709940   1.7683000  46.0430270
  55.3765990   1.7349760  46.3823980  56.8107490   1.9669790  46.8081520
  58.1346020   9.3706600  47.2992000  58.0915650   8.9999510  48.1806460
  58.2657030  10.3084170  47.4393820  61.8352050  10.9266190  42.9001720
  61.5943410  11.1940750  42.0132240  62.7754690  11.0971920  42.9552580
  57.9734050  12.3168850  44.4189780  57.3794370  12.1853550  45.1579820
  57.9657890  11.4806990  43.9531880  57.6046280   9.6827230  43.3697820
  56.8780340   9.0632520  43.3023770  57.6655430  10.0767840  42.4995900
  61.2091380  11.8972230  40.1547230  61.7256400  11.2859590  39.6295490
  61.8588760  12.4001010  40.6458240  63.9486880  12.7880720  40.9816210
  64.2364690  12.5335020  40.1049220  64.4610100  12.2358080  41.5721780
  55.8876280  13.0001620  36.5794580  55.7198320  12.3672300  37.2776470
  55.0210790  13.2061020  36.2288770  57.4938980  11.6934850  34.0244720
  56.9686600  12.0742880  33.3206680  57.4183560  12.3185620  34.7454430
  64.0159240  13.7096820  48.3484410  64.9426550  13.4741090  48.3920370
  64.0009670  14.5368820  47.8670440  60.0931950  13.6417230  32.8993970
  60.8250770  13.3576510  32.3517860  60.3525620  13.4030510  33.7893350
  59.2546740   9.7581960  32.9040300  58.6255620  10.2267060  33.4526130
  59.3694570   8.9131180  33.3386490  66.7096460   3.8087620  19.0541500
  66.6290510   2.8942230  18.7833210  66.2960880   4.3054690  18.3481210
  64.8414500   5.5866640  20.9350770  64.0656600   5.1067080  21.2249340
  65.4927430   4.9072290  20.7606930  58.8580330   5.8986450  21.8126530
  58.0265210   5.6435160  22.2123040  59.4661310   5.9697220  22.5484450
  68.8621930   9.9926830  19.7149900  68.4003460   9.2214070  20.0437070
  69.6747480  10.0192900  20.2202350  58.8381590   9.9326540  22.0084550
  59.1409630   9.0424280  21.8294770  59.5825180  10.4896760  21.7806800
  55.2305290   3.4593990  21.4808620  55.8021400   2.6916190  21.4812260
  55.2306830   3.7582750  20.5715230  65.0885240  12.2784840  19.3353890
  64.4696680  12.7342340  18.7648330  65.9437020  12.4336300  18.9343590
  64.2823490   8.2623830  20.9420930  64.2131770   7.3213770  20.7810060
  65.0443350   8.3525240  21.5143500  65.9548590   7.1624080  16.7285800
  65.3365860   7.6273530  16.1648520  66.4671840   7.8551560  17.1455310
  60.8180350   6.6899950  23.4069400  60.4849730   7.3168870  24.0490470
  60.9947030   7.2161830  22.6271070  60.0299450   8.6580750  25.2218580
  60.6473450   9.3331830  24.9403030  59.1692570   9.0668730  25.1306080
  55.3231790   7.8480610  14.1025430  54.9459770   8.3367710  13.3710330
  55.5804860   8.5205890  14.7331960  68.4835780  11.9664290  21.8518400
  68.4962940  11.5626580  20.9840660  67.9311000  12.7411580  21.7479830
  69.7781200   8.6880510  16.9408570  69.6677530   7.7454840  17.0657990
  69.7749450   9.0496150  17.8271330  67.8821220   6.8694130  23.1801010
  68.2990010   6.6554240  22.3454470  68.6061040   7.1266920  23.7509630
  65.3201480   4.3145830  16.2971060  64.3930760   4.2483210  16.5259530
  65.4726300   5.2525960  16.1826300  69.3498770   5.8766130  16.8006310
  68.7311190   5.5385680  16.1532610  69.3323220   5.2325890  17.5085500
  60.9258120   4.8410570  19.0790790  60.5215120   4.1287820  18.5836690
  61.0121240   4.4963810  19.9678830  61.3939820   8.5278130  21.2430000
  61.0968110   7.9223600  20.5637780  62.3439640   8.5655440  21.1319360
  69.4825430  12.1010000  24.9053100  69.0055990  12.9082190  24.7125710
  68.7987220  11.4488330  25.0579310  60.4858250   8.2659820  27.8937800
  59.5886780   8.4899790  28.1411200  60.5111120   8.3894760  26.9449200
  67.5263470   5.1152940  13.8079060  67.9656750   4.2775370  13.6616880
  68.2391890   5.7482340  13.8943200  59.3129470   5.1373140  26.4695170
  59.1737240   6.0095940  26.8382570  58.4310830   4.7945950  26.3243110
  65.6358850  10.0549010  17.7760300  66.0754760  10.7973340  17.3615690
  65.5745740  10.2975580  18.6999260  61.1109820  11.0794840  28.6780320
  61.0825250  11.4837790  27.8108750  60.9474790  10.1505200  28.5151920
  57.6262750   3.7355550  16.5797440  57.5060350   4.4617640  15.9678710
  57.3163640   2.9658460  16.1025350  55.2648120   6.9070690  22.3866080
  55.3428540   7.0419460  21.4421800  55.8789800   6.1986580  22.5794200
  56.5095750   8.6070880  18.7972260  56.1023830   8.7485470  17.9425860
  57.4008760   8.3231040  18.5943470  66.3274630  12.7562790  25.7039310
  66.8419300  12.6670800  26.5061740  65.4843710  13.1022490  25.9967220
  68.3029030  13.0418130  15.1323310  68.1430170  12.7521070  16.0305140
  68.1375740  12.2658260  14.5968540  60.7817410  12.8216660  16.9094930
  60.6059890  11.9052200  16.6962730  59.9273150  13.1803950  17.1492730
  68.0055160  10.5505690  13.6921310  67.3120320  10.5482980  13.0323590
  68.7478020  10.1265010  13.2615480  67.5705090  12.1768400  17.7669800
  68.0262040  11.3957780  18.0808420  67.9097610  12.8875220  18.3110980
  55.3207640   7.9484860  24.9260540  55.4838680   7.4790220  24.1079910
  55.7860090   7.4408420  25.5909380  66.4750440   2.6669840  28.7951880
  66.8003850   1.8333590  28.4554110  67.2630770   3.1898360  28.9430210
  59.8840630   2.2024190  17.6902360  59.6581550   1.9861360  18.5948980
  59.1033160   2.6352650  17.3448330  67.1138390   2.2087560  16.2893010
  66.5147280   2.9323360  16.1056630  67.6618000   2.1464340  15.5069460
  62.3239840   3.1009770  28.3562630  62.2283440   2.1604500  28.2063030
  63.1671820   3.3224840  27.9610700  66.3058400   3.4356850  22.4147070
  65.5739520   3.9443660  22.7637170  65.9082740   2.6186830  22.1135850
  61.8177440   3.4224270  13.2089620  61.2494340   2.9742520  12.5825530
  62.5266440   3.7817050  12.6754770  56.8946620   7.3236290  27.0856350
  56.5101410   6.6829960  27.6839310  57.2058810   8.0272410  27.6551080
  63.0443760   4.1712830  22.5664970  63.4113890   3.6971400  23.3126310
  62.8548820   5.0454400  22.9073310  60.8343130   3.2121470  24.8849180
  60.5300200   4.0913450  25.1099540  61.7889590   3.2721260  24.9206620
  59.3624920   7.4182460  15.4816030  58.5887180   6.8780080  15.3214750
  60.0919550   6.8989070  15.1433790  65.5031700   6.4856880  27.1611420
  65.4369010   5.5652550  26.9069010  64.8736840   6.5832320  27.8756060
  59.4062320   7.0862840  19.1194840  59.9240990   6.2831100  19.0651730
  58.9546340   7.0241980  19.9611670  64.2931820   8.3529120  14.3922140
  64.6347520   9.0971350  13.8965460  63.4644530   8.6660240  14.7546970
  56.8906860   4.0524210  26.0320540  56.5321800   4.7178060  26.6193880
  56.5961420   3.2207760  26.4033160  60.0919980   4.5108450  28.9160090
  59.7920120   4.6565630  28.0187910  60.8631220   3.9513740  28.8233480
  65.4348430   9.3077450  26.9115220  65.4492970   8.3758410  26.6934130
  64.7273530   9.3937210  27.5504990  67.1759230   7.6744960  19.7567650
  67.5283050   7.0773090  19.0969020  66.2921560   7.3489190  19.9275900
  63.2622510   8.4342650  17.1638060  63.9493640   8.9811860  17.5445650
  62.4754930   8.9783380  17.1987670  55.4014910   4.0515470  12.6555140
  56.2709760   4.3340270  12.9391060  54.9105230   4.8651340  12.5403950
  62.5649720   5.4388680  16.7763420  63.0212500   6.2493930  17.0023610
  62.2137930   5.1211820  17.6081910  64.8682330  10.9495020  24.0055720
  65.5124550  11.1554400  24.6829140  65.2311770  10.1883420  23.5526570
  66.1414410   8.9527370  22.7233170  66.7836640   8.2520530  22.8365340
  66.6663760   9.7325810  22.5430060  69.9870130   9.2375990  12.4472310
  69.7607710   8.5206430  13.0396950  69.5966330   8.9888430  11.6094060
  67.9152030   9.7522270  25.9269230  68.2508270  10.3388960  26.6047150
  66.9952370   9.6214980  26.1567020  55.7686160  13.2642850  13.2216770
  56.1283800  13.8632190  12.5674040  55.6278500  13.8102740  13.9951800
  55.7528020  11.5297710  27.6959170  55.8619140  10.5892450  27.5554560
  55.1008580  11.7952460  27.0472900  63.7440610   9.8013600  29.0957290
  63.4237480   9.0822840  29.6402980  63.0698970  10.4768670  29.1693350
  61.7854780  10.6474050  14.0390440  61.7764880  11.3803740  13.4234950
  60.8653140  10.4005630  14.1317400  57.3861420   5.8688940  14.7837200
  56.7789370   6.6087840  14.7932500  57.8610770   5.9588300  13.9575400
  64.7714380  10.7102290  12.7015630  64.8726360  10.5066280  11.7717610
  63.8716120  10.4560570  12.9063410  63.9196200   2.6879350  24.6832060
  64.4181450   3.1625170  25.3483910  64.0619150   1.7642870  24.8902090
  63.4132490  13.2288610  17.3963300  63.6673990  13.1910000  16.4742670
  62.4644970  13.1021940  17.3891550  69.4185070   4.1480490  18.9721810
  68.4775210   4.1630720  19.1469500  69.7329140   3.3616450  19.4182110
  59.3966710   5.8300090  12.5325770  60.1629980   5.7181450  13.0951200
  59.4741400   5.1338060  11.8802540  58.0913470   3.2625160  13.2158660
  58.1717060   2.3152670  13.3276060  58.9833220   3.5932040  13.3219320
  58.8928180  13.4120550  20.3193200  59.6290660  12.8636010  20.5901770
  59.2769100  14.2776560  20.1799190  55.7773660   9.4794120  16.1934710
  54.8513440   9.7215260  16.1840120  56.2430090  10.3068380  16.0719460
  57.8986460  12.5966620  29.5078780  58.6999190  12.9178670  29.9214180
  57.3838280  12.2362200  30.2298690  62.0030490  12.5850860  12.1418770
  62.7959100  12.8739690  11.6900560  61.4834840  12.1543030  11.4631250
  66.7351090   8.7046490  29.4554190  66.1289250   8.7278090  28.7149940
  66.4305200   7.9729530  29.9921440  68.1651460  12.4326780  28.0663600
  69.1173210  12.3484800  28.0163840  68.0179680  13.0968490  28.7397390
  55.6184270   5.0840080  28.4514830  56.1223290   4.5047360  29.0231060
  54.8791690   5.3680310  28.9891200  62.5207890   7.8054270  12.0061120
  62.4158530   7.1906620  12.7322500  62.3532110   7.2820160  11.2224130
  62.6722210   6.4911070  27.9850350  61.9067880   7.0596070  27.9005020
  62.8538170   6.1987280  27.0918580  65.7610620   6.8674300  12.6103110
  65.2120720   7.3143600  13.2545850  66.3829880   6.3623550  13.1340780
  57.6507350   3.2269670  29.3464900  57.6912690   2.9283540  30.2550130
  58.5052850   3.6277280  29.1872420  61.4285740   5.8265220  14.5068410
  61.8502160   5.6605090  15.3499800  61.5536580   5.0165450  14.0123550
  63.9413380   4.8502830  11.7545510  64.4619040   4.1351850  11.3886660
  64.5881780   5.4888700  12.0546020  68.4891220   6.2731230  27.0780580
  68.9032240   6.4276310  27.9271000  67.5542220   6.3986450  27.2406360
  68.9613390   3.6127390  29.0819730  69.5434160   2.8579710  28.9940210
  69.1375160   4.1434830  28.3051210  63.2506450   6.2251710  25.0476510
  63.6694560   7.0684440  24.8752750  62.3315080   6.3623750  24.8183290
  65.5870350   3.9567890  26.4314350  65.7066560   3.3609030  27.1709190
  66.4464350   3.9937580  26.0115650  67.9258250   4.5105080  25.0076860
  67.3993470   5.0347700  24.4042000  68.2689590   5.1432470  25.6386590
  61.1013870  12.5304720  26.1634240  60.5634960  13.2550780  25.8442940
  61.3547830  12.0535060  25.3731580  63.9576080  13.7655930  26.4220890
  63.8834780  14.6691070  26.7293260  63.0554920  13.4467830  26.3942960
  64.5061410  12.9314440  14.0447250  65.4012200  13.2699410  14.0666010
  64.5379040  12.2093850  13.4171530  58.1457570   8.3041490  12.2734250
  58.5832440   8.8471160  12.9291830  58.6305300   7.4788440  12.2830590
  55.3603370  11.0930520  19.7254510  55.6906380  10.2251580  19.4933150
  55.7894370  11.2989040  20.5559470  59.9565290   9.4239530  17.3856480
  59.6560830   9.3004500  18.2860390  59.8502780   8.5648120  16.9772210
  55.8493580  11.9601110  22.4636140  55.4124570  12.1401910  23.2960290
  56.4171260  12.7175730  22.3217860  55.6818010   4.4721340  18.8225020
  55.0266850   4.2032980  18.1784720  56.5195960   4.3625820  18.3727000
  56.7193940   4.8573910  23.3628360  57.0866980   4.7701310  24.2424380
  56.1504760   4.0940460  23.2635220  56.2709940   1.7683000  27.2686780
  55.3765990   1.7349760  27.6080490  56.8107490   1.9669790  28.0338030
  58.1346020   9.3706600  28.5248510  58.0915650   8.9999510  29.4062970
  58.2657030  10.3084170  28.6650330  61.8352050  10.9266190  24.1258230
  61.5943410  11.1940750  23.2388750  62.7754690  11.0971920  24.1809090
  57.9734050  12.3168850  25.6446290  57.3794370  12.1853550  26.3836330
  57.9657890  11.4806990  25.1788390  57.6046280   9.6827230  24.5954330
  56.8780340   9.0632520  24.5280280  57.6655430  10.0767840  23.7252410
  61.2091380  11.8972230  21.3803740  61.7256400  11.2859590  20.8552000
  61.8588760  12.4001010  21.8714750  63.9486880  12.7880720  22.2072720
  64.2364690  12.5335020  21.3305730  64.4610100  12.2358080  22.7978290
  55.8876280  13.0001620  17.8051090  55.7198320  12.3672300  18.5032980
  55.0210790  13.2061020  17.4545280  57.4938980  11.6934850  15.2501230
  56.9686600  12.0742880  14.5463190  57.4183560  12.3185620  15.9710940
  64.0159240  13.7096820  29.5740920  64.9426550  13.4741090  29.6176880
  64.0009670  14.5368820  29.0926950  60.0931950  13.6417230  14.1250480
  60.8250770  13.3576510  13.5774370  60.3525620  13.4030510  15.0149860
  59.2546740   9.7581960  14.1296810  58.6255620  10.2267060  14.6782640
  59.3694570   8.9131180  14.5643000  64.8414500   5.5866640   2.1607280
  64.0656600   5.1067080   2.4505850  65.4927430   4.9072290   1.9863440
  58.8580330   5.8986450   3.0383040  58.0265210   5.6435160   3.4379550
  59.4661310   5.9697220   3.7740960  58.8381590   9.9326540   3.2341060
  59.1409630   9.0424280   3.0551280  59.5825180  10.4896760   3.0063310
  55.2305290   3.4593990   2.7065130  55.8021400   2.6916190   2.7068770
  55.2306830   3.7582750   1.7971740  64.2823490   8.2623830   2.1677440
  64.2131770   7.3213770   2.0066570  65.0443350   8.3525240   2.7400010
  60.8180350   6.6899950   4.6325910  60.4849730   7.3168870   5.2746980
  60.9947030   7.2161830   3.8527580  60.0299450   8.6580750   6.4475090
  60.6473450   9.3331830   6.1659540  59.1692570   9.0668730   6.3562590
  68.4835780  11.9664290   3.0774910  68.4962940  11.5626580   2.2097170
  67.9311000  12.7411580   2.9736340  67.8821220   6.8694130   4.4057520
  68.2990010   6.6554240   3.5710980  68.6061040   7.1266920   4.9766140
  61.3939820   8.5278130   2.4686510  61.0968110   7.9223600   1.7894290
  62.3439640   8.5655440   2.3575870  69.4825430  12.1010000   6.1309610
  69.0055990  12.9082190   5.9382220  68.7987220  11.4488330   6.2835820
  60.4858250   8.2659820   9.1194310  59.5886780   8.4899790   9.3667710
  60.5111120   8.3894760   8.1705710  59.3129470   5.1373140   7.6951680
  59.1737240   6.0095940   8.0639080  58.4310830   4.7945950   7.5499620
  61.1109820  11.0794840   9.9036830  61.0825250  11.4837790   9.0365260
  60.9474790  10.1505200   9.7408430  55.2648120   6.9070690   3.6122590
  55.3428540   7.0419460   2.6678310  55.8789800   6.1986580   3.8050710
  66.3274630  12.7562790   6.9295820  66.8419300  12.6670800   7.7318250
  65.4843710  13.1022490   7.2223730  55.3207640   7.9484860   6.1517050
  55.4838680   7.4790220   5.3336420  55.7860090   7.4408420   6.8165890
  66.4750440   2.6669840  10.0208390  66.8003850   1.8333590   9.6810620
  67.2630770   3.1898360  10.1686720  62.3239840   3.1009770   9.5819140
  62.2283440   2.1604500   9.4319540  63.1671820   3.3224840   9.1867210
  66.3058400   3.4356850   3.6403580  65.5739520   3.9443660   3.9893680
  65.9082740   2.6186830   3.3392360  56.8946620   7.3236290   8.3112860
  56.5101410   6.6829960   8.9095820  57.2058810   8.0272410   8.8807590
  63.0443760   4.1712830   3.7921480  63.4113890   3.6971400   4.5382820
  62.8548820   5.0454400   4.1329820  60.8343130   3.2121470   6.1105690
  60.5300200   4.0913450   6.3356050  61.7889590   3.2721260   6.1463130
  65.5031700   6.4856880   8.3867930  65.4369010   5.5652550   8.1325520
  64.8736840   6.5832320   9.1012570  56.8906860   4.0524210   7.2577050
  56.5321800   4.7178060   7.8450390  56.5961420   3.2207760   7.6289670
  60.0919980   4.5108450  10.1416600  59.7920120   4.6565630   9.2444420
  60.8631220   3.9513740  10.0489990  65.4348430   9.3077450   8.1371730
  65.4492970   8.3758410   7.9190640  64.7273530   9.3937210   8.7761500
  64.8682330  10.9495020   5.2312230  65.5124550  11.1554400   5.9085650
  65.2311770  10.1883420   4.7783080  66.1414410   8.9527370   3.9489680
  66.7836640   8.2520530   4.0621850  66.6663760   9.7325810   3.7686570
  67.9152030   9.7522270   7.1525740  68.2508270  10.3388960   7.8303660
  66.9952370   9.6214980   7.3823530  55.7528020  11.5297710   8.9215680
  55.8619140  10.5892450   8.7811070  55.1008580  11.7952460   8.2729410
  63.7440610   9.8013600  10.3213800  63.4237480   9.0822840  10.8659490
  63.0698970  10.4768670  10.3949860  63.9196200   2.6879350   5.9088570
  64.4181450   3.1625170   6.5740420  64.0619150   1.7642870   6.1158600
  57.8986460  12.5966620  10.7335290  58.6999190  12.9178670  11.1470690
  57.3838280  12.2362200  11.4555200  66.7351090   8.7046490  10.6810700
  66.1289250   8.7278090   9.9406450  66.4305200   7.9729530  11.2177950
  68.1651460  12.4326780   9.2920110  69.1173210  12.3484800   9.2420350
  68.0179680  13.0968490   9.9653900  55.6184270   5.0840080   9.6771340
  56.1223290   4.5047360  10.2487570  54.8791690   5.3680310  10.2147710
  62.6722210   6.4911070   9.2106860  61.9067880   7.0596070   9.1261530
  62.8538170   6.1987280   8.3175090  57.6507350   3.2269670  10.5721410
  57.6912690   2.9283540  11.4806640  58.5052850   3.6277280  10.4128930
  68.4891220   6.2731230   8.3037090  68.9032240   6.4276310   9.1527510
  67.5542220   6.3986450   8.4662870  68.9613390   3.6127390  10.3076240
  69.5434160   2.8579710  10.2196720  69.1375160   4.1434830   9.5307720
  63.2506450   6.2251710   6.2733020  63.6694560   7.0684440   6.1009260
  62.3315080   6.3623750   6.0439800  65.5870350   3.9567890   7.6570860
  65.7066560   3.3609030   8.3965700  66.4464350   3.9937580   7.2372160
  67.9258250   4.5105080   6.2333370  67.3993470   5.0347700   5.6298510
  68.2689590   5.1432470   6.8643100  61.1013870  12.5304720   7.3890750
  60.5634960  13.2550780   7.0699450  61.3547830  12.0535060   6.5988090
  63.9576080  13.7655930   7.6477400  63.8834780  14.6691070   7.9549770
  63.0554920  13.4467830   7.6199470  55.8493580  11.9601110   3.6892650
  55.4124570  12.1401910   4.5216800  56.4171260  12.7175730   3.5474370
  56.7193940   4.8573910   4.5884870  57.0866980   4.7701310   5.4680890
  56.1504760   4.0940460   4.4891730  56.2709940   1.7683000   8.4943290
  55.3765990   1.7349760   8.8337000  56.8107490   1.9669790   9.2594540
  58.1346020   9.3706600   9.7505020  58.0915650   8.9999510  10.6319480
  58.2657030  10.3084170   9.8906840  61.8352050  10.9266190   5.3514740
  61.5943410  11.1940750   4.4645260  62.7754690  11.0971920   5.4065600
  57.9734050  12.3168850   6.8702800  57.3794370  12.1853550   7.6092840
  57.9657890  11.4806990   6.4044900  57.6046280   9.6827230   5.8210840
  56.8780340   9.0632520   5.7536790  57.6655430  10.0767840   4.9508920
  61.2091380  11.8972230   2.6060250  61.7256400  11.2859590   2.0808510
  61.8588760  12.4001010   3.0971260  63.9486880  12.7880720   3.4329230
  64.2364690  12.5335020   2.5562240  64.4610100  12.2358080   4.0234800
  64.0159240  13.7096820  10.7997430  64.9426550  13.4741090  10.8433390
  64.0009670  14.5368820  10.3183460  47.9352970  60.1318090  75.3771970
  47.8547020  59.2172700  75.1063680  47.5217390  60.6285160  74.6711680
  38.4928790  57.1818810  71.9199390  37.6045490  57.5234780  71.8179270
  38.7769980  56.9819130  71.0280220  40.6690180  55.7650310  72.9537770
  40.7756930  56.6654040  73.2606530  39.7582540  55.7168280  72.6632420
  50.3209290  54.8875120  74.4248670  51.1418910  54.3971690  74.4674150
  50.3543370  55.4772780  75.1780510  44.1577230  52.5727470  75.8841410
  44.4652210  52.0174360  75.1676910  43.2277930  52.7071930  75.7014400
  46.5457990  60.6376300  72.6201530  45.6187270  60.5713680  72.8490000
  46.6982810  61.5756430  72.5056770  46.5327070  56.9093300  69.6168690
  45.5930740  57.0707260  69.7021150  46.8510330  57.6278980  69.0704680
  50.5755280  62.1996600  73.1236780  49.9567700  61.8616150  72.4763080
  50.5579730  61.5556360  73.8315970  42.1514630  61.1641040  75.4021260
  41.7471630  60.4518290  74.9067160  42.2377750  60.8194280  76.2909300
  48.7519980  61.4383410  70.1309530  49.1913260  60.6005840  69.9847350
  49.4648400  62.0712810  70.2173670  52.3337120  52.6926220  68.4450570
  52.0209780  52.7853050  69.3449640  53.0949590  53.2707250  68.3948000
  38.8519260  60.0586020  72.9027910  38.7316860  60.7848110  72.2909180
  38.5420150  59.2888930  72.4255820  41.3182920  53.4021090  76.2851580
  40.8751070  54.1830630  75.9536100  41.8767910  53.7250980  76.9922520
  44.4341740  53.0231790  71.1657410  43.8095920  53.0191660  71.8910720
  44.3471860  52.1562750  70.7693380  41.1097140  58.5254660  74.0132830
  40.8838060  58.3091830  74.9179450  40.3289670  58.9583120  73.6678800
  48.3394900  58.5318030  72.6123480  47.7403790  59.2553830  72.4287100
  48.8874510  58.4694810  71.8299930  46.9459770  57.1681570  74.6426760
  47.3389340  57.4853770  73.8295450  47.3076620  56.2893450  74.7571280
  36.1694170  57.7002490  68.0759680  36.0868840  58.6433250  68.2174670
  35.8177230  57.5577400  67.1972030  39.8194680  56.3168010  76.1024240
  39.4794730  56.7943240  76.8591290  39.0572000  55.8633130  75.7425340
  44.0312450  57.4353600  70.1336790  44.1525270  57.3940080  71.0822610
  43.6460960  58.2977750  69.9783520  43.0433950  59.7454740  69.5320090
  42.4750850  59.2972990  68.9056000  43.7522950  60.1047520  68.9985240
  37.1340760  55.2386990  75.0188910  36.8487680  54.8742660  75.8567530
  37.0719620  54.5067450  74.4052050  40.5881430  63.7412930  71.8046500
  39.8143690  63.2010550  71.6445220  41.3176060  63.2219540  71.4664260
  46.8079350  54.1316250  71.7402280  45.9943960  53.6329420  71.6647590
  46.6141300  54.9714500  71.3238630  49.5227740  58.5035900  70.0364440
  50.4107360  58.8153130  69.8615780  49.4932830  57.6308150  69.6445020
  40.6318830  63.4093310  75.4425310  41.1497500  62.6061570  75.3882200
  40.1802850  63.3472450  76.2842140  51.7942010  59.8147740  69.5044300
  51.7105730  60.2461960  68.6540740  52.5136200  60.2746090  69.9371120
  36.6271420  60.3745940  68.9785610  37.4966270  60.6570740  69.2621530
  36.1361740  61.1881810  68.8634420  43.7906230  61.7619150  73.0993890
  44.2469010  62.5724400  73.3254080  43.4394440  61.4442290  73.9312380
  39.6918010  52.1056800  73.5716410  39.5632640  52.0974700  74.5201330
  38.8680030  52.4439890  73.2207420  38.6117930  62.1919410  71.1067670
  38.0045880  62.9318310  71.1162970  39.0867280  62.2818770  70.2805870
  51.5512750  55.3127170  71.5912120  50.9225910  55.4172840  70.8770350
  51.0564670  55.5323950  72.3806000  43.5196780  57.5913120  73.0070000
  42.8112930  58.0599460  73.4483610  43.8041260  56.9335130  73.6415190
  47.5512210  54.3163780  74.4465790  47.4279990  54.3349910  73.4975300
  48.4996770  54.3642720  74.5664190  41.7231800  55.8998200  70.3820710
  42.5722330  56.3368350  70.3160900  41.3563070  56.2118460  71.2092770
  50.6441580  60.4710960  75.2952280  49.7031720  60.4861190  75.4699970
  50.9585650  59.6846920  75.7412580  40.6223220  62.1530560  68.8556240
  41.3886490  62.0411920  69.4181670  40.6997910  61.4568530  68.2033010
  39.3169980  59.5855630  69.5389130  39.3973570  58.6383140  69.6506530
  40.2089730  59.9162510  69.6449790  46.9867130  63.1904770  68.9333580
  46.4377230  63.6374070  69.5776320  47.6086390  62.6854020  69.4571250
  42.6542250  62.1495690  70.8298880  43.0758670  61.9835560  71.6730270
  42.7793090  61.3395920  70.3354020  45.1669890  61.1733300  68.0775980
  45.6875550  60.4582320  67.7117130  45.8138290  61.8119170  68.3776490
  41.5501150  58.2228920  67.7757040  41.3490210  57.3596280  68.1370380
  41.3793200  58.1362280  66.8378640  49.0289460  53.0337150  70.3043920
  49.3091750  52.1905050  70.6603340  48.2555190  53.2660260  70.8182670
  40.3483950  55.3229540  67.7634920  40.6509850  55.3296970  66.8554070
  41.0878540  54.9727400  68.2602580  43.5668880  54.2664160  68.7491120
  43.2190880  53.5888150  68.1693570  43.7681650  53.8053670  69.5634510
  53.4070180  62.2713880  70.9147830  54.1689090  62.8410530  71.0207520
  53.4224550  61.7041080  71.6856140  36.9074520  60.7951810  75.1455490
  36.2523360  60.5263450  74.5015190  37.7452470  60.6856290  74.6957470
  53.4589350  62.5648250  68.0720350  53.7338190  63.4727130  67.9439570
  53.2700090  62.5010780  69.0082340  49.8564960  55.5893100  69.3673980
  50.2749840  55.4024080  68.5270640  49.5501020  54.7372150  69.6776910
  53.3554690  60.5017240  73.0649780  52.9798290  59.7345170  72.6331070
  52.6257810  60.8839940  73.5524710  36.1212600  58.0050740  71.0880820
  35.2176680  58.2680940  70.9132480  36.6053220  58.2761910  70.3080780
  52.6305650  58.7274730  76.3657020  53.1543130  58.2337380  75.7347190
  53.2165070  58.8625090  77.1104590  38.6639810  57.0616280  68.9975200
  39.3731510  56.6399500  68.5122480  37.9479750  57.1291510  68.3658550
  38.3113970  53.1155610  68.0377850  39.0342100  53.6564550  68.3559070
  38.5838490  52.8419030  67.1619390  52.1205620  57.9848080  72.3049430
  52.6164740  57.7518950  73.0898310  51.9221690  57.1459920  71.8887070
  53.5492780  56.6209030  74.8387110  53.4392060  56.4665070  75.7769380
  54.3100370  56.0929970  74.5962520  54.4383050  54.4516950  68.0793250
  55.3632360  54.3198130  67.8711540  54.4158840  54.5309770  69.0329700
  54.5121540  55.2227610  70.7049960  53.7173040  55.1572730  71.2342870
  54.7164820  56.1578250  70.6935310  52.8080040  53.1839730  75.1657610
  52.7468440  52.2400950  75.0188630  53.5872070  53.2919820  75.7111070
  37.7360810  53.1548870  71.6313420  38.4940170  53.2677750  71.0577450
  37.2737980  53.9918070  71.5856850  44.2774620  55.2688140  74.6215730
  43.4649130  54.8945030  74.2811610  44.7816260  54.5133220  74.9236920
  48.7799600  51.9330590  75.8598800  49.3828970  52.5050800  76.3347320
  48.0392590  52.4970030  75.6372700  51.9234200  52.3352150  71.1339080
  52.1184830  53.2335600  71.4006510  51.1364070  52.1039230  71.6272030
  40.1085960  53.6812920  70.1715390  40.6378720  52.8942720  70.0423340
  40.7414280  54.3604110  70.4050920  42.3023800  53.4188060  73.2260780
  41.6726540  52.7175370  73.3930910  41.7628940  54.1792190  73.0093940
  47.9352970  60.1318090  56.6028480  47.8547020  59.2172700  56.3320190
  47.5217390  60.6285160  55.8968190  46.0671010  61.9097110  58.4837750
  45.2913110  61.4297550  58.7736320  46.7183940  61.2302760  58.3093910
  40.0836840  62.2216920  59.3613510  39.2521720  61.9665630  59.7610020
  40.6917820  62.2927690  60.0971430  38.4928790  57.1818810  53.1455900
  37.6045490  57.5234780  53.0435780  38.7769980  56.9819130  52.2536730
  36.4561800  59.7824460  59.0295600  37.0277910  59.0146660  59.0299240
  36.4563340  60.0813220  58.1202210  37.6986670  55.1908820  60.8164530
  37.5189510  54.2934570  61.0967290  37.2966750  55.7380690  61.4911480
  46.5385170  57.3924680  58.7176840  46.9149990  56.5196560  58.6050510
  46.4404680  57.7283380  57.8267280  40.6690180  55.7650310  54.1794280
  40.7756930  56.6654040  54.4863040  39.7582540  55.7168280  53.8888930
  50.3209290  54.8875120  55.6505180  51.1418910  54.3971690  55.6930660
  50.3543370  55.4772780  56.4037020  38.3173340  57.6869320  59.4246870
  38.9983450  57.9507690  60.0434270  38.0021390  56.8470190  59.7584880
  42.5097910  58.7336680  58.5119460  43.0176130  59.2317650  59.1524480
  43.0411150  57.9571880  58.3358820  54.6108840  56.9041870  62.2148810
  53.9061010  57.2923580  61.6963920  54.8766760  57.5992160  62.8169740
  40.7934010  53.3735240  62.7782880  40.7952450  53.8907630  61.9728780
  39.9638320  52.8965420  62.7552810  42.0436860  63.0130420  60.9556380
  41.7106240  63.6399340  61.5977450  42.2203540  63.5392300  60.1758050
  50.5570770  56.8275500  58.4232720  49.8526340  57.1160390  59.0035830
  50.9182930  57.6375610  58.0632280  40.4749340  55.0845200  60.7853330
  40.8166150  55.9287250  60.4907200  39.5365150  55.2328940  60.9018670
  53.6257690  56.2730290  58.8141930  52.6782600  56.3069270  58.9457360
  53.9507680  57.0869240  59.1991290  44.1577230  52.5727470  57.1097920
  44.4652210  52.0174360  56.3933420  43.2277930  52.7071930  56.9270910
  49.1077730  63.1924600  60.7287990  49.5246520  62.9784710  59.8941450
  49.8317550  63.4497390  61.2996610  46.5457990  60.6376300  53.8458040
  45.6187270  60.5713680  54.0746510  46.6982810  61.5756430  53.7313280
  46.5327070  56.9093300  50.8425200  45.5930740  57.0707260  50.9277660
  46.8510330  57.6278980  50.2961190  53.0539830  61.5911820  60.8204230
  52.2258460  61.6604910  60.3454360  53.6490310  62.1766130  60.3520060
  50.5755280  62.1996600  54.3493290  49.9567700  61.8616150  53.7019590
  50.5579730  61.5556360  55.0572480  50.0181840  58.3781140  61.7659100
  49.6053020  59.2034850  62.0199090  49.2857790  57.7926180  61.5735460
  42.1514630  61.1641040  56.6277770  41.7471630  60.4518290  56.1323670
  42.2377750  60.8194280  57.5165810  40.8643250  57.9384250  60.4076810
  41.4157840  58.0479590  59.6330060  41.3786760  58.3121850  61.1232040
  48.7519980  61.4383410  51.3566040  49.1913260  60.6005840  51.2103860
  49.4648400  62.0712810  51.4430180  40.5385980  61.4603610  64.0182150
  40.3993750  62.3326410  64.3869550  39.6567340  61.1176420  63.8730090
  52.3337120  52.6926220  49.6707080  52.0209780  52.7853050  50.5706150
  53.0949590  53.2707250  49.6204510  38.8519260  60.0586020  54.1284420
  38.7316860  60.7848110  53.5165690  38.5420150  59.2888930  53.6512330
  36.4904630  63.2301160  59.9353060  36.5685050  63.3649930  58.9908780
  37.1046310  62.5217050  60.1281180  53.5438410  57.4297720  65.6481220
  52.9282680  57.9377390  65.1196680  53.2234830  56.5296050  65.5907160
  41.3182920  53.4021090  57.5108090  40.8751070  54.1830630  57.1792610
  41.8767910  53.7250980  58.2179030  45.6052730  56.2689610  63.1143410
  45.1432100  56.4772630  63.9263350  45.2030840  55.4548960  62.8114080
  50.6057240  57.4898560  64.2440070  49.7550830  57.1904310  64.5649140
  50.4459030  57.7340570  63.3323890  47.7006950  58.9900310  66.3438860
  48.0260360  58.1564060  66.0041090  48.4887280  59.5128830  66.4917190
  44.4341740  53.0231790  52.3913920  43.8095920  53.0191660  53.1167230
  44.3471860  52.1562750  51.9949890  43.3558820  53.9468420  59.3697690
  43.6531150  54.8531250  59.2889710  43.9044380  53.4587200  58.7557260
  41.1097140  58.5254660  55.2389340  40.8838060  58.3091830  56.1435960
  40.3289670  58.9583120  54.8935310  48.3394900  58.5318030  53.8379990
  47.7403790  59.2553830  53.6543610  48.8874510  58.4694810  53.0556440
  43.5496350  59.4240240  65.9049610  43.4539950  58.4834970  65.7550010
  44.3928330  59.6455310  65.5097680  46.9459770  57.1681570  55.8683270
  47.3389340  57.4853770  55.0551960  47.3076620  56.2893450  55.9827790
  38.6806890  55.8353910  64.0583390  38.2870280  56.6829120  64.2656170
  37.9925290  55.1980280  64.2492030  45.2551940  55.9188880  67.1280130
  44.5650260  55.7261080  67.7626220  45.9984240  56.2023520  67.6604430
  35.9823940  53.7582370  58.0913470  35.6936990  54.3285230  58.8038450
  36.7269700  53.2786820  58.4544700  36.1694170  57.7002490  49.3016190
  36.0868840  58.6433250  49.4431180  35.8177230  57.5577400  48.4228540
  47.5314910  59.7587320  59.9634050  46.7996030  60.2674130  60.3124150
  47.1339250  58.9417300  59.6622830  43.9692300  56.4341520  58.3686540
  43.9728360  55.9931470  57.5191080  44.8643420  56.7558850  58.4758360
  39.8194680  56.3168010  57.3280750  39.4794730  56.7943240  58.0847800
  39.0572000  55.8633130  56.9681850  44.0312450  57.4353600  51.3593300
  44.1525270  57.3940080  52.3079120  43.6460960  58.2977750  51.2040030
  47.9940820  55.2121000  59.3756990  48.0113560  55.6629650  60.2198840
  47.7456400  54.3126640  59.5890430  43.0433950  59.7454740  50.7576600
  42.4750850  59.2972990  50.1312510  43.7522950  60.1047520  50.2241750
  51.4211570  52.6253180  65.2143370  51.7457340  51.8942840  65.7401350
  51.4568080  52.3066820  64.3124360  44.2700270  60.4943300  60.1151950
  44.6370400  60.0201870  60.8613290  44.0805330  61.3684870  60.4560290
  37.1340760  55.2386990  56.2445420  36.8487680  54.8742660  57.0824040
  37.0719620  54.5067450  55.6308560  42.0599640  59.5351940  62.4336160
  41.7556710  60.4143920  62.6586520  43.0146100  59.5951730  62.4693600
  40.5881430  63.7412930  53.0303010  39.8143690  63.2010550  52.8701730
  41.3176060  63.2219540  52.6920770  51.3469410  62.7378290  58.8229400
  52.0668530  63.2333580  58.4325510  51.1451230  62.0596180  58.1783270
  46.8079350  54.1316250  52.9658790  45.9943960  53.6329420  52.8904100
  46.6141300  54.9714500  52.5495140  46.7288210  62.8087350  64.7098400
  46.6625520  61.8883020  64.4555990  46.0993350  62.9062790  65.4243040
  49.5227740  58.5035900  51.2620950  50.4107360  58.8153130  51.0872290
  49.4932830  57.6308150  50.8701530  40.6318830  63.4093310  56.6681820
  41.1497500  62.6061570  56.6138710  40.1802850  63.3472450  57.5098650
  38.1163370  60.3754680  63.5807520  37.7578310  61.0408530  64.1680860
  37.8217930  59.5438230  63.9520140  41.3176490  60.8338920  66.4647070
  41.0176630  60.9796100  65.5674890  42.0887730  60.2744210  66.3720460
  51.7942010  59.8147740  50.7300810  51.7105730  60.2461960  49.8797250
  52.5136200  60.2746090  51.1627630  52.8716150  62.2715260  63.8070780
  52.1464340  62.8644040  63.6100170  53.3991610  62.2638800  63.0084150
  36.6271420  60.3745940  50.2042120  37.4966270  60.6570740  50.4878040
  36.1361740  61.1881810  50.0890930  43.7906230  61.7619150  54.3250400
  44.2469010  62.5724400  54.5510590  43.4394440  61.4442290  55.1568890
  39.6918010  52.1056800  54.7972920  39.5632640  52.0974700  55.7457840
  38.8680030  52.4439890  54.4463930  36.6911940  53.8647920  64.2579620
  35.9770460  54.0644840  64.8632230  37.1106980  53.0887490  64.6294420
  38.6117930  62.1919410  52.3324180  38.0045880  62.9318310  52.3419480
  39.0867280  62.2818770  51.5062380  48.1850720  56.3570230  62.0081070
  48.5531540  55.5365440  62.3360640  47.3248920  56.4172120  62.4236720
  51.5512750  55.3127170  52.8168630  50.9225910  55.4172840  52.1026860
  51.0564670  55.5323950  53.6062510  43.5196780  57.5913120  54.2326510
  42.8112930  58.0599460  54.6740120  43.8041260  56.9335130  54.8671700
  45.1452710  59.0109820  62.2319040  45.6437960  59.4855640  62.8970890
  45.2875660  58.0873340  62.4389070  47.5512210  54.3163780  55.6722300
  47.4279990  54.3349910  54.7231810  48.4996770  54.3642720  55.7920700
  41.7231800  55.8998200  51.6077220  42.5722330  56.3368350  51.5417410
  41.3563070  56.2118460  52.4349280  52.3519570  55.2277780  63.0747430
  51.8493170  55.9683180  63.4141240  53.1676230  55.6161780  62.7584220
  50.6441580  60.4710960  56.5208790  49.7031720  60.4861190  56.6956480
  50.9585650  59.6846920  56.9669090  40.6223220  62.1530560  50.0812750
  41.3886490  62.0411920  50.6438180  40.6997910  61.4568530  49.4289520
  39.3169980  59.5855630  50.7645640  39.3973570  58.6383140  50.8763040
  40.2089730  59.9162510  50.8706300  36.8440780  61.4070550  66.0001810
  37.3479800  60.8277830  66.5718040  36.1048200  61.6910780  66.5378180
  43.8978720  62.8141540  65.5337330  43.1324390  63.3826540  65.4492000
  44.0794680  62.5217750  64.6405560  46.9867130  63.1904770  50.1590090
  46.4377230  63.6374070  50.8032830  47.6086390  62.6854020  50.6827760
  38.8763860  59.5500140  66.8951880  38.9169200  59.2514010  67.8037110
  39.7309360  59.9507750  66.7359400  42.6542250  62.1495690  52.0555390
  43.0758670  61.9835560  52.8986780  42.7793090  61.3395920  51.5610530
  40.8169670  58.1292240  64.8626370  40.2866130  57.6383190  64.2349710
  41.4857740  58.5576440  64.3284300  45.1669890  61.1733300  49.3032490
  45.6875550  60.4582320  48.9373640  45.8138290  61.8119170  49.6033000
  49.7147730  62.5961700  64.6267560  50.1288750  62.7506780  65.4757980
  48.7798730  62.7216920  64.7893340  50.1869900  59.9357860  66.6306710
  50.7690670  59.1810180  66.5427190  50.3631670  60.4665300  65.8538190
  41.3041970  55.0954610  64.9423660  41.2098840  54.4775360  64.2174530
  40.7239360  55.8220900  64.7153570  44.0703410  53.6527850  61.9751050
  43.6220710  53.6752110  61.1296600  43.4368610  53.2546870  62.5721350
  44.4762960  62.5482180  62.5963490  44.8951070  63.3914910  62.4239730
  43.5571590  62.6854220  62.3670270  46.8126860  60.2798360  63.9801330
  46.9323070  59.6839500  64.7196170  47.6720860  60.3168050  63.5602630
  49.1514760  60.8335550  62.5563840  48.6249980  61.3578170  61.9528980
  49.4946100  61.4662940  63.1873570  41.5501150  58.2228920  49.0013550
  41.3490210  57.3596280  49.3626890  41.3793200  58.1362280  48.0635150
  43.5795630  56.8219710  65.2377150  44.1695320  56.5135560  65.9254970
  42.7615870  56.3499460  65.3937050  48.3989060  56.4385520  65.4710170
  47.7104580  55.7767060  65.4060160  49.1195080  55.9923790  65.9158630
  49.0289460  53.0337150  51.5300430  49.3091750  52.1905050  51.8859850
  48.2555190  53.2660260  52.0439180  40.3483950  55.3229540  48.9891430
  40.6509850  55.3296970  48.0810580  41.0878540  54.9727400  49.4859090
  43.5668880  54.2664160  49.9747630  43.2190880  53.5888150  49.3950080
  43.7681650  53.8053670  50.7891020  53.4070180  62.2713880  52.1404340
  54.1689090  62.8410530  52.2464030  53.4224550  61.7041080  52.9112650
  36.9074520  60.7951810  56.3712000  36.2523360  60.5263450  55.7271700
  37.7452470  60.6856290  55.9213980  53.4589350  62.5648250  49.2976860
  53.7338190  63.4727130  49.1696080  53.2700090  62.5010780  50.2338850
  49.8564960  55.5893100  50.5930490  50.2749840  55.4024080  49.7527150
  49.5501020  54.7372150  50.9033420  53.3554690  60.5017240  54.2906290
  52.9798290  59.7345170  53.8587580  52.6257810  60.8839940  54.7781220
  37.9450450  61.1804380  60.9115340  38.3123490  61.0931780  61.7911360
  37.3761270  60.4170930  60.8122200  52.7454310  59.6488760  63.9245810
  52.5140400  59.4201510  63.0243760  53.0058860  60.5688310  63.8790700
  37.4966450  58.0913470  64.8173760  36.6022500  58.0580230  65.1567470
  38.0364000  58.2900260  65.5825010  51.1842380  54.8745190  66.7025510
  52.0612560  54.8828590  67.0859510  51.1963220  54.1376030  66.0917860
  36.1212600  58.0050740  52.3137330  35.2176680  58.2680940  52.1388990
  36.6053220  58.2761910  51.5337290  52.6305650  58.7274730  57.5913530
  53.1543130  58.2337380  56.9603700  53.2165070  58.8625090  58.3361100
  52.8095370  58.8114600  61.1133080  51.8598080  58.7778140  61.2278070
  52.9908380  59.7214710  60.8782850  38.6639810  57.0616280  50.2231710
  39.3731510  56.6399500  49.7378990  37.9479750  57.1291510  49.5915060
  38.3113970  53.1155610  49.2634360  39.0342100  53.6564550  49.5815580
  38.5838490  52.8419030  48.3875900  52.1205620  57.9848080  53.5305940
  52.6164740  57.7518950  54.3154820  51.9221690  57.1459920  53.1143580
  38.0006160  52.3661800  59.1656980  38.6482350  51.8159180  58.7252140
  38.4208000  52.6204950  59.9872790  53.5492780  56.6209030  56.0643620
  53.4392060  56.4665070  57.0025890  54.3100370  56.0929970  55.8219030
  51.8958500  52.5603160  62.5226620  52.5330720  53.1737300  62.8885810
  52.0433390  52.5963820  61.5775850  54.4383050  54.4516950  49.3049760
  55.3632360  54.3198130  49.0968050  54.4158840  54.5309770  50.2586210
  54.5121540  55.2227610  51.9306470  53.7173040  55.1572730  52.4599380
  54.7164820  56.1578250  51.9191820  37.7538160  52.5217470  61.9082300
  37.4052980  52.9781290  62.6740480  37.4225860  51.6274600  61.9904730
  45.2662980  53.7129350  65.4301720  45.2051870  54.3051180  66.1797130
  46.2063360  53.6055310  65.2851980  47.9037540  53.3699410  65.0694010
  48.5177950  53.6878700  64.4075090  48.4487100  52.8848000  65.6889870
  38.4258800  52.0493670  65.1833070  38.9741790  51.8681720  64.4199180
  38.4914110  51.2587780  65.7189380  48.6445580  51.9331550  61.3963300
  47.7705420  52.2666660  61.1936230  48.5356330  51.4604730  62.2215170
  49.5517560  54.1402420  62.7805020  49.2230920  53.3254180  62.4006750
  50.4999860  54.0972230  62.6570710  46.3920400  52.8501390  60.3356210
  45.6092190  53.3246890  60.6152970  46.0983330  51.9456220  60.2269390
  50.9441470  53.5524490  58.3805300  51.3849560  53.4969590  57.5326900
  50.6749060  54.4682500  58.4515480  52.8080040  53.1839730  56.3914120
  52.7468440  52.2400950  56.2445140  53.5872070  53.2919820  56.9367580
  37.7360810  53.1548870  52.8569930  38.4940170  53.2677750  52.2833960
  37.2737980  53.9918070  52.8113360  44.2774620  55.2688140  55.8472240
  43.4649130  54.8945030  55.5068120  44.7816260  54.5133220  56.1493430
  48.7799600  51.9330590  57.0855310  49.3828970  52.5050800  57.5603830
  48.0392590  52.4970030  56.8629210  51.9234200  52.3352150  52.3595590
  52.1184830  53.2335600  52.6263020  51.1364070  52.1039230  52.8528540
  40.1085960  53.6812920  51.3971900  40.6378720  52.8942720  51.2679850
  40.7414280  54.3604110  51.6307430  42.3023800  53.4188060  54.4517290
  41.6726540  52.7175370  54.6187420  41.7628940  54.1792190  54.2350450
  42.4279360  52.6972040  66.8869780  42.1463630  53.2005640  66.1230600
  42.8099060  51.8993790  66.5211910  49.0294820  52.1125620  67.4650250
  48.9160270  52.4320230  68.3601770  49.8464560  52.5138130  67.1687530
  47.9352970  60.1318090  37.8284990  47.8547020  59.2172700  37.5576700
  47.5217390  60.6285160  37.1224700  46.0671010  61.9097110  39.7094260
  45.2913110  61.4297550  39.9992830  46.7183940  61.2302760  39.5350420
  40.0836840  62.2216920  40.5870020  39.2521720  61.9665630  40.9866530
  40.6917820  62.2927690  41.3227940  38.4928790  57.1818810  34.3712410
  37.6045490  57.5234780  34.2692290  38.7769980  56.9819130  33.4793240
  36.4561800  59.7824460  40.2552110  37.0277910  59.0146660  40.2555750
  36.4563340  60.0813220  39.3458720  37.6986670  55.1908820  42.0421040
  37.5189510  54.2934570  42.3223800  37.2966750  55.7380690  42.7167990
  46.5385170  57.3924680  39.9433350  46.9149990  56.5196560  39.8307020
  46.4404680  57.7283380  39.0523790  40.6690180  55.7650310  35.4050790
  40.7756930  56.6654040  35.7119550  39.7582540  55.7168280  35.1145440
  50.3209290  54.8875120  36.8761690  51.1418910  54.3971690  36.9187170
  50.3543370  55.4772780  37.6293530  38.3173340  57.6869320  40.6503380
  38.9983450  57.9507690  41.2690780  38.0021390  56.8470190  40.9841390
  42.5097910  58.7336680  39.7375970  43.0176130  59.2317650  40.3780990
  43.0411150  57.9571880  39.5615330  54.6108840  56.9041870  43.4405320
  53.9061010  57.2923580  42.9220430  54.8766760  57.5992160  44.0426250
  40.7934010  53.3735240  44.0039390  40.7952450  53.8907630  43.1985290
  39.9638320  52.8965420  43.9809320  42.0436860  63.0130420  42.1812890
  41.7106240  63.6399340  42.8233960  42.2203540  63.5392300  41.4014560
  50.5570770  56.8275500  39.6489230  49.8526340  57.1160390  40.2292340
  50.9182930  57.6375610  39.2888790  40.4749340  55.0845200  42.0109840
  40.8166150  55.9287250  41.7163710  39.5365150  55.2328940  42.1275180
  53.6257690  56.2730290  40.0398440  52.6782600  56.3069270  40.1713870
  53.9507680  57.0869240  40.4247800  44.1577230  52.5727470  38.3354430
  44.4652210  52.0174360  37.6189930  43.2277930  52.7071930  38.1527420
  49.1077730  63.1924600  41.9544500  49.5246520  62.9784710  41.1197960
  49.8317550  63.4497390  42.5253120  46.5457990  60.6376300  35.0714550
  45.6187270  60.5713680  35.3003020  46.6982810  61.5756430  34.9569790
  46.5327070  56.9093300  32.0681710  45.5930740  57.0707260  32.1534170
  46.8510330  57.6278980  31.5217700  53.0539830  61.5911820  42.0460740
  52.2258460  61.6604910  41.5710870  53.6490310  62.1766130  41.5776570
  50.5755280  62.1996600  35.5749800  49.9567700  61.8616150  34.9276100
  50.5579730  61.5556360  36.2828990  50.0181840  58.3781140  42.9915610
  49.6053020  59.2034850  43.2455600  49.2857790  57.7926180  42.7991970
  42.1514630  61.1641040  37.8534280  41.7471630  60.4518290  37.3580180
  42.2377750  60.8194280  38.7422320  40.8643250  57.9384250  41.6333320
  41.4157840  58.0479590  40.8586570  41.3786760  58.3121850  42.3488550
  48.7519980  61.4383410  32.5822550  49.1913260  60.6005840  32.4360370
  49.4648400  62.0712810  32.6686690  40.5385980  61.4603610  45.2438660
  40.3993750  62.3326410  45.6126060  39.6567340  61.1176420  45.0986600
  52.3337120  52.6926220  30.8963590  52.0209780  52.7853050  31.7962660
  53.0949590  53.2707250  30.8461020  38.8519260  60.0586020  35.3540930
  38.7316860  60.7848110  34.7422200  38.5420150  59.2888930  34.8768840
  36.4904630  63.2301160  41.1609570  36.5685050  63.3649930  40.2165290
  37.1046310  62.5217050  41.3537690  53.5438410  57.4297720  46.8737730
  52.9282680  57.9377390  46.3453190  53.2234830  56.5296050  46.8163670
  41.3182920  53.4021090  38.7364600  40.8751070  54.1830630  38.4049120
  41.8767910  53.7250980  39.4435540  45.6052730  56.2689610  44.3399920
  45.1432100  56.4772630  45.1519860  45.2030840  55.4548960  44.0370590
  50.6057240  57.4898560  45.4696580  49.7550830  57.1904310  45.7905650
  50.4459030  57.7340570  44.5580400  47.7006950  58.9900310  47.5695370
  48.0260360  58.1564060  47.2297600  48.4887280  59.5128830  47.7173700
  44.4341740  53.0231790  33.6170430  43.8095920  53.0191660  34.3423740
  44.3471860  52.1562750  33.2206400  43.3558820  53.9468420  40.5954200
  43.6531150  54.8531250  40.5146220  43.9044380  53.4587200  39.9813770
  41.1097140  58.5254660  36.4645850  40.8838060  58.3091830  37.3692470
  40.3289670  58.9583120  36.1191820  48.3394900  58.5318030  35.0636500
  47.7403790  59.2553830  34.8800120  48.8874510  58.4694810  34.2812950
  43.5496350  59.4240240  47.1306120  43.4539950  58.4834970  46.9806520
  44.3928330  59.6455310  46.7354190  46.9459770  57.1681570  37.0939780
  47.3389340  57.4853770  36.2808470  47.3076620  56.2893450  37.2084300
  38.6806890  55.8353910  45.2839900  38.2870280  56.6829120  45.4912680
  37.9925290  55.1980280  45.4748540  45.2551940  55.9188880  48.3536640
  44.5650260  55.7261080  48.9882730  45.9984240  56.2023520  48.8860940
  35.9823940  53.7582370  39.3169980  35.6936990  54.3285230  40.0294960
  36.7269700  53.2786820  39.6801210  36.1694170  57.7002490  30.5272700
  36.0868840  58.6433250  30.6687690  35.8177230  57.5577400  29.6485050
  47.5314910  59.7587320  41.1890560  46.7996030  60.2674130  41.5380660
  47.1339250  58.9417300  40.8879340  43.9692300  56.4341520  39.5943050
  43.9728360  55.9931470  38.7447590  44.8643420  56.7558850  39.7014870
  39.8194680  56.3168010  38.5537260  39.4794730  56.7943240  39.3104310
  39.0572000  55.8633130  38.1938360  44.0312450  57.4353600  32.5849810
  44.1525270  57.3940080  33.5335630  43.6460960  58.2977750  32.4296540
  47.9940820  55.2121000  40.6013500  48.0113560  55.6629650  41.4455350
  47.7456400  54.3126640  40.8146940  43.0433950  59.7454740  31.9833110
  42.4750850  59.2972990  31.3569020  43.7522950  60.1047520  31.4498260
  51.4211570  52.6253180  46.4399880  51.7457340  51.8942840  46.9657860
  51.4568080  52.3066820  45.5380870  44.2700270  60.4943300  41.3408460
  44.6370400  60.0201870  42.0869800  44.0805330  61.3684870  41.6816800
  37.1340760  55.2386990  37.4701930  36.8487680  54.8742660  38.3080550
  37.0719620  54.5067450  36.8565070  42.0599640  59.5351940  43.6592670
  41.7556710  60.4143920  43.8843030  43.0146100  59.5951730  43.6950110
  40.5881430  63.7412930  34.2559520  39.8143690  63.2010550  34.0958240
  41.3176060  63.2219540  33.9177280  51.3469410  62.7378290  40.0485910
  52.0668530  63.2333580  39.6582020  51.1451230  62.0596180  39.4039780
  46.8079350  54.1316250  34.1915300  45.9943960  53.6329420  34.1160610
  46.6141300  54.9714500  33.7751650  46.7288210  62.8087350  45.9354910
  46.6625520  61.8883020  45.6812500  46.0993350  62.9062790  46.6499550
  49.5227740  58.5035900  32.4877460  50.4107360  58.8153130  32.3128800
  49.4932830  57.6308150  32.0958040  40.6318830  63.4093310  37.8938330
  41.1497500  62.6061570  37.8395220  40.1802850  63.3472450  38.7355160
  38.1163370  60.3754680  44.8064030  37.7578310  61.0408530  45.3937370
  37.8217930  59.5438230  45.1776650  41.3176490  60.8338920  47.6903580
  41.0176630  60.9796100  46.7931400  42.0887730  60.2744210  47.5976970
  51.7942010  59.8147740  31.9557320  51.7105730  60.2461960  31.1053760
  52.5136200  60.2746090  32.3884140  52.8716150  62.2715260  45.0327290
  52.1464340  62.8644040  44.8356680  53.3991610  62.2638800  44.2340660
  36.6271420  60.3745940  31.4298630  37.4966270  60.6570740  31.7134550
  36.1361740  61.1881810  31.3147440  43.7906230  61.7619150  35.5506910
  44.2469010  62.5724400  35.7767100  43.4394440  61.4442290  36.3825400
  39.6918010  52.1056800  36.0229430  39.5632640  52.0974700  36.9714350
  38.8680030  52.4439890  35.6720440  36.6911940  53.8647920  45.4836130
  35.9770460  54.0644840  46.0888740  37.1106980  53.0887490  45.8550930
  38.6117930  62.1919410  33.5580690  38.0045880  62.9318310  33.5675990
  39.0867280  62.2818770  32.7318890  48.1850720  56.3570230  43.2337580
  48.5531540  55.5365440  43.5617150  47.3248920  56.4172120  43.6493230
  51.5512750  55.3127170  34.0425140  50.9225910  55.4172840  33.3283370
  51.0564670  55.5323950  34.8319020  43.5196780  57.5913120  35.4583020
  42.8112930  58.0599460  35.8996630  43.8041260  56.9335130  36.0928210
  45.1452710  59.0109820  43.4575550  45.6437960  59.4855640  44.1227400
  45.2875660  58.0873340  43.6645580  47.5512210  54.3163780  36.8978810
  47.4279990  54.3349910  35.9488320  48.4996770  54.3642720  37.0177210
  41.7231800  55.8998200  32.8333730  42.5722330  56.3368350  32.7673920
  41.3563070  56.2118460  33.6605790  52.3519570  55.2277780  44.3003940
  51.8493170  55.9683180  44.6397750  53.1676230  55.6161780  43.9840730
  50.6441580  60.4710960  37.7465300  49.7031720  60.4861190  37.9212990
  50.9585650  59.6846920  38.1925600  40.6223220  62.1530560  31.3069260
  41.3886490  62.0411920  31.8694690  40.6997910  61.4568530  30.6546030
  39.3169980  59.5855630  31.9902150  39.3973570  58.6383140  32.1019550
  40.2089730  59.9162510  32.0962810  36.8440780  61.4070550  47.2258320
  37.3479800  60.8277830  47.7974550  36.1048200  61.6910780  47.7634690
  43.8978720  62.8141540  46.7593840  43.1324390  63.3826540  46.6748510
  44.0794680  62.5217750  45.8662070  46.9867130  63.1904770  31.3846600
  46.4377230  63.6374070  32.0289340  47.6086390  62.6854020  31.9084270
  38.8763860  59.5500140  48.1208390  38.9169200  59.2514010  49.0293620
  39.7309360  59.9507750  47.9615910  42.6542250  62.1495690  33.2811900
  43.0758670  61.9835560  34.1243290  42.7793090  61.3395920  32.7867040
  40.8169670  58.1292240  46.0882880  40.2866130  57.6383190  45.4606220
  41.4857740  58.5576440  45.5540810  45.1669890  61.1733300  30.5289000
  45.6875550  60.4582320  30.1630150  45.8138290  61.8119170  30.8289510
  49.7147730  62.5961700  45.8524070  50.1288750  62.7506780  46.7014490
  48.7798730  62.7216920  46.0149850  50.1869900  59.9357860  47.8563220
  50.7690670  59.1810180  47.7683700  50.3631670  60.4665300  47.0794700
  41.3041970  55.0954610  46.1680170  41.2098840  54.4775360  45.4431040
  40.7239360  55.8220900  45.9410080  44.0703410  53.6527850  43.2007560
  43.6220710  53.6752110  42.3553110  43.4368610  53.2546870  43.7977860
  44.4762960  62.5482180  43.8220000  44.8951070  63.3914910  43.6496240
  43.5571590  62.6854220  43.5926780  46.8126860  60.2798360  45.2057840
  46.9323070  59.6839500  45.9452680  47.6720860  60.3168050  44.7859140
  49.1514760  60.8335550  43.7820350  48.6249980  61.3578170  43.1785490
  49.4946100  61.4662940  44.4130080  41.5501150  58.2228920  30.2270060
  41.3490210  57.3596280  30.5883400  41.3793200  58.1362280  29.2891660
  43.5795630  56.8219710  46.4633660  44.1695320  56.5135560  47.1511480
  42.7615870  56.3499460  46.6193560  48.3989060  56.4385520  46.6966680
  47.7104580  55.7767060  46.6316670  49.1195080  55.9923790  47.1415140
  49.0289460  53.0337150  32.7556940  49.3091750  52.1905050  33.1116360
  48.2555190  53.2660260  33.2695690  40.3483950  55.3229540  30.2147940
  40.6509850  55.3296970  29.3067090  41.0878540  54.9727400  30.7115600
  43.5668880  54.2664160  31.2004140  43.2190880  53.5888150  30.6206590
  43.7681650  53.8053670  32.0147530  53.4070180  62.2713880  33.3660850
  54.1689090  62.8410530  33.4720540  53.4224550  61.7041080  34.1369160
  36.9074520  60.7951810  37.5968510  36.2523360  60.5263450  36.9528210
  37.7452470  60.6856290  37.1470490  53.4589350  62.5648250  30.5233370
  53.7338190  63.4727130  30.3952590  53.2700090  62.5010780  31.4595360
  49.8564960  55.5893100  31.8187000  50.2749840  55.4024080  30.9783660
  49.5501020  54.7372150  32.1289930  53.3554690  60.5017240  35.5162800
  52.9798290  59.7345170  35.0844090  52.6257810  60.8839940  36.0037730
  37.9450450  61.1804380  42.1371850  38.3123490  61.0931780  43.0167870
  37.3761270  60.4170930  42.0378710  52.7454310  59.6488760  45.1502320
  52.5140400  59.4201510  44.2500270  53.0058860  60.5688310  45.1047210
  37.4966450  58.0913470  46.0430270  36.6022500  58.0580230  46.3823980
  38.0364000  58.2900260  46.8081520  51.1842380  54.8745190  47.9282020
  52.0612560  54.8828590  48.3116020  51.1963220  54.1376030  47.3174370
  36.1212600  58.0050740  33.5393840  35.2176680  58.2680940  33.3645500
  36.6053220  58.2761910  32.7593800  52.6305650  58.7274730  38.8170040
  53.1543130  58.2337380  38.1860210  53.2165070  58.8625090  39.5617610
  52.8095370  58.8114600  42.3389590  51.8598080  58.7778140  42.4534580
  52.9908380  59.7214710  42.1039360  38.6639810  57.0616280  31.4488220
  39.3731510  56.6399500  30.9635500  37.9479750  57.1291510  30.8171570
  38.3113970  53.1155610  30.4890870  39.0342100  53.6564550  30.8072090
  38.5838490  52.8419030  29.6132410  52.1205620  57.9848080  34.7562450
  52.6164740  57.7518950  35.5411330  51.9221690  57.1459920  34.3400090
  53.5492780  56.6209030  37.2900130  53.4392060  56.4665070  38.2282400
  54.3100370  56.0929970  37.0475540  51.8958500  52.5603160  43.7483130
  52.5330720  53.1737300  44.1142320  52.0433390  52.5963820  42.8032360
  54.4383050  54.4516950  30.5306270  55.3632360  54.3198130  30.3224560
  54.4158840  54.5309770  31.4842720  54.5121540  55.2227610  33.1562980
  53.7173040  55.1572730  33.6855890  54.7164820  56.1578250  33.1448330
  37.7538160  52.5217470  43.1338810  37.4052980  52.9781290  43.8996990
  37.4225860  51.6274600  43.2161240  45.2662980  53.7129350  46.6558230
  45.2051870  54.3051180  47.4053640  46.2063360  53.6055310  46.5108490
  47.9037540  53.3699410  46.2950520  48.5177950  53.6878700  45.6331600
  48.4487100  52.8848000  46.9146380  38.4258800  52.0493670  46.4089580
  38.9741790  51.8681720  45.6455690  38.4914110  51.2587780  46.9445890
  48.6445580  51.9331550  42.6219810  47.7705420  52.2666660  42.4192740
  48.5356330  51.4604730  43.4471680  49.5517560  54.1402420  44.0061530
  49.2230920  53.3254180  43.6263260  50.4999860  54.0972230  43.8827220
  46.3920400  52.8501390  41.5612720  45.6092190  53.3246890  41.8409480
  46.0983330  51.9456220  41.4525900  50.9441470  53.5524490  39.6061810
  51.3849560  53.4969590  38.7583410  50.6749060  54.4682500  39.6771990
  52.8080040  53.1839730  37.6170630  52.7468440  52.2400950  37.4701650
  53.5872070  53.2919820  38.1624090  37.7360810  53.1548870  34.0826440
  38.4940170  53.2677750  33.5090470  37.2737980  53.9918070  34.0369870
  44.2774620  55.2688140  37.0728750  43.4649130  54.8945030  36.7324630
  44.7816260  54.5133220  37.3749940  48.7799600  51.9330590  38.3111820
  49.3828970  52.5050800  38.7860340  48.0392590  52.4970030  38.0885720
  51.9234200  52.3352150  33.5852100  52.1184830  53.2335600  33.8519530
  51.1364070  52.1039230  34.0785050  40.1085960  53.6812920  32.6228410
  40.6378720  52.8942720  32.4936360  40.7414280  54.3604110  32.8563940
  42.3023800  53.4188060  35.6773800  41.6726540  52.7175370  35.8443930
  41.7628940  54.1792190  35.4606960  42.4279360  52.6972040  48.1126290
  42.1463630  53.2005640  47.3487110  42.8099060  51.8993790  47.7468420
  49.0294820  52.1125620  48.6906760  48.9160270  52.4320230  49.5858280
  49.8464560  52.5138130  48.3944040  47.9352970  60.1318090  19.0541500
  47.8547020  59.2172700  18.7833210  47.5217390  60.6285160  18.3481210
  46.0671010  61.9097110  20.9350770  45.2913110  61.4297550  21.2249340
  46.7183940  61.2302760  20.7606930  40.0836840  62.2216920  21.8126530
  39.2521720  61.9665630  22.2123040  40.6917820  62.2927690  22.5484450
  38.4928790  57.1818810  15.5968920  37.6045490  57.5234780  15.4948800
  38.7769980  56.9819130  14.7049750  36.4561800  59.7824460  21.4808620
  37.0277910  59.0146660  21.4812260  36.4563340  60.0813220  20.5715230
  37.6986670  55.1908820  23.2677550  37.5189510  54.2934570  23.5480310
  37.2966750  55.7380690  23.9424500  46.5385170  57.3924680  21.1689860
  46.9149990  56.5196560  21.0563530  46.4404680  57.7283380  20.2780300
  40.6690180  55.7650310  16.6307300  40.7756930  56.6654040  16.9376060
  39.7582540  55.7168280  16.3401950  50.3209290  54.8875120  18.1018200
  51.1418910  54.3971690  18.1443680  50.3543370  55.4772780  18.8550040
  38.3173340  57.6869320  21.8759890  38.9983450  57.9507690  22.4947290
  38.0021390  56.8470190  22.2097900  42.5097910  58.7336680  20.9632480
  43.0176130  59.2317650  21.6037500  43.0411150  57.9571880  20.7871840
  54.6108840  56.9041870  24.6661830  53.9061010  57.2923580  24.1476940
  54.8766760  57.5992160  25.2682760  40.7934010  53.3735240  25.2295900
  40.7952450  53.8907630  24.4241800  39.9638320  52.8965420  25.2065830
  42.0436860  63.0130420  23.4069400  41.7106240  63.6399340  24.0490470
  42.2203540  63.5392300  22.6271070  50.5570770  56.8275500  20.8745740
  49.8526340  57.1160390  21.4548850  50.9182930  57.6375610  20.5145300
  40.4749340  55.0845200  23.2366350  40.8166150  55.9287250  22.9420220
  39.5365150  55.2328940  23.3531690  53.6257690  56.2730290  21.2654950
  52.6782600  56.3069270  21.3970380  53.9507680  57.0869240  21.6504310
  44.1577230  52.5727470  19.5610940  44.4652210  52.0174360  18.8446440
  43.2277930  52.7071930  19.3783930  49.1077730  63.1924600  23.1801010
  49.5246520  62.9784710  22.3454470  49.8317550  63.4497390  23.7509630
  46.5457990  60.6376300  16.2971060  45.6187270  60.5713680  16.5259530
  46.6982810  61.5756430  16.1826300  46.5327070  56.9093300  13.2938220
  45.5930740  57.0707260  13.3790680  46.8510330  57.6278980  12.7474210
  53.0539830  61.5911820  23.2717250  52.2258460  61.6604910  22.7967380
  53.6490310  62.1766130  22.8033080  50.5755280  62.1996600  16.8006310
  49.9567700  61.8616150  16.1532610  50.5579730  61.5556360  17.5085500
  50.0181840  58.3781140  24.2172120  49.6053020  59.2034850  24.4712110
  49.2857790  57.7926180  24.0248480  42.1514630  61.1641040  19.0790790
  41.7471630  60.4518290  18.5836690  42.2377750  60.8194280  19.9678830
  40.8643250  57.9384250  22.8589830  41.4157840  58.0479590  22.0843080
  41.3786760  58.3121850  23.5745060  48.7519980  61.4383410  13.8079060
  49.1913260  60.6005840  13.6616880  49.4648400  62.0712810  13.8943200
  40.5385980  61.4603610  26.4695170  40.3993750  62.3326410  26.8382570
  39.6567340  61.1176420  26.3243110  52.3337120  52.6926220  12.1220100
  52.0209780  52.7853050  13.0219170  53.0949590  53.2707250  12.0717530
  38.8519260  60.0586020  16.5797440  38.7316860  60.7848110  15.9678710
  38.5420150  59.2888930  16.1025350  36.4904630  63.2301160  22.3866080
  36.5685050  63.3649930  21.4421800  37.1046310  62.5217050  22.5794200
  53.5438410  57.4297720  28.0994240  52.9282680  57.9377390  27.5709700
  53.2234830  56.5296050  28.0420180  41.3182920  53.4021090  19.9621110
  40.8751070  54.1830630  19.6305630  41.8767910  53.7250980  20.6692050
  45.6052730  56.2689610  25.5656430  45.1432100  56.4772630  26.3776370
  45.2030840  55.4548960  25.2627100  50.6057240  57.4898560  26.6953090
  49.7550830  57.1904310  27.0162160  50.4459030  57.7340570  25.7836910
  47.7006950  58.9900310  28.7951880  48.0260360  58.1564060  28.4554110
  48.4887280  59.5128830  28.9430210  44.4341740  53.0231790  14.8426940
  43.8095920  53.0191660  15.5680250  44.3471860  52.1562750  14.4462910
  43.3558820  53.9468420  21.8210710  43.6531150  54.8531250  21.7402730
  43.9044380  53.4587200  21.2070280  41.1097140  58.5254660  17.6902360
  40.8838060  58.3091830  18.5948980  40.3289670  58.9583120  17.3448330
  48.3394900  58.5318030  16.2893010  47.7403790  59.2553830  16.1056630
  48.8874510  58.4694810  15.5069460  43.5496350  59.4240240  28.3562630
  43.4539950  58.4834970  28.2063030  44.3928330  59.6455310  27.9610700
  46.9459770  57.1681570  18.3196290  47.3389340  57.4853770  17.5064980
  47.3076620  56.2893450  18.4340810  38.6806890  55.8353910  26.5096410
  38.2870280  56.6829120  26.7169190  37.9925290  55.1980280  26.7005050
  45.2551940  55.9188880  29.5793150  44.5650260  55.7261080  30.2139240
  45.9984240  56.2023520  30.1117450  35.9823940  53.7582370  20.5426490
  35.6936990  54.3285230  21.2551470  36.7269700  53.2786820  20.9057720
  36.1694170  57.7002490  11.7529210  36.0868840  58.6433250  11.8944200
  35.8177230  57.5577400  10.8741560  47.5314910  59.7587320  22.4147070
  46.7996030  60.2674130  22.7637170  47.1339250  58.9417300  22.1135850
  43.9692300  56.4341520  20.8199560  43.9728360  55.9931470  19.9704100
  44.8643420  56.7558850  20.9271380  39.8194680  56.3168010  19.7793770
  39.4794730  56.7943240  20.5360820  39.0572000  55.8633130  19.4194870
  44.0312450  57.4353600  13.8106320  44.1525270  57.3940080  14.7592140
  43.6460960  58.2977750  13.6553050  47.9940820  55.2121000  21.8270010
  48.0113560  55.6629650  22.6711860  47.7456400  54.3126640  22.0403450
  43.0433950  59.7454740  13.2089620  42.4750850  59.2972990  12.5825530
  43.7522950  60.1047520  12.6754770  51.4211570  52.6253180  27.6656390
  51.7457340  51.8942840  28.1914370  51.4568080  52.3066820  26.7637380
  44.2700270  60.4943300  22.5664970  44.6370400  60.0201870  23.3126310
  44.0805330  61.3684870  22.9073310  37.1340760  55.2386990  18.6958440
  36.8487680  54.8742660  19.5337060  37.0719620  54.5067450  18.0821580
  42.0599640  59.5351940  24.8849180  41.7556710  60.4143920  25.1099540
  43.0146100  59.5951730  24.9206620  40.5881430  63.7412930  15.4816030
  39.8143690  63.2010550  15.3214750  41.3176060  63.2219540  15.1433790
  51.3469410  62.7378290  21.2742420  52.0668530  63.2333580  20.8838530
  51.1451230  62.0596180  20.6296290  46.8079350  54.1316250  15.4171810
  45.9943960  53.6329420  15.3417120  46.6141300  54.9714500  15.0008160
  46.7288210  62.8087350  27.1611420  46.6625520  61.8883020  26.9069010
  46.0993350  62.9062790  27.8756060  49.5227740  58.5035900  13.7133970
  50.4107360  58.8153130  13.5385310  49.4932830  57.6308150  13.3214550
  40.6318830  63.4093310  19.1194840  41.1497500  62.6061570  19.0651730
  40.1802850  63.3472450  19.9611670  38.1163370  60.3754680  26.0320540
  37.7578310  61.0408530  26.6193880  37.8217930  59.5438230  26.4033160
  41.3176490  60.8338920  28.9160090  41.0176630  60.9796100  28.0187910
  42.0887730  60.2744210  28.8233480  51.7942010  59.8147740  13.1813830
  51.7105730  60.2461960  12.3310270  52.5136200  60.2746090  13.6140650
  52.8716150  62.2715260  26.2583800  52.1464340  62.8644040  26.0613190
  53.3991610  62.2638800  25.4597170  36.6271420  60.3745940  12.6555140
  37.4966270  60.6570740  12.9391060  36.1361740  61.1881810  12.5403950
  43.7906230  61.7619150  16.7763420  44.2469010  62.5724400  17.0023610
  43.4394440  61.4442290  17.6081910  39.6918010  52.1056800  17.2485940
  39.5632640  52.0974700  18.1970860  38.8680030  52.4439890  16.8976950
  36.6911940  53.8647920  26.7092640  35.9770460  54.0644840  27.3145250
  37.1106980  53.0887490  27.0807440  38.6117930  62.1919410  14.7837200
  38.0045880  62.9318310  14.7932500  39.0867280  62.2818770  13.9575400
  48.1850720  56.3570230  24.4594090  48.5531540  55.5365440  24.7873660
  47.3248920  56.4172120  24.8749740  51.5512750  55.3127170  15.2681650
  50.9225910  55.4172840  14.5539880  51.0564670  55.5323950  16.0575530
  43.5196780  57.5913120  16.6839530  42.8112930  58.0599460  17.1253140
  43.8041260  56.9335130  17.3184720  45.1452710  59.0109820  24.6832060
  45.6437960  59.4855640  25.3483910  45.2875660  58.0873340  24.8902090
  47.5512210  54.3163780  18.1235320  47.4279990  54.3349910  17.1744830
  48.4996770  54.3642720  18.2433720  41.7231800  55.8998200  14.0590240
  42.5722330  56.3368350  13.9930430  41.3563070  56.2118460  14.8862300
  52.3519570  55.2277780  25.5260450  51.8493170  55.9683180  25.8654260
  53.1676230  55.6161780  25.2097240  50.6441580  60.4710960  18.9721810
  49.7031720  60.4861190  19.1469500  50.9585650  59.6846920  19.4182110
  40.6223220  62.1530560  12.5325770  41.3886490  62.0411920  13.0951200
  40.6997910  61.4568530  11.8802540  39.3169980  59.5855630  13.2158660
  39.3973570  58.6383140  13.3276060  40.2089730  59.9162510  13.3219320
  36.8440780  61.4070550  28.4514830  37.3479800  60.8277830  29.0231060
  36.1048200  61.6910780  28.9891200  43.8978720  62.8141540  27.9850350
  43.1324390  63.3826540  27.9005020  44.0794680  62.5217750  27.0918580
  46.9867130  63.1904770  12.6103110  46.4377230  63.6374070  13.2545850
  47.6086390  62.6854020  13.1340780  38.8763860  59.5500140  29.3464900
  38.9169200  59.2514010  30.2550130  39.7309360  59.9507750  29.1872420
  42.6542250  62.1495690  14.5068410  43.0758670  61.9835560  15.3499800
  42.7793090  61.3395920  14.0123550  40.8169670  58.1292240  27.3139390
  40.2866130  57.6383190  26.6862730  41.4857740  58.5576440  26.7797320
  45.1669890  61.1733300  11.7545510  45.6875550  60.4582320  11.3886660
  45.8138290  61.8119170  12.0546020  49.7147730  62.5961700  27.0780580
  50.1288750  62.7506780  27.9271000  48.7798730  62.7216920  27.2406360
  50.1869900  59.9357860  29.0819730  50.7690670  59.1810180  28.9940210
  50.3631670  60.4665300  28.3051210  41.3041970  55.0954610  27.3936680
  41.2098840  54.4775360  26.6687550  40.7239360  55.8220900  27.1666590
  44.0703410  53.6527850  24.4264070  43.6220710  53.6752110  23.5809620
  43.4368610  53.2546870  25.0234370  44.4762960  62.5482180  25.0476510
  44.8951070  63.3914910  24.8752750  43.5571590  62.6854220  24.8183290
  46.8126860  60.2798360  26.4314350  46.9323070  59.6839500  27.1709190
  47.6720860  60.3168050  26.0115650  49.1514760  60.8335550  25.0076860
  48.6249980  61.3578170  24.4042000  49.4946100  61.4662940  25.6386590
  41.5501150  58.2228920  11.4526570  41.3490210  57.3596280  11.8139910
  41.3793200  58.1362280  10.5148170  43.5795630  56.8219710  27.6890170
  44.1695320  56.5135560  28.3767990  42.7615870  56.3499460  27.8450070
  48.3989060  56.4385520  27.9223190  47.7104580  55.7767060  27.8573180
  49.1195080  55.9923790  28.3671650  49.0289460  53.0337150  13.9813450
  49.3091750  52.1905050  14.3372870  48.2555190  53.2660260  14.4952200
  40.3483950  55.3229540  11.4404450  40.6509850  55.3296970  10.5323600
  41.0878540  54.9727400  11.9372110  43.5668880  54.2664160  12.4260650
  43.2190880  53.5888150  11.8463100  43.7681650  53.8053670  13.2404040
  53.4070180  62.2713880  14.5917360  54.1689090  62.8410530  14.6977050
  53.4224550  61.7041080  15.3625670  36.9074520  60.7951810  18.8225020
  36.2523360  60.5263450  18.1784720  37.7452470  60.6856290  18.3727000
  53.4589350  62.5648250  11.7489880  53.7338190  63.4727130  11.6209100
  53.2700090  62.5010780  12.6851870  49.8564960  55.5893100  13.0443510
  50.2749840  55.4024080  12.2040170  49.5501020  54.7372150  13.3546440
  53.3554690  60.5017240  16.7419310  52.9798290  59.7345170  16.3100600
  52.6257810  60.8839940  17.2294240  37.9450450  61.1804380  23.3628360
  38.3123490  61.0931780  24.2424380  37.3761270  60.4170930  23.2635220
  52.7454310  59.6488760  26.3758830  52.5140400  59.4201510  25.4756780
  53.0058860  60.5688310  26.3303720  37.4966450  58.0913470  27.2686780
  36.6022500  58.0580230  27.6080490  38.0364000  58.2900260  28.0338030
  51.1842380  54.8745190  29.1538530  52.0612560  54.8828590  29.5372530
  51.1963220  54.1376030  28.5430880  36.1212600  58.0050740  14.7650350
  35.2176680  58.2680940  14.5902010  36.6053220  58.2761910  13.9850310
  52.6305650  58.7274730  20.0426550  53.1543130  58.2337380  19.4116720
  53.2165070  58.8625090  20.7874120  52.8095370  58.8114600  23.5646100
  51.8598080  58.7778140  23.6791090  52.9908380  59.7214710  23.3295870
  38.6639810  57.0616280  12.6744730  39.3731510  56.6399500  12.1892010
  37.9479750  57.1291510  12.0428080  38.3113970  53.1155610  11.7147380
  39.0342100  53.6564550  12.0328600  38.5838490  52.8419030  10.8388920
  52.1205620  57.9848080  15.9818960  52.6164740  57.7518950  16.7667840
  51.9221690  57.1459920  15.5656600  38.0006160  52.3661800  21.6170000
  38.6482350  51.8159180  21.1765160  38.4208000  52.6204950  22.4385810
  53.5492780  56.6209030  18.5156640  53.4392060  56.4665070  19.4538910
  54.3100370  56.0929970  18.2732050  51.8958500  52.5603160  24.9739640
  52.5330720  53.1737300  25.3398830  52.0433390  52.5963820  24.0288870
  54.4383050  54.4516950  11.7562780  55.3632360  54.3198130  11.5481070
  54.4158840  54.5309770  12.7099230  54.5121540  55.2227610  14.3819490
  53.7173040  55.1572730  14.9112400  54.7164820  56.1578250  14.3704840
  37.7538160  52.5217470  24.3595320  37.4052980  52.9781290  25.1253500
  37.4225860  51.6274600  24.4417750  45.2662980  53.7129350  27.8814740
  45.2051870  54.3051180  28.6310150  46.2063360  53.6055310  27.7365000
  47.9037540  53.3699410  27.5207030  48.5177950  53.6878700  26.8588110
  48.4487100  52.8848000  28.1402890  38.4258800  52.0493670  27.6346090
  38.9741790  51.8681720  26.8712200  38.4914110  51.2587780  28.1702400
  48.6445580  51.9331550  23.8476320  47.7705420  52.2666660  23.6449250
  48.5356330  51.4604730  24.6728190  49.5517560  54.1402420  25.2318040
  49.2230920  53.3254180  24.8519770  50.4999860  54.0972230  25.1083730
  46.3920400  52.8501390  22.7869230  45.6092190  53.3246890  23.0665990
  46.0983330  51.9456220  22.6782410  50.9441470  53.5524490  20.8318320
  51.3849560  53.4969590  19.9839920  50.6749060  54.4682500  20.9028500
  52.8080040  53.1839730  18.8427140  52.7468440  52.2400950  18.6958160
  53.5872070  53.2919820  19.3880600  37.7360810  53.1548870  15.3082950
  38.4940170  53.2677750  14.7346980  37.2737980  53.9918070  15.2626380
  44.2774620  55.2688140  18.2985260  43.4649130  54.8945030  17.9581140
  44.7816260  54.5133220  18.6006450  48.7799600  51.9330590  19.5368330
  49.3828970  52.5050800  20.0116850  48.0392590  52.4970030  19.3142230
  51.9234200  52.3352150  14.8108610  52.1184830  53.2335600  15.0776040
  51.1364070  52.1039230  15.3041560  40.1085960  53.6812920  13.8484920
  40.6378720  52.8942720  13.7192870  40.7414280  54.3604110  14.0820450
  42.3023800  53.4188060  16.9030310  41.6726540  52.7175370  17.0700440
  41.7628940  54.1792190  16.6863470  42.4279360  52.6972040  29.3382800
  42.1463630  53.2005640  28.5743620  42.8099060  51.8993790  28.9724930
  49.0294820  52.1125620  29.9163270  48.9160270  52.4320230  30.8114790
  49.8464560  52.5138130  29.6200550  46.0671010  61.9097110   2.1607280
  45.2913110  61.4297550   2.4505850  46.7183940  61.2302760   1.9863440
  40.0836840  62.2216920   3.0383040  39.2521720  61.9665630   3.4379550
  40.6917820  62.2927690   3.7740960  36.4561800  59.7824460   2.7065130
  37.0277910  59.0146660   2.7068770  36.4563340  60.0813220   1.7971740
  37.6986670  55.1908820   4.4934060  37.5189510  54.2934570   4.7736820
  37.2966750  55.7380690   5.1681010  38.3173340  57.6869320   3.1016400
  38.9983450  57.9507690   3.7203800  38.0021390  56.8470190   3.4354410
  42.5097910  58.7336680   2.1888990  43.0176130  59.2317650   2.8294010
  43.0411150  57.9571880   2.0128350  54.6108840  56.9041870   5.8918340
  53.9061010  57.2923580   5.3733450  54.8766760  57.5992160   6.4939270
  40.7934010  53.3735240   6.4552410  40.7952450  53.8907630   5.6498310
  39.9638320  52.8965420   6.4322340  42.0436860  63.0130420   4.6325910
  41.7106240  63.6399340   5.2746980  42.2203540  63.5392300   3.8527580
  50.5570770  56.8275500   2.1002250  49.8526340  57.1160390   2.6805360
  50.9182930  57.6375610   1.7401810  40.4749340  55.0845200   4.4622860
  40.8166150  55.9287250   4.1676730  39.5365150  55.2328940   4.5788200
  53.6257690  56.2730290   2.4911460  52.6782600  56.3069270   2.6226890
  53.9507680  57.0869240   2.8760820  49.1077730  63.1924600   4.4057520
  49.5246520  62.9784710   3.5710980  49.8317550  63.4497390   4.9766140
  53.0539830  61.5911820   4.4973760  52.2258460  61.6604910   4.0223890
  53.6490310  62.1766130   4.0289590  50.0181840  58.3781140   5.4428630
  49.6053020  59.2034850   5.6968620  49.2857790  57.7926180   5.2504990
  40.8643250  57.9384250   4.0846340  41.4157840  58.0479590   3.3099590
  41.3786760  58.3121850   4.8001570  40.5385980  61.4603610   7.6951680
  40.3993750  62.3326410   8.0639080  39.6567340  61.1176420   7.5499620
  36.4904630  63.2301160   3.6122590  36.5685050  63.3649930   2.6678310
  37.1046310  62.5217050   3.8050710  53.5438410  57.4297720   9.3250750
  52.9282680  57.9377390   8.7966210  53.2234830  56.5296050   9.2676690
  45.6052730  56.2689610   6.7912940  45.1432100  56.4772630   7.6032880
  45.2030840  55.4548960   6.4883610  50.6057240  57.4898560   7.9209600
  49.7550830  57.1904310   8.2418670  50.4459030  57.7340570   7.0093420
  47.7006950  58.9900310  10.0208390  48.0260360  58.1564060   9.6810620
  48.4887280  59.5128830  10.1686720  43.3558820  53.9468420   3.0467220
  43.6531150  54.8531250   2.9659240  43.9044380  53.4587200   2.4326790
  43.5496350  59.4240240   9.5819140  43.4539950  58.4834970   9.4319540
  44.3928330  59.6455310   9.1867210  38.6806890  55.8353910   7.7352920
  38.2870280  56.6829120   7.9425700  37.9925290  55.1980280   7.9261560
  45.2551940  55.9188880  10.8049660  44.5650260  55.7261080  11.4395750
  45.9984240  56.2023520  11.3373960  35.9823940  53.7582370   1.7683000
  35.6936990  54.3285230   2.4807980  36.7269700  53.2786820   2.1314230
  47.5314910  59.7587320   3.6403580  46.7996030  60.2674130   3.9893680
  47.1339250  58.9417300   3.3392360  47.9940820  55.2121000   3.0526520
  48.0113560  55.6629650   3.8968370  47.7456400  54.3126640   3.2659960
  51.4211570  52.6253180   8.8912900  51.7457340  51.8942840   9.4170880
  51.4568080  52.3066820   7.9893890  44.2700270  60.4943300   3.7921480
  44.6370400  60.0201870   4.5382820  44.0805330  61.3684870   4.1329820
  42.0599640  59.5351940   6.1105690  41.7556710  60.4143920   6.3356050
  43.0146100  59.5951730   6.1463130  51.3469410  62.7378290   2.4998930
  52.0668530  63.2333580   2.1095040  51.1451230  62.0596180   1.8552800
  46.7288210  62.8087350   8.3867930  46.6625520  61.8883020   8.1325520
  46.0993350  62.9062790   9.1012570  38.1163370  60.3754680   7.2577050
  37.7578310  61.0408530   7.8450390  37.8217930  59.5438230   7.6289670
  41.3176490  60.8338920  10.1416600  41.0176630  60.9796100   9.2444420
  42.0887730  60.2744210  10.0489990  52.8716150  62.2715260   7.4840310
  52.1464340  62.8644040   7.2869700  53.3991610  62.2638800   6.6853680
  36.6911940  53.8647920   7.9349150  35.9770460  54.0644840   8.5401760
  37.1106980  53.0887490   8.3063950  48.1850720  56.3570230   5.6850600
  48.5531540  55.5365440   6.0130170  47.3248920  56.4172120   6.1006250
  45.1452710  59.0109820   5.9088570  45.6437960  59.4855640   6.5740420
  45.2875660  58.0873340   6.1158600  52.3519570  55.2277780   6.7516960
  51.8493170  55.9683180   7.0910770  53.1676230  55.6161780   6.4353750
  36.8440780  61.4070550   9.6771340  37.3479800  60.8277830  10.2487570
  36.1048200  61.6910780  10.2147710  43.8978720  62.8141540   9.2106860
  43.1324390  63.3826540   9.1261530  44.0794680  62.5217750   8.3175090
  38.8763860  59.5500140  10.5721410  38.9169200  59.2514010  11.4806640
  39.7309360  59.9507750  10.4128930  40.8169670  58.1292240   8.5395900
  40.2866130  57.6383190   7.9119240  41.4857740  58.5576440   8.0053830
  49.7147730  62.5961700   8.3037090  50.1288750  62.7506780   9.1527510
  48.7798730  62.7216920   8.4662870  50.1869900  59.9357860  10.3076240
  50.7690670  59.1810180  10.2196720  50.3631670  60.4665300   9.5307720
  41.3041970  55.0954610   8.6193190  41.2098840  54.4775360   7.8944060
  40.7239360  55.8220900   8.3923100  44.0703410  53.6527850   5.6520580
  43.6220710  53.6752110   4.8066130  43.4368610  53.2546870   6.2490880
  44.4762960  62.5482180   6.2733020  44.8951070  63.3914910   6.1009260
  43.5571590  62.6854220   6.0439800  46.8126860  60.2798360   7.6570860
  46.9323070  59.6839500   8.3965700  47.6720860  60.3168050   7.2372160
  49.1514760  60.8335550   6.2333370  48.6249980  61.3578170   5.6298510
  49.4946100  61.4662940   6.8643100  43.5795630  56.8219710   8.9146680
  44.1695320  56.5135560   9.6024500  42.7615870  56.3499460   9.0706580
  48.3989060  56.4385520   9.1479700  47.7104580  55.7767060   9.0829690
  49.1195080  55.9923790   9.5928160  37.9450450  61.1804380   4.5884870
  38.3123490  61.0931780   5.4680890  37.3761270  60.4170930   4.4891730
  52.7454310  59.6488760   7.6015340  52.5140400  59.4201510   6.7013290
  53.0058860  60.5688310   7.5560230  37.4966450  58.0913470   8.4943290
  36.6022500  58.0580230   8.8337000  38.0364000  58.2900260   9.2594540
  51.1842380  54.8745190  10.3795040  52.0612560  54.8828590  10.7629040
  51.1963220  54.1376030   9.7687390  52.8095370  58.8114600   4.7902610
  51.8598080  58.7778140   4.9047600  52.9908380  59.7214710   4.5552380
  38.0006160  52.3661800   2.8426510  38.6482350  51.8159180   2.4021670
  38.4208000  52.6204950   3.6642320  51.8958500  52.5603160   6.1996150
  52.5330720  53.1737300   6.5655340  52.0433390  52.5963820   5.2545380
  37.7538160  52.5217470   5.5851830  37.4052980  52.9781290   6.3510010
  37.4225860  51.6274600   5.6674260  45.2662980  53.7129350   9.1071250
  45.2051870  54.3051180   9.8566660  46.2063360  53.6055310   8.9621510
  47.9037540  53.3699410   8.7463540  48.5177950  53.6878700   8.0844620
  48.4487100  52.8848000   9.3659400  38.4258800  52.0493670   8.8602600
  38.9741790  51.8681720   8.0968710  38.4914110  51.2587780   9.3958910
  48.6445580  51.9331550   5.0732830  47.7705420  52.2666660   4.8705760
  48.5356330  51.4604730   5.8984700  49.5517560  54.1402420   6.4574550
  49.2230920  53.3254180   6.0776280  50.4999860  54.0972230   6.3340240
  46.3920400  52.8501390   4.0125740  45.6092190  53.3246890   4.2922500
  46.0983330  51.9456220   3.9038920  42.4279360  52.6972040  10.5639310
  42.1463630  53.2005640   9.8000130  42.8099060  51.8993790  10.1981440
  49.0294820  52.1125620  11.1419780  48.9160270  52.4320230  12.0371300
  49.8464560  52.5138130  10.8457060  47.9352970  41.3574600  75.3771970
  47.8547020  40.4429210  75.1063680  47.5217390  41.8541670  74.6711680
  50.0878440  47.5413810  76.0380370  49.6259970  46.7701050  76.3667540
  50.9003990  47.5679880  76.5432820  38.4928790  38.4075320  71.9199390
  37.6045490  38.7491290  71.8179270  38.7769980  38.2075640  71.0280220
  46.3141750  49.8271820  75.6584360  45.6953190  50.2829320  75.0878800
  47.1693530  49.9823280  75.2574060  40.6690180  36.9906820  72.9537770
  40.7756930  37.8910550  73.2606530  39.7582540  36.9424790  72.6632420
  50.3209290  36.1131630  74.4248670  51.1418910  35.6228200  74.4674150
  50.3543370  36.7029290  75.1780510  47.1805100  44.7111060  73.0516270
  46.5622370  45.1760510  72.4878990  47.6928350  45.4038540  73.4685780
  36.5488300  45.3967590  70.4255900  36.1716280  45.8854690  69.6940800
  36.8061370  46.0692870  71.0562430  44.1577230  33.7983980  75.8841410
  44.4652210  33.2430870  75.1676910  43.2277930  33.9328440  75.7014400
  51.0037710  46.2367490  73.2639040  50.8934040  45.2941820  73.3888460
  51.0005960  46.5983130  74.1501800  46.5457990  41.8632810  72.6201530
  45.6187270  41.7970190  72.8490000  46.6982810  42.8012940  72.5056770
  46.5327070  38.1349810  69.6168690  45.5930740  38.2963770  69.7021150
  46.8510330  38.8535490  69.0704680  50.5755280  43.4253110  73.1236780
  49.9567700  43.0872660  72.4763080  50.5579730  42.7812870  73.8315970
  42.1514630  42.3897550  75.4021260  41.7471630  41.6774800  74.9067160
  42.2377750  42.0450790  76.2909300  48.7519980  42.6639920  70.1309530
  49.1913260  41.8262350  69.9847350  49.4648400  43.2969320  70.2173670
  46.8615360  47.6035990  74.0990770  47.3011270  48.3460320  73.6846160
  46.8002250  47.8462560  75.0229730  52.3337120  33.9182730  68.4450570
  52.0209780  34.0109560  69.3449640  53.0949590  34.4963760  68.3948000
  38.8519260  41.2842530  72.9027910  38.7316860  42.0104620  72.2909180
  38.5420150  40.5145440  72.4255820  37.7352260  46.1557860  75.1202730
  37.3280340  46.2972450  74.2656330  38.6265270  45.8718020  74.9173940
  49.5285540  50.5905110  71.4553780  49.3686680  50.3008050  72.3535610
  49.3632250  49.8145240  70.9199010  42.0073920  50.3703640  73.2325400
  41.8316400  49.4539180  73.0193200  41.1529660  50.7290930  73.4723200
  49.2311670  48.0992670  70.0151780  48.5376830  48.0969960  69.3554060
  49.9734530  47.6751990  69.5845950  48.7961600  49.7255380  74.0900270
  49.2518550  48.9444760  74.4038890  49.1354120  50.4362200  74.6341450
  41.3182920  34.6277600  76.2851580  40.8751070  35.4087140  75.9536100
  41.8767910  34.9507490  76.9922520  44.4341740  34.2488300  71.1657410
  43.8095920  34.2448170  71.8910720  44.3471860  33.3819260  70.7693380
  41.1097140  39.7511170  74.0132830  40.8838060  39.5348340  74.9179450
  40.3289670  40.1839630  73.6678800  48.3394900  39.7574540  72.6123480
  47.7403790  40.4810340  72.4287100  48.8874510  39.6951320  71.8299930
  46.9459770  38.3938080  74.6426760  47.3389340  38.7110280  73.8295450
  47.3076620  37.5149960  74.7571280  36.1694170  38.9259000  68.0759680
  36.0868840  39.8689760  68.2174670  35.8177230  38.7833910  67.1972030
  39.8194680  37.5424520  76.1024240  39.4794730  38.0199750  76.8591290
  39.0572000  37.0889640  75.7425340  44.0312450  38.6610110  70.1336790
  44.1525270  38.6196590  71.0822610  43.6460960  39.5234260  69.9783520
  43.0433950  40.9711250  69.5320090  42.4750850  40.5229500  68.9056000
  43.7522950  41.3304030  68.9985240  37.1340760  36.4643500  75.0188910
  36.8487680  36.0999170  75.8567530  37.0719620  35.7323960  74.4052050
  40.5881430  44.9669440  71.8046500  39.8143690  44.4267060  71.6445220
  41.3176060  44.4476050  71.4664260  46.8079350  35.3572760  71.7402280
  45.9943960  34.8585930  71.6647590  46.6141300  36.1971010  71.3238630
  49.5227740  39.7292410  70.0364440  50.4107360  40.0409640  69.8615780
  49.4932830  38.8564660  69.6445020  40.6318830  44.6349820  75.4425310
  41.1497500  43.8318080  75.3882200  40.1802850  44.5728960  76.2842140
  45.5188330  45.9016100  70.7152610  45.8604030  46.6458330  70.2195930
  44.6901040  46.2147220  71.0777440  51.7942010  41.0404250  69.5044300
  51.7105730  41.4718470  68.6540740  52.5136200  41.5002600  69.9371120
  52.8229260  47.8946510  72.2326430  52.1805420  47.2402130  72.5070150
  52.4359920  48.3001600  71.4567100  48.4015740  45.2231940  76.0798120
  48.7539560  44.6260070  75.4199490  47.5178070  44.8976170  76.2506370
  44.4879020  45.9829630  73.4868530  45.1750150  46.5298840  73.8676120
  43.7011440  46.5270360  73.5218140  36.6271420  41.6002450  68.9785610
  37.4966270  41.8827250  69.2621530  36.1361740  42.4138320  68.8634420
  43.7906230  42.9875660  73.0993890  44.2469010  43.7980910  73.3254080
  43.4394440  42.6698800  73.9312380  39.6918010  33.3313310  73.5716410
  39.5632640  33.3231210  74.5201330  38.8680030  33.6696400  73.2207420
  51.2126640  46.7862970  68.7702780  50.9864220  46.0693410  69.3627420
  50.8222840  46.5375410  67.9324530  36.9942670  50.8129830  69.5447240
  37.3540310  51.4119170  68.8904510  36.8535010  51.3589720  70.3182270
  50.7942890  44.7034910  70.4316940  50.5064590  45.1647600  71.2194820
  51.5895060  44.2432680  70.7001160  43.0111290  48.1961030  70.3620910
  43.0021390  48.9290720  69.7465420  42.0909650  47.9492610  70.4547870
  38.6117930  43.4175920  71.1067670  38.0045880  44.1574820  71.1162970
  39.0867280  43.5075280  70.2805870  51.5512750  36.5383680  71.5912120
  50.9225910  36.6429350  70.8770350  51.0564670  36.7580460  72.3806000
  45.9970890  48.2589270  69.0246100  46.0982870  48.0553260  68.0948080
  45.0972630  48.0047550  69.2293880  43.5196780  38.8169630  73.0070000
  42.8112930  39.2855970  73.4483610  43.8041260  38.1591640  73.6415190
  47.5512210  35.5420290  74.4465790  47.4279990  35.5606420  73.4975300
  48.4996770  35.5899230  74.5664190  44.6389000  50.7775590  73.7193770
  44.8930500  50.7396980  72.7973140  43.6901480  50.6508920  73.7122020
  41.7231800  37.1254710  70.3820710  42.5722330  37.5624860  70.3160900
  41.3563070  37.4374970  71.2092770  50.6441580  41.6967470  75.2952280
  49.7031720  41.7117700  75.4699970  50.9585650  40.9103430  75.7412580
  40.6223220  43.3787070  68.8556240  41.3886490  43.2668430  69.4181670
  40.6997910  42.6825040  68.2033010  39.3169980  40.8112140  69.5389130
  39.3973570  39.8639650  69.6506530  40.2089730  41.1419020  69.6449790
  40.1184690  50.9607530  76.6423670  40.8547170  50.4122990  76.9132240
  40.5025610  51.8263540  76.5029660  37.0030170  47.0281100  72.5165180
  36.0769950  47.2702240  72.5070590  37.4686600  47.8555360  72.3949930
  43.2287000  50.1337840  68.4649240  44.0215610  50.4226670  68.0131030
  42.7091350  49.7030010  67.7861720  52.2817170  49.3607970  69.8885980
  51.9958680  48.9473110  69.0740160  52.0836720  50.2895680  69.7686500
  43.7464400  45.3541250  68.3291590  43.6415040  44.7393600  69.0552970
  43.5788620  44.8307140  67.5454600  46.9867130  44.4161280  68.9333580
  46.4377230  44.8630580  69.5776320  47.6086390  43.9110530  69.4571250
  42.6542250  43.3752200  70.8298880  43.0758670  43.2092070  71.6730270
  42.7793090  42.5652430  70.3354020  45.1669890  42.3989810  68.0775980
  45.6875550  41.6838830  67.7117130  45.8138290  43.0375680  68.3776490
  41.5501150  39.4485430  67.7757040  41.3490210  38.5852790  68.1370380
  41.3793200  39.3618790  66.8378640  49.0289460  34.2593660  70.3043920
  49.3091750  33.4161560  70.6603340  48.2555190  34.4916770  70.8182670
  40.3483950  36.5486050  67.7634920  40.6509850  36.5553480  66.8554070
  41.0878540  36.1983910  68.2602580  43.5668880  35.4920670  68.7491120
  43.2190880  34.8144660  68.1693570  43.7681650  35.0310180  69.5634510
  45.7317920  50.4801420  70.3677720  46.6268710  50.8186390  70.3896480
  45.7635550  49.7580830  69.7402000  39.3714080  45.8528470  68.5964720
  39.8088950  46.3958140  69.2522300  39.8561810  45.0275420  68.6061060
  36.5859880  48.6417500  76.0484980  36.9162890  47.7738560  75.8163620
  37.0150880  48.8476020  76.8789940  41.1821800  46.9726510  73.7086950
  40.8817340  46.8491480  74.6090860  41.0759290  46.1135100  73.3002680
  53.9513720  46.7522910  68.4113630  53.1206680  46.8199560  68.8820860
  54.1285550  47.6427030  68.1080490  53.4070180  43.4970390  70.9147830
  54.1689090  44.0667040  71.0207520  53.4224550  42.9297590  71.6856140
  36.9074520  42.0208320  75.1455490  36.2523360  41.7519960  74.5015190
  37.7452470  41.9112800  74.6957470  54.4130150  44.3520490  75.7589760
  54.7838980  43.5687810  75.3525730  55.0532080  45.0409590  75.5807060
  53.4589350  43.7904760  68.0720350  53.7338190  44.6983640  67.9439570
  53.2700090  43.7267290  69.0082340  49.8564960  36.8149610  69.3673980
  50.2749840  36.6280590  68.5270640  49.5501020  35.9628660  69.6776910
  53.3554690  41.7273750  73.0649780  52.9798290  40.9601680  72.6331070
  52.6257810  42.1096450  73.5524710  36.1212600  39.2307250  71.0880820
  35.2176680  39.4937450  70.9132480  36.6053220  39.5018420  70.3080780
  52.6305650  39.9531240  76.3657020  53.1543130  39.4593890  75.7347190
  53.2165070  40.0881600  77.1104590  38.6639810  38.2872790  68.9975200
  39.3731510  37.8656010  68.5122480  37.9479750  38.3548020  68.3658550
  38.3113970  34.3412120  68.0377850  39.0342100  34.8821060  68.3559070
  38.5838490  34.0675540  67.1619390  52.1205620  39.2104590  72.3049430
  52.6164740  38.9775460  73.0898310  51.9221690  38.3716430  71.8887070
  53.5492780  37.8465540  74.8387110  53.4392060  37.6921580  75.7769380
  54.3100370  37.3186480  74.5962520  54.4383050  35.6773460  68.0793250
  55.3632360  35.5454640  67.8711540  54.4158840  35.7566280  69.0329700
  54.5121540  36.4484120  70.7049960  53.7173040  36.3829240  71.2342870
  54.7164820  37.3834760  70.6935310  51.4539960  50.4875670  74.6988350
  52.0499030  50.1660240  74.0222770  51.7118110  50.0147490  75.4901620
  52.8080040  34.4096240  75.1657610  52.7468440  33.4657460  75.0188630
  53.5872070  34.5176330  75.7111070  37.1132790  50.5488600  74.1281560
  36.9454830  49.9159280  74.8263450  36.2467300  50.7548000  73.7775750
  37.7360810  34.3805380  71.6313420  38.4940170  34.4934260  71.0577450
  37.2737980  35.2174580  71.5856850  44.2774620  36.4944650  74.6215730
  43.4649130  36.1201540  74.2811610  44.7816260  35.7389730  74.9236920
  48.7799600  33.1587100  75.8598800  49.3828970  33.7307310  76.3347320
  48.0392590  33.7226540  75.6372700  51.9234200  33.5608660  71.1339080
  52.1184830  34.4592110  71.4006510  51.1364070  33.3295740  71.6272030
  38.7195490  49.2421830  71.5731700  38.1943110  49.6229860  70.8693660
  38.6440070  49.8672600  72.2941410  40.1085960  34.9069430  70.1715390
  40.6378720  34.1199230  70.0423340  40.7414280  35.5860620  70.4050920
  42.3023800  34.6444570  73.2260780  41.6726540  33.9431880  73.3930910
  41.7628940  35.4048700  73.0093940  53.4760810  50.8009370  72.8945640
  53.6513000  50.1147110  72.2506560  52.7782380  51.3256420  72.5022310
  41.3188460  51.1904210  70.4480950  42.0507280  50.9063490  69.9004840
  41.5782130  50.9517490  71.3380330  40.4803250  47.3068940  70.4527280
  39.8512130  47.7754040  71.0013110  40.5951080  46.4618160  70.8873470
  47.9352970  41.3574600  56.6028480  47.8547020  40.4429210  56.3320190
  47.5217390  41.8541670  55.8968190  46.0671010  43.1353620  58.4837750
  45.2913110  42.6554060  58.7736320  46.7183940  42.4559270  58.3093910
  40.0836840  43.4473430  59.3613510  39.2521720  43.1922140  59.7610020
  40.6917820  43.5184200  60.0971430  50.0878440  47.5413810  57.2636880
  49.6259970  46.7701050  57.5924050  50.9003990  47.5679880  57.7689330
  40.0638100  47.4813520  59.5571530  40.3666140  46.5911260  59.3781750
  40.8081690  48.0383740  59.3293780  36.4561800  41.0080970  59.0295600
  37.0277910  40.2403170  59.0299240  36.4563340  41.3069730  58.1202210
  46.3141750  49.8271820  56.8840870  45.6953190  50.2829320  56.3135310
  47.1693530  49.9823280  56.4830570  45.5080000  45.8110810  58.4907910
  45.4388280  44.8700750  58.3297040  46.2699860  45.9012220  59.0630480
  46.5385170  38.6181190  58.7176840  46.9149990  37.7453070  58.6050510
  46.4404680  38.9539890  57.8267280  38.3173340  38.9125830  59.4246870
  38.9983450  39.1764200  60.0434270  38.0021390  38.0726700  59.7584880
  42.5097910  39.9593190  58.5119460  43.0176130  40.4574160  59.1524480
  43.0411150  39.1828390  58.3358820  54.6108840  38.1298380  62.2148810
  53.9061010  38.5180090  61.6963920  54.8766760  38.8248670  62.8169740
  47.1805100  44.7111060  54.2772780  46.5622370  45.1760510  53.7135500
  47.6928350  45.4038540  54.6942290  42.0436860  44.2386930  60.9556380
  41.7106240  44.8655850  61.5977450  42.2203540  44.7648810  60.1758050
  41.2555960  46.2067730  62.7705560  41.8729960  46.8818810  62.4890010
  40.3949080  46.6155710  62.6793060  52.1733550  47.6707140  60.6860200
  51.4897070  48.3406250  60.6776870  52.7127840  47.8687790  59.9205060
  53.6257690  37.4986800  58.8141930  52.6782600  37.5325780  58.9457360
  53.9507680  38.3125750  59.1991290  49.7092290  49.5151270  59.4005380
  49.7219450  49.1113560  58.5327640  49.1567510  50.2898560  59.2966810
  51.0037710  46.2367490  54.4895550  50.8934040  45.2941820  54.6144970
  51.0005960  46.5983130  55.3758310  49.1077730  44.4181110  60.7287990
  49.5246520  44.2041220  59.8941450  49.8317550  44.6753900  61.2996610
  53.0539830  42.8168330  60.8204230  52.2258460  42.8861420  60.3454360
  53.6490310  43.4022640  60.3520060  50.0181840  39.6037650  61.7659100
  49.6053020  40.4291360  62.0199090  49.2857790  39.0182690  61.5735460
  42.6196330  46.0765110  58.7916980  42.3224620  45.4710580  58.1124760
  43.5696150  46.1142420  58.6806340  40.8643250  39.1640760  60.4076810
  41.4157840  39.2736100  59.6330060  41.3786760  39.5378360  61.1232040
  50.7081940  49.6496980  62.4540080  50.2312500  50.4569170  62.2612690
  50.0243730  48.9975310  62.6066290  41.7114760  45.8146800  65.4424780
  40.8143290  46.0386770  65.6898180  41.7367630  45.9381740  64.4936180
  40.5385980  42.6860120  64.0182150  40.3993750  43.5582920  64.3869550
  39.6567340  42.3432930  63.8730090  46.8615360  47.6035990  55.3247280
  47.3011270  48.3460320  54.9102670  46.8002250  47.8462560  56.2486240
  42.3366330  48.6281820  66.2267300  42.3081760  49.0324770  65.3595730
  42.1731300  47.6992180  66.0638900  54.2881150  49.4108920  67.5231470
  54.7640870  49.8891810  68.2020550  54.9088310  49.3426410  66.7976970
  36.4904630  44.4557670  59.9353060  36.5685050  44.5906440  58.9908780
  37.1046310  43.7473560  60.1281180  53.6914400  46.6021770  64.6831480
  53.8177460  46.3633650  63.7648660  53.7335780  45.7706310  65.1553560
  47.5531140  50.3049770  63.2526290  48.0675810  50.2157780  64.0548720
  46.7100220  50.6509470  63.5454200  49.5285540  50.5905110  52.6810290
  49.3686680  50.3008050  53.5792120  49.3632250  49.8145240  52.1455520
  42.0073920  50.3703640  54.4581910  41.8316400  49.4539180  54.2449710
  41.1529660  50.7290930  54.6979710  49.2311670  48.0992670  51.2408290
  48.5376830  48.0969960  50.5810570  49.9734530  47.6751990  50.8102460
  48.7961600  49.7255380  55.3156780  49.2518550  48.9444760  55.6295400
  49.1354120  50.4362200  55.8597960  53.5438410  38.6554230  65.6481220
  52.9282680  39.1633900  65.1196680  53.2234830  37.7552560  65.5907160
  36.5464150  45.4971840  62.4747520  36.7095190  45.0277200  61.6566890
  37.0116600  44.9895400  63.1396360  45.6052730  37.4946120  63.1143410
  45.1432100  37.7029140  63.9263350  45.2030840  36.6805470  62.8114080
  50.6057240  38.7155070  64.2440070  49.7550830  38.4160820  64.5649140
  50.4459030  38.9597080  63.3323890  47.7006950  40.2156820  66.3438860
  48.0260360  39.3820570  66.0041090  48.4887280  40.7385340  66.4917190
  43.5496350  40.6496750  65.9049610  43.4539950  39.7091480  65.7550010
  44.3928330  40.8711820  65.5097680  45.2551940  37.1445390  67.1280130
  44.5650260  36.9517590  67.7626220  45.9984240  37.4280030  67.6604430
  47.5314910  40.9843830  59.9634050  46.7996030  41.4930640  60.3124150
  47.1339250  40.1673810  59.6622830  43.9692300  37.6598030  58.3686540
  43.9728360  37.2187980  57.5191080  44.8643420  37.9815360  58.4758360
  51.4211570  33.8509690  65.2143370  51.7457340  33.1199350  65.7401350
  51.4568080  33.5323330  64.3124360  38.1203130  44.8723270  64.6343330
  37.7357920  44.2316940  65.2326290  38.4315320  45.5759390  65.2038060
  44.2700270  41.7199810  60.1151950  44.6370400  41.2458380  60.8613290
  44.0805330  42.5941380  60.4560290  42.0599640  40.7608450  62.4336160
  41.7556710  41.6400430  62.6586520  43.0146100  40.8208240  62.4693600
  51.3469410  43.9634800  58.8229400  52.0668530  44.4590090  58.4325510
  51.1451230  43.2852690  58.1783270  46.7288210  44.0343860  64.7098400
  46.6625520  43.1139530  64.4555990  46.0993350  44.1319300  65.4243040
  38.1163370  41.6011190  63.5807520  37.7578310  42.2665040  64.1680860
  37.8217930  40.7694740  63.9520140  41.3176490  42.0595430  66.4647070
  41.0176630  42.2052610  65.5674890  42.0887730  41.5000720  66.3720460
  46.6604940  46.8564430  64.4602200  46.6749480  45.9245390  64.2421110
  45.9530040  46.9424190  65.0991970  52.8716150  43.4971770  63.8070780
  52.1464340  44.0900550  63.6100170  53.3991610  43.4895310  63.0084150
  52.8229260  47.8946510  53.4582940  52.1805420  47.2402130  53.7326660
  52.4359920  48.3001600  52.6823610  48.4015740  45.2231940  57.3054630
  48.7539560  44.6260070  56.6456000  47.5178070  44.8976170  57.4762880
  44.4879020  45.9829630  54.7125040  45.1750150  46.5298840  55.0932630
  43.7011440  46.5270360  54.7474650  46.0938840  48.4982000  61.5542700
  46.7381060  48.7041380  62.2316120  46.4568280  47.7370400  61.1013550
  47.3670920  46.5014350  60.2720150  48.0093150  45.8007510  60.3852320
  47.8920270  47.2812790  60.0917040  49.1408540  47.3009250  63.4756210
  49.4764780  47.8875940  64.1534130  48.2208880  47.1701960  63.7054000
  36.9942670  50.8129830  50.7703750  37.3540310  51.4119170  50.1161020
  36.8535010  51.3589720  51.5438780  36.9784530  49.0784690  65.2446150
  37.0875650  48.1379430  65.1041540  36.3265090  49.3439440  64.5959880
  44.9697120  47.3500580  66.6444270  44.6493990  46.6309820  67.1889960
  44.2955480  48.0255650  66.7180330  48.1850720  37.5826740  62.0081070
  48.5531540  36.7621950  62.3360640  47.3248920  37.6428630  62.4236720
  45.9970890  48.2589270  50.2502610  46.0982870  48.0553260  49.3204590
  45.0972630  48.0047550  50.4550390  45.1452710  40.2366330  62.2319040
  45.6437960  40.7112150  62.8970890  45.2875660  39.3129850  62.4389070
  44.6389000  50.7775590  54.9450280  44.8930500  50.7396980  54.0229650
  43.6901480  50.6508920  54.9378530  52.3519570  36.4534290  63.0747430
  51.8493170  37.1939690  63.4141240  53.1676230  36.8418290  62.7584220
  50.6441580  41.6967470  56.5208790  49.7031720  41.7117700  56.6956480
  50.9585650  40.9103430  56.9669090  52.6467160  48.8676320  58.1963050
  52.7714580  49.6907490  58.6686860  53.5132720  48.6567050  57.8487200
  40.1184690  50.9607530  57.8680180  40.8547170  50.4122990  58.1388750
  40.5025610  51.8263540  57.7286170  39.1242970  50.1453600  67.0565760
  39.9255700  50.4665650  67.4701160  38.6094790  49.7849180  67.7785670
  43.2287000  50.1337840  49.6905750  44.0215610  50.4226670  49.2387540
  42.7091350  49.7030010  49.0118230  47.9607600  46.2533470  67.0041170
  47.3545760  46.2765070  66.2636920  47.6561710  45.5216510  67.5408420
  49.3907970  49.9813760  65.6150580  50.3429720  49.8971780  65.5650820
  49.2436190  50.6455470  66.2884370  52.2817170  49.3607970  51.1142490
  51.9958680  48.9473110  50.2996670  52.0836720  50.2895680  50.9943010
  36.8440780  42.6327060  66.0001810  37.3479800  42.0534340  66.5718040
  36.1048200  42.9167290  66.5378180  43.8978720  44.0398050  65.5337330
  43.1324390  44.6083050  65.4492000  44.0794680  43.7474260  64.6405560
  51.0402070  45.7703380  66.0912350  51.7811540  46.1079140  65.5879810
  50.2774750  45.9395440  65.5382120  38.8763860  40.7756650  66.8951880
  38.9169200  40.4770520  67.8037110  39.7309360  41.1764260  66.7359400
  40.8169670  39.3548750  64.8626370  40.2866130  38.8639700  64.2349710
  41.4857740  39.7832950  64.3284300  49.7147730  43.8218210  64.6267560
  50.1288750  43.9763290  65.4757980  48.7798730  43.9473430  64.7893340
  50.1869900  41.1614370  66.6306710  50.7690670  40.4066690  66.5427190
  50.3631670  41.6921810  65.8538190  41.3041970  36.3211120  64.9423660
  41.2098840  35.7031870  64.2174530  40.7239360  37.0477410  64.7153570
  44.0703410  34.8784360  61.9751050  43.6220710  34.9008620  61.1296600
  43.4368610  34.4803380  62.5721350  44.4762960  43.7738690  62.5963490
  44.8951070  44.6171420  62.4239730  43.5571590  43.9110730  62.3670270
  46.8126860  41.5054870  63.9801330  46.9323070  40.9096010  64.7196170
  47.6720860  41.5424560  63.5602630  49.1514760  42.0592060  62.5563840
  48.6249980  42.5834680  61.9528980  49.4946100  42.6919450  63.1873570
  42.3270380  50.0791700  63.7121220  41.7891470  50.8037760  63.3929920
  42.5804340  49.6022040  62.9218560  43.5795630  38.0476220  65.2377150
  44.1695320  37.7392070  65.9254970  42.7615870  37.5755970  65.3937050
  48.3989060  37.6642030  65.4710170  47.7104580  37.0023570  65.4060160
  49.1195080  37.2180300  65.9158630  45.1832590  51.3142910  63.9707870
  45.1091290  52.2178050  64.2780240  44.2811430  50.9954810  63.9429940
  45.7317920  50.4801420  51.5934230  46.6268710  50.8186390  51.6152990
  45.7635550  49.7580830  50.9658510  36.5859880  48.6417500  57.2741490
  36.9162890  47.7738560  57.0420130  37.0150880  48.8476020  58.1046450
  37.0750090  49.5088090  60.0123120  36.6381080  49.6888890  60.8447270
  37.6427770  50.2662710  59.8704840  52.7112270  49.0105090  64.3000430
  52.1114260  49.0697650  63.5564350  52.8406170  48.0710070  64.4297280
  53.9513720  46.7522910  49.6370140  53.1206680  46.8199560  50.1077370
  54.1285550  47.6427030  49.3337000  54.4130150  44.3520490  56.9846270
  54.7838980  43.5687810  56.5782240  55.0532080  45.0409590  56.8063570
  51.3963910  45.7357070  62.3976590  50.5823750  46.1654230  62.6602380
  51.8038110  46.3475480  61.7845640  37.9450450  42.4060890  60.9115340
  38.3123490  42.3188290  61.7911360  37.3761270  41.6427440  60.8122200
  52.7454310  40.8745270  63.9245810  52.5140400  40.6458020  63.0243760
  53.0058860  41.7944820  63.8790700  37.4966450  39.3169980  64.8173760
  36.6022500  39.2836740  65.1567470  38.0364000  39.5156770  65.5825010
  51.1842380  36.1001700  66.7025510  52.0612560  36.1085100  67.0859510
  51.1963220  35.3632540  66.0917860  52.6305650  39.9531240  57.5913530
  53.1543130  39.4593890  56.9603700  53.2165070  40.0881600  58.3361100
  52.8095370  40.0371110  61.1133080  51.8598080  40.0034650  61.2278070
  52.9908380  40.9471220  60.8782850  53.5492780  37.8465540  56.0643620
  53.4392060  37.6921580  57.0025890  54.3100370  37.3186480  55.8219030
  51.8958500  33.7859670  62.5226620  52.5330720  34.3993810  62.8885810
  52.0433390  33.8220330  61.5775850  54.4383050  35.6773460  49.3049760
  55.3632360  35.5454640  49.0968050  54.4158840  35.7566280  50.2586210
  54.5121540  36.4484120  51.9306470  53.7173040  36.3829240  52.4599380
  54.7164820  37.3834760  51.9191820  51.4539960  50.4875670  55.9244860
  52.0499030  50.1660240  55.2479280  51.7118110  50.0147490  56.7158130
  39.3602530  46.9193580  66.0735490  39.3172160  46.5486490  66.9549950
  39.4913540  47.8571150  66.2137310  43.0608560  48.4753170  61.6745210
  42.8199920  48.7427730  60.7875730  44.0011200  48.6458900  61.7296070
  45.2662980  34.9385860  65.4301720  45.2051870  35.5307690  66.1797130
  46.2063360  34.8311820  65.2851980  47.9037540  34.5955920  65.0694010
  48.5177950  34.9135210  64.4075090  48.4487100  34.1104510  65.6889870
  54.3212720  50.4947550  62.4755850  53.8271000  50.8916420  61.7582980
  53.7126010  49.8696760  62.8693130  38.4258800  33.2750180  65.1833070
  38.9741790  33.0938230  64.4199180  38.4914110  32.4844290  65.7189380
  39.1990560  49.8655830  63.1933270  38.6050880  49.7340530  63.9323310
  39.1914400  49.0293970  62.7275370  48.6445580  33.1588060  61.3963300
  47.7705420  33.4923170  61.1936230  48.5356330  32.6861240  62.2215170
  49.5517560  35.3658930  62.7805020  49.2230920  34.5510690  62.4006750
  50.4999860  35.3228740  62.6570710  52.0052170  51.1370970  59.7542590
  51.5455140  51.8886780  59.3800610  51.3764630  50.4177440  59.6957390
  38.8302790  47.2314210  62.1441310  38.1036850  46.6119500  62.0767260
  38.8911940  47.6254820  61.2739390  42.4347890  49.4459210  58.9290720
  42.9512910  48.8346570  58.4038980  43.0845270  49.9487990  59.4201730
  45.1743390  50.3367700  59.7559700  45.4621200  50.0822000  58.8792710
  45.6866610  49.7845060  60.3465270  50.9441470  34.7781000  58.3805300
  51.3849560  34.7226100  57.5326900  50.6749060  35.6939010  58.4515480
  52.8080040  34.4096240  56.3914120  52.7468440  33.4657460  56.2445140
  53.5872070  34.5176330  56.9367580  37.1132790  50.5488600  55.3538070
  36.9454830  49.9159280  56.0519960  36.2467300  50.7548000  55.0032260
  45.2415750  51.2583800  67.1227900  46.1683060  51.0228070  67.1663860
  45.2266180  52.0855800  66.6413930  53.4760810  50.8009370  54.1202150
  53.6513000  50.1147110  53.4763070  52.7782380  51.3256420  53.7278820
  42.4279360  33.9228550  66.8869780  42.1463630  34.4262150  66.1230600
  42.8099060  33.1250300  66.5211910  41.3188460  51.1904210  51.6737460
  42.0507280  50.9063490  51.1261350  41.5782130  50.9517490  52.5636840
  49.0294820  33.3382130  67.4650250  48.9160270  33.6576740  68.3601770
  49.8464560  33.7394640  67.1687530  51.8093310  50.4853660  66.9468940
  52.6018630  49.9902890  66.7394900  52.1026460  51.1643800  67.5544550
  50.3209290  36.1131630  36.8761690  51.1418910  35.6228200  36.9187170
  50.3543370  36.7029290  37.6293530  52.1733550  47.6707140  41.9116710
  51.4897070  48.3406250  41.9033380  52.7127840  47.8687790  41.1461570
  49.7092290  49.5151270  40.6261890  49.7219450  49.1113560  39.7584150
  49.1567510  50.2898560  40.5223320  51.0037710  46.2367490  35.7152060
  50.8934040  45.2941820  35.8401480  51.0005960  46.5983130  36.6014820
  50.5755280  43.4253110  35.5749800  49.9567700  43.0872660  34.9276100
  50.5579730  42.7812870  36.2828990  50.7081940  49.6496980  43.6796590
  50.2312500  50.4569170  43.4869200  50.0243730  48.9975310  43.8322800
  42.3366330  48.6281820  47.4523810  42.3081760  49.0324770  46.5852240
  42.1731300  47.6992180  47.2895410  52.3337120  33.9182730  30.8963590
  52.0209780  34.0109560  31.7962660  53.0949590  34.4963760  30.8461020
  54.2881150  49.4108920  48.7487980  54.7640870  49.8891810  49.4277060
  54.9088310  49.3426410  48.0233480  49.5285540  50.5905110  33.9066800
  49.3686680  50.3008050  34.8048630  49.3632250  49.8145240  33.3712030
  49.2311670  48.0992670  32.4664800  48.5376830  48.0969960  31.8067080
  49.9734530  47.6751990  32.0358970  48.7961600  49.7255380  36.5413290
  49.2518550  48.9444760  36.8551910  49.1354120  50.4362200  37.0854470
  46.8079350  35.3572760  34.1915300  45.9943960  34.8585930  34.1160610
  46.6141300  36.1971010  33.7751650  51.7942010  41.0404250  31.9557320
  51.7105730  41.4718470  31.1053760  52.5136200  41.5002600  32.3884140
  52.8229260  47.8946510  34.6839450  52.1805420  47.2402130  34.9583170
  52.4359920  48.3001600  33.9080120  51.2126640  46.7862970  31.2215800
  50.9864220  46.0693410  31.8140440  50.8222840  46.5375410  30.3837550
  36.9942670  50.8129830  31.9960260  37.3540310  51.4119170  31.3417530
  36.8535010  51.3589720  32.7695290  50.7942890  44.7034910  32.8829960
  50.5064590  45.1647600  33.6707840  51.5895060  44.2432680  33.1514180
  51.5512750  36.5383680  34.0425140  50.9225910  36.6429350  33.3283370
  51.0564670  36.7580460  34.8319020  45.9970890  48.2589270  31.4759120
  46.0982870  48.0553260  30.5461100  45.0972630  48.0047550  31.6806900
  52.6467160  48.8676320  39.4219560  52.7714580  49.6907490  39.8943370
  53.5132720  48.6567050  39.0743710  39.1242970  50.1453600  48.2822270
  39.9255700  50.4665650  48.6957670  38.6094790  49.7849180  49.0042180
  43.2287000  50.1337840  30.9162260  44.0215610  50.4226670  30.4644050
  42.7091350  49.7030010  30.2374740  49.3907970  49.9813760  46.8407090
  50.3429720  49.8971780  46.7907330  49.2436190  50.6455470  47.5140880
  52.2817170  49.3607970  32.3399000  51.9958680  48.9473110  31.5253180
  52.0836720  50.2895680  32.2199520  43.7464400  45.3541250  30.7804610
  43.6415040  44.7393600  31.5065990  43.5788620  44.8307140  29.9967620
  42.3270380  50.0791700  44.9377730  41.7891470  50.8037760  44.6186430
  42.5804340  49.6022040  44.1475070  49.0289460  34.2593660  32.7556940
  49.3091750  33.4161560  33.1116360  48.2555190  34.4916770  33.2695690
  45.1832590  51.3142910  45.1964380  45.1091290  52.2178050  45.5036750
  44.2811430  50.9954810  45.1686450  45.7317920  50.4801420  32.8190740
  46.6268710  50.8186390  32.8409500  45.7635550  49.7580830  32.1915020
  52.7112270  49.0105090  45.5256940  52.1114260  49.0697650  44.7820860
  52.8406170  48.0710070  45.6553790  53.9513720  46.7522910  30.8626650
  53.1206680  46.8199560  31.3333880  54.1285550  47.6427030  30.5593510
  53.4070180  43.4970390  33.3660850  54.1689090  44.0667040  33.4720540
  53.4224550  42.9297590  34.1369160  53.4589350  43.7904760  30.5233370
  53.7338190  44.6983640  30.3952590  53.2700090  43.7267290  31.4595360
  49.8564960  36.8149610  31.8187000  50.2749840  36.6280590  30.9783660
  49.5501020  35.9628660  32.1289930  53.3554690  41.7273750  35.5162800
  52.9798290  40.9601680  35.0844090  52.6257810  42.1096450  36.0037730
  52.1205620  39.2104590  34.7562450  52.6164740  38.9775460  35.5411330
  51.9221690  38.3716430  34.3400090  53.5492780  37.8465540  37.2900130
  53.4392060  37.6921580  38.2282400  54.3100370  37.3186480  37.0475540
  54.4383050  35.6773460  30.5306270  55.3632360  35.5454640  30.3224560
  54.4158840  35.7566280  31.4842720  54.5121540  36.4484120  33.1562980
  53.7173040  36.3829240  33.6855890  54.7164820  37.3834760  33.1448330
  51.4539960  50.4875670  37.1501370  52.0499030  50.1660240  36.4735790
  51.7118110  50.0147490  37.9414640  54.3212720  50.4947550  43.7012360
  53.8271000  50.8916420  42.9839490  53.7126010  49.8696760  44.0949640
  52.0052170  51.1370970  40.9799100  51.5455140  51.8886780  40.6057120
  51.3764630  50.4177440  40.9213900  51.9234200  33.5608660  33.5852100
  52.1184830  34.4592110  33.8519530  51.1364070  33.3295740  34.0785050
  45.2415750  51.2583800  48.3484410  46.1683060  51.0228070  48.3920370
  45.2266180  52.0855800  47.8670440  53.4760810  50.8009370  35.3458660
  53.6513000  50.1147110  34.7019580  52.7782380  51.3256420  34.9535330
  41.3188460  51.1904210  32.8993970  42.0507280  50.9063490  32.3517860
  41.5782130  50.9517490  33.7893350  51.8093310  50.4853660  48.1725450
  52.6018630  49.9902890  47.9651410  52.1026460  51.1643800  48.7801060
  47.9352970  41.3574600  19.0541500  47.8547020  40.4429210  18.7833210
  47.5217390  41.8541670  18.3481210  46.0671010  43.1353620  20.9350770
  45.2913110  42.6554060  21.2249340  46.7183940  42.4559270  20.7606930
  40.0836840  43.4473430  21.8126530  39.2521720  43.1922140  22.2123040
  40.6917820  43.5184200  22.5484450  50.0878440  47.5413810  19.7149900
  49.6259970  46.7701050  20.0437070  50.9003990  47.5679880  20.2202350
  40.0638100  47.4813520  22.0084550  40.3666140  46.5911260  21.8294770
  40.8081690  48.0383740  21.7806800  38.4928790  38.4075320  15.5968920
  37.6045490  38.7491290  15.4948800  38.7769980  38.2075640  14.7049750
  46.3141750  49.8271820  19.3353890  45.6953190  50.2829320  18.7648330
  47.1693530  49.9823280  18.9343590  45.5080000  45.8110810  20.9420930
  45.4388280  44.8700750  20.7810060  46.2699860  45.9012220  21.5143500
  46.5385170  38.6181190  21.1689860  46.9149990  37.7453070  21.0563530
  46.4404680  38.9539890  20.2780300  40.6690180  36.9906820  16.6307300
  40.7756930  37.8910550  16.9376060  39.7582540  36.9424790  16.3401950
  50.3209290  36.1131630  18.1018200  51.1418910  35.6228200  18.1443680
  50.3543370  36.7029290  18.8550040  42.5097910  39.9593190  20.9632480
  43.0176130  40.4574160  21.6037500  43.0411150  39.1828390  20.7871840
  54.6108840  38.1298380  24.6661830  53.9061010  38.5180090  24.1476940
  54.8766760  38.8248670  25.2682760  47.1805100  44.7111060  16.7285800
  46.5622370  45.1760510  16.1648520  47.6928350  45.4038540  17.1455310
  42.0436860  44.2386930  23.4069400  41.7106240  44.8655850  24.0490470
  42.2203540  44.7648810  22.6271070  50.5570770  38.0532010  20.8745740
  49.8526340  38.3416900  21.4548850  50.9182930  38.8632120  20.5145300
  41.2555960  46.2067730  25.2218580  41.8729960  46.8818810  24.9403030
  40.3949080  46.6155710  25.1306080  36.5488300  45.3967590  14.1025430
  36.1716280  45.8854690  13.3710330  36.8061370  46.0692870  14.7331960
  52.1733550  47.6707140  23.1373220  51.4897070  48.3406250  23.1289890
  52.7127840  47.8687790  22.3718080  53.6257690  37.4986800  21.2654950
  52.6782600  37.5325780  21.3970380  53.9507680  38.3125750  21.6504310
  49.7092290  49.5151270  21.8518400  49.7219450  49.1113560  20.9840660
  49.1567510  50.2898560  21.7479830  51.0037710  46.2367490  16.9408570
  50.8934040  45.2941820  17.0657990  51.0005960  46.5983130  17.8271330
  49.1077730  44.4181110  23.1801010  49.5246520  44.2041220  22.3454470
  49.8317550  44.6753900  23.7509630  46.5457990  41.8632810  16.2971060
  45.6187270  41.7970190  16.5259530  46.6982810  42.8012940  16.1826300
  46.5327070  38.1349810  13.2938220  45.5930740  38.2963770  13.3790680
  46.8510330  38.8535490  12.7474210  53.0539830  42.8168330  23.2717250
  52.2258460  42.8861420  22.7967380  53.6490310  43.4022640  22.8033080
  50.5755280  43.4253110  16.8006310  49.9567700  43.0872660  16.1532610
  50.5579730  42.7812870  17.5085500  50.0181840  39.6037650  24.2172120
  49.6053020  40.4291360  24.4712110  49.2857790  39.0182690  24.0248480
  42.1514630  42.3897550  19.0790790  41.7471630  41.6774800  18.5836690
  42.2377750  42.0450790  19.9678830  42.6196330  46.0765110  21.2430000
  42.3224620  45.4710580  20.5637780  43.5696150  46.1142420  21.1319360
  50.7081940  49.6496980  24.9053100  50.2312500  50.4569170  24.7125710
  50.0243730  48.9975310  25.0579310  41.7114760  45.8146800  27.8937800
  40.8143290  46.0386770  28.1411200  41.7367630  45.9381740  26.9449200
  48.7519980  42.6639920  13.8079060  49.1913260  41.8262350  13.6616880
  49.4648400  43.2969320  13.8943200  40.5385980  42.6860120  26.4695170
  40.3993750  43.5582920  26.8382570  39.6567340  42.3432930  26.3243110
  46.8615360  47.6035990  17.7760300  47.3011270  48.3460320  17.3615690
  46.8002250  47.8462560  18.6999260  42.3366330  48.6281820  28.6780320
  42.3081760  49.0324770  27.8108750  42.1731300  47.6992180  28.5151920
  52.3337120  33.9182730  12.1220100  52.0209780  34.0109560  13.0219170
  53.0949590  34.4963760  12.0717530  38.8519260  41.2842530  16.5797440
  38.7316860  42.0104620  15.9678710  38.5420150  40.5145440  16.1025350
  54.2881150  49.4108920  29.9744490  54.7640870  49.8891810  30.6533570
  54.9088310  49.3426410  29.2489990  36.4904630  44.4557670  22.3866080
  36.5685050  44.5906440  21.4421800  37.1046310  43.7473560  22.5794200
  37.7352260  46.1557860  18.7972260  37.3280340  46.2972450  17.9425860
  38.6265270  45.8718020  18.5943470  53.6914400  46.6021770  27.1344500
  53.8177460  46.3633650  26.2161680  53.7335780  45.7706310  27.6066580
  47.5531140  50.3049770  25.7039310  48.0675810  50.2157780  26.5061740
  46.7100220  50.6509470  25.9967220  49.5285540  50.5905110  15.1323310
  49.3686680  50.3008050  16.0305140  49.3632250  49.8145240  14.5968540
  42.0073920  50.3703640  16.9094930  41.8316400  49.4539180  16.6962730
  41.1529660  50.7290930  17.1492730  49.2311670  48.0992670  13.6921310
  48.5376830  48.0969960  13.0323590  49.9734530  47.6751990  13.2615480
  48.7961600  49.7255380  17.7669800  49.2518550  48.9444760  18.0808420
  49.1354120  50.4362200  18.3110980  53.5438410  38.6554230  28.0994240
  52.9282680  39.1633900  27.5709700  53.2234830  37.7552560  28.0420180
  36.5464150  45.4971840  24.9260540  36.7095190  45.0277200  24.1079910
  37.0116600  44.9895400  25.5909380  50.6057240  38.7155070  26.6953090
  49.7550830  38.4160820  27.0162160  50.4459030  38.9597080  25.7836910
  44.4341740  34.2488300  14.8426940  43.8095920  34.2448170  15.5680250
  44.3471860  33.3819260  14.4462910  41.1097140  39.7511170  17.6902360
  40.8838060  39.5348340  18.5948980  40.3289670  40.1839630  17.3448330
  48.3394900  39.7574540  16.2893010  47.7403790  40.4810340  16.1056630
  48.8874510  39.6951320  15.5069460  46.9459770  38.3938080  18.3196290
  47.3389340  38.7110280  17.5064980  47.3076620  37.5149960  18.4340810
  36.1694170  38.9259000  11.7529210  36.0868840  39.8689760  11.8944200
  35.8177230  38.7833910  10.8741560  47.5314910  40.9843830  22.4147070
  46.7996030  41.4930640  22.7637170  47.1339250  40.1673810  22.1135850
  44.0312450  38.6610110  13.8106320  44.1525270  38.6196590  14.7592140
  43.6460960  39.5234260  13.6553050  47.9940820  36.4377510  21.8270010
  48.0113560  36.8886160  22.6711860  47.7456400  35.5383150  22.0403450
  43.0433950  40.9711250  13.2089620  42.4750850  40.5229500  12.5825530
  43.7522950  41.3304030  12.6754770  51.4211570  33.8509690  27.6656390
  51.7457340  33.1199350  28.1914370  51.4568080  33.5323330  26.7637380
  38.1203130  44.8723270  27.0856350  37.7357920  44.2316940  27.6839310
  38.4315320  45.5759390  27.6551080  40.5881430  44.9669440  15.4816030
  39.8143690  44.4267060  15.3214750  41.3176060  44.4476050  15.1433790
  51.3469410  43.9634800  21.2742420  52.0668530  44.4590090  20.8838530
  51.1451230  43.2852690  20.6296290  46.8079350  35.3572760  15.4171810
  45.9943960  34.8585930  15.3417120  46.6141300  36.1971010  15.0008160
  46.7288210  44.0343860  27.1611420  46.6625520  43.1139530  26.9069010
  46.0993350  44.1319300  27.8756060  49.5227740  39.7292410  13.7133970
  50.4107360  40.0409640  13.5385310  49.4932830  38.8564660  13.3214550
  40.6318830  44.6349820  19.1194840  41.1497500  43.8318080  19.0651730
  40.1802850  44.5728960  19.9611670  45.5188330  45.9016100  14.3922140
  45.8604030  46.6458330  13.8965460  44.6901040  46.2147220  14.7546970
  46.6604940  46.8564430  26.9115220  46.6749480  45.9245390  26.6934130
  45.9530040  46.9424190  27.5504990  51.7942010  41.0404250  13.1813830
  51.7105730  41.4718470  12.3310270  52.5136200  41.5002600  13.6140650
  52.8716150  43.4971770  26.2583800  52.1464340  44.0900550  26.0613190
  53.3991610  43.4895310  25.4597170  52.8229260  47.8946510  15.9095960
  52.1805420  47.2402130  16.1839680  52.4359920  48.3001600  15.1336630
  48.4015740  45.2231940  19.7567650  48.7539560  44.6260070  19.0969020
  47.5178070  44.8976170  19.9275900  44.4879020  45.9829630  17.1638060
  45.1750150  46.5298840  17.5445650  43.7011440  46.5270360  17.1987670
  36.6271420  41.6002450  12.6555140  37.4966270  41.8827250  12.9391060
  36.1361740  42.4138320  12.5403950  43.7906230  42.9875660  16.7763420
  44.2469010  43.7980910  17.0023610  43.4394440  42.6698800  17.6081910
  46.0938840  48.4982000  24.0055720  46.7381060  48.7041380  24.6829140
  46.4568280  47.7370400  23.5526570  47.3670920  46.5014350  22.7233170
  48.0093150  45.8007510  22.8365340  47.8920270  47.2812790  22.5430060
  51.2126640  46.7862970  12.4472310  50.9864220  46.0693410  13.0396950
  50.8222840  46.5375410  11.6094060  49.1408540  47.3009250  25.9269230
  49.4764780  47.8875940  26.6047150  48.2208880  47.1701960  26.1567020
  36.9942670  50.8129830  13.2216770  37.3540310  51.4119170  12.5674040
  36.8535010  51.3589720  13.9951800  50.7942890  44.7034910  14.1086470
  50.5064590  45.1647600  14.8964350  51.5895060  44.2432680  14.3770690
  36.9784530  49.0784690  27.6959170  37.0875650  48.1379430  27.5554560
  36.3265090  49.3439440  27.0472900  44.9697120  47.3500580  29.0957290
  44.6493990  46.6309820  29.6402980  44.2955480  48.0255650  29.1693350
  43.0111290  48.1961030  14.0390440  43.0021390  48.9290720  13.4234950
  42.0909650  47.9492610  14.1317400  38.6117930  43.4175920  14.7837200
  38.0045880  44.1574820  14.7932500  39.0867280  43.5075280  13.9575400
  51.5512750  36.5383680  15.2681650  50.9225910  36.6429350  14.5539880
  51.0564670  36.7580460  16.0575530  45.9970890  48.2589270  12.7015630
  46.0982870  48.0553260  11.7717610  45.0972630  48.0047550  12.9063410
  43.5196780  38.8169630  16.6839530  42.8112930  39.2855970  17.1253140
  43.8041260  38.1591640  17.3184720  47.5512210  35.5420290  18.1235320
  47.4279990  35.5606420  17.1744830  48.4996770  35.5899230  18.2433720
  44.6389000  50.7775590  17.3963300  44.8930500  50.7396980  16.4742670
  43.6901480  50.6508920  17.3891550  41.7231800  37.1254710  14.0590240
  42.5722330  37.5624860  13.9930430  41.3563070  37.4374970  14.8862300
  52.3519570  36.4534290  25.5260450  51.8493170  37.1939690  25.8654260
  53.1676230  36.8418290  25.2097240  50.6441580  41.6967470  18.9721810
  49.7031720  41.7117700  19.1469500  50.9585650  40.9103430  19.4182110
  40.6223220  43.3787070  12.5325770  41.3886490  43.2668430  13.0951200
  40.6997910  42.6825040  11.8802540  39.3169980  40.8112140  13.2158660
  39.3973570  39.8639650  13.3276060  40.2089730  41.1419020  13.3219320
  52.6467160  48.8676320  20.6476070  52.7714580  49.6907490  21.1199880
  53.5132720  48.6567050  20.3000220  40.1184690  50.9607530  20.3193200
  40.8547170  50.4122990  20.5901770  40.5025610  51.8263540  20.1799190
  37.0030170  47.0281100  16.1934710  36.0769950  47.2702240  16.1840120
  37.4686600  47.8555360  16.0719460  39.1242970  50.1453600  29.5078780
  39.9255700  50.4665650  29.9214180  38.6094790  49.7849180  30.2298690
  43.2287000  50.1337840  12.1418770  44.0215610  50.4226670  11.6900560
  42.7091350  49.7030010  11.4631250  47.9607600  46.2533470  29.4554190
  47.3545760  46.2765070  28.7149940  47.6561710  45.5216510  29.9921440
  49.3907970  49.9813760  28.0663600  50.3429720  49.8971780  28.0163840
  49.2436190  50.6455470  28.7397390  52.2817170  49.3607970  13.5655510
  51.9958680  48.9473110  12.7509690  52.0836720  50.2895680  13.4456030
  43.7464400  45.3541250  12.0061120  43.6415040  44.7393600  12.7322500
  43.5788620  44.8307140  11.2224130  43.8978720  44.0398050  27.9850350
  43.1324390  44.6083050  27.9005020  44.0794680  43.7474260  27.0918580
  46.9867130  44.4161280  12.6103110  46.4377230  44.8630580  13.2545850
  47.6086390  43.9110530  13.1340780  51.0402070  45.7703380  28.5425370
  51.7811540  46.1079140  28.0392830  50.2774750  45.9395440  27.9895140
  42.6542250  43.3752200  14.5068410  43.0758670  43.2092070  15.3499800
  42.7793090  42.5652430  14.0123550  45.1669890  42.3989810  11.7545510
  45.6875550  41.6838830  11.3886660  45.8138290  43.0375680  12.0546020
  49.7147730  43.8218210  27.0780580  50.1288750  43.9763290  27.9271000
  48.7798730  43.9473430  27.2406360  50.1869900  41.1614370  29.0819730
  50.7690670  40.4066690  28.9940210  50.3631670  41.6921810  28.3051210
  44.4762960  43.7738690  25.0476510  44.8951070  44.6171420  24.8752750
  43.5571590  43.9110730  24.8183290  46.8126860  41.5054870  26.4314350
  46.9323070  40.9096010  27.1709190  47.6720860  41.5424560  26.0115650
  49.1514760  42.0592060  25.0076860  48.6249980  42.5834680  24.4042000
  49.4946100  42.6919450  25.6386590  41.5501150  39.4485430  11.4526570
  41.3490210  38.5852790  11.8139910  41.3793200  39.3618790  10.5148170
  42.3270380  50.0791700  26.1634240  41.7891470  50.8037760  25.8442940
  42.5804340  49.6022040  25.3731580  48.3989060  37.6642030  27.9223190
  47.7104580  37.0023570  27.8573180  49.1195080  37.2180300  28.3671650
  49.0289460  34.2593660  13.9813450  49.3091750  33.4161560  14.3372870
  48.2555190  34.4916770  14.4952200  40.3483950  36.5486050  11.4404450
  40.6509850  36.5553480  10.5323600  41.0878540  36.1983910  11.9372110
  45.1832590  51.3142910  26.4220890  45.1091290  52.2178050  26.7293260
  44.2811430  50.9954810  26.3942960  43.5668880  35.4920670  12.4260650
  43.2190880  34.8144660  11.8463100  43.7681650  35.0310180  13.2404040
  45.7317920  50.4801420  14.0447250  46.6268710  50.8186390  14.0666010
  45.7635550  49.7580830  13.4171530  39.3714080  45.8528470  12.2734250
  39.8088950  46.3958140  12.9291830  39.8561810  45.0275420  12.2830590
  36.5859880  48.6417500  19.7254510  36.9162890  47.7738560  19.4933150
  37.0150880  48.8476020  20.5559470  41.1821800  46.9726510  17.3856480
  40.8817340  46.8491480  18.2860390  41.0759290  46.1135100  16.9772210
  37.0750090  49.5088090  22.4636140  36.6381080  49.6888890  23.2960290
  37.6427770  50.2662710  22.3217860  52.7112270  49.0105090  26.7513450
  52.1114260  49.0697650  26.0077370  52.8406170  48.0710070  26.8810300
  53.9513720  46.7522910  12.0883160  53.1206680  46.8199560  12.5590390
  54.1285550  47.6427030  11.7850020  53.4070180  43.4970390  14.5917360
  54.1689090  44.0667040  14.6977050  53.4224550  42.9297590  15.3625670
  36.9074520  42.0208320  18.8225020  36.2523360  41.7519960  18.1784720
  37.7452470  41.9112800  18.3727000  54.4130150  44.3520490  19.4359290
  54.7838980  43.5687810  19.0295260  55.0532080  45.0409590  19.2576590
  51.3963910  45.7357070  24.8489610  50.5823750  46.1654230  25.1115400
  51.8038110  46.3475480  24.2358660  53.4589350  43.7904760  11.7489880
  53.7338190  44.6983640  11.6209100  53.2700090  43.7267290  12.6851870
  49.8564960  36.8149610  13.0443510  50.2749840  36.6280590  12.2040170
  49.5501020  35.9628660  13.3546440  53.3554690  41.7273750  16.7419310
  52.9798290  40.9601680  16.3100600  52.6257810  42.1096450  17.2294240
  37.9450450  42.4060890  23.3628360  38.3123490  42.3188290  24.2424380
  37.3761270  41.6427440  23.2635220  52.7454310  40.8745270  26.3758830
  52.5140400  40.6458020  25.4756780  53.0058860  41.7944820  26.3303720
  51.1842380  36.1001700  29.1538530  52.0612560  36.1085100  29.5372530
  51.1963220  35.3632540  28.5430880  36.1212600  39.2307250  14.7650350
  35.2176680  39.4937450  14.5902010  36.6053220  39.5018420  13.9850310
  52.6305650  39.9531240  20.0426550  53.1543130  39.4593890  19.4116720
  53.2165070  40.0881600  20.7874120  52.8095370  40.0371110  23.5646100
  51.8598080  40.0034650  23.6791090  52.9908380  40.9471220  23.3295870
  38.6639810  38.2872790  12.6744730  39.3731510  37.8656010  12.1892010
  37.9479750  38.3548020  12.0428080  38.3113970  34.3412120  11.7147380
  39.0342100  34.8821060  12.0328600  38.5838490  34.0675540  10.8388920
  52.1205620  39.2104590  15.9818960  52.6164740  38.9775460  16.7667840
  51.9221690  38.3716430  15.5656600  53.5492780  37.8465540  18.5156640
  53.4392060  37.6921580  19.4538910  54.3100370  37.3186480  18.2732050
  51.8958500  33.7859670  24.9739640  52.5330720  34.3993810  25.3398830
  52.0433390  33.8220330  24.0288870  54.4383050  35.6773460  11.7562780
  55.3632360  35.5454640  11.5481070  54.4158840  35.7566280  12.7099230
  54.5121540  36.4484120  14.3819490  53.7173040  36.3829240  14.9112400
  54.7164820  37.3834760  14.3704840  51.4539960  50.4875670  18.3757880
  52.0499030  50.1660240  17.6992300  51.7118110  50.0147490  19.1671150
  39.3602530  46.9193580  28.5248510  39.3172160  46.5486490  29.4062970
  39.4913540  47.8571150  28.6650330  43.0608560  48.4753170  24.1258230
  42.8199920  48.7427730  23.2388750  44.0011200  48.6458900  24.1809090
  47.9037540  34.5955920  27.5207030  48.5177950  34.9135210  26.8588110
  48.4487100  34.1104510  28.1402890  54.3212720  50.4947550  24.9268870
  53.8271000  50.8916420  24.2096000  53.7126010  49.8696760  25.3206150
  39.1990560  49.8655830  25.6446290  38.6050880  49.7340530  26.3836330
  39.1914400  49.0293970  25.1788390  48.6445580  33.1588060  23.8476320
  47.7705420  33.4923170  23.6449250  48.5356330  32.6861240  24.6728190
  49.5517560  35.3658930  25.2318040  49.2230920  34.5510690  24.8519770
  50.4999860  35.3228740  25.1083730  52.0052170  51.1370970  22.2055610
  51.5455140  51.8886780  21.8313630  51.3764630  50.4177440  22.1470410
  38.8302790  47.2314210  24.5954330  38.1036850  46.6119500  24.5280280
  38.8911940  47.6254820  23.7252410  42.4347890  49.4459210  21.3803740
  42.9512910  48.8346570  20.8552000  43.0845270  49.9487990  21.8714750
  45.1743390  50.3367700  22.2072720  45.4621200  50.0822000  21.3305730
  45.6866610  49.7845060  22.7978290  50.9441470  34.7781000  20.8318320
  51.3849560  34.7226100  19.9839920  50.6749060  35.6939010  20.9028500
  52.8080040  34.4096240  18.8427140  52.7468440  33.4657460  18.6958160
  53.5872070  34.5176330  19.3880600  37.1132790  50.5488600  17.8051090
  36.9454830  49.9159280  18.5032980  36.2467300  50.7548000  17.4545280
  37.7360810  34.3805380  15.3082950  38.4940170  34.4934260  14.7346980
  37.2737980  35.2174580  15.2626380  44.2774620  36.4944650  18.2985260
  43.4649130  36.1201540  17.9581140  44.7816260  35.7389730  18.6006450
  48.7799600  33.1587100  19.5368330  49.3828970  33.7307310  20.0116850
  48.0392590  33.7226540  19.3142230  51.9234200  33.5608660  14.8108610
  52.1184830  34.4592110  15.0776040  51.1364070  33.3295740  15.3041560
  38.7195490  49.2421830  15.2501230  38.1943110  49.6229860  14.5463190
  38.6440070  49.8672600  15.9710940  40.1085960  34.9069430  13.8484920
  40.6378720  34.1199230  13.7192870  40.7414280  35.5860620  14.0820450
  42.3023800  34.6444570  16.9030310  41.6726540  33.9431880  17.0700440
  41.7628940  35.4048700  16.6863470  45.2415750  51.2583800  29.5740920
  46.1683060  51.0228070  29.6176880  45.2266180  52.0855800  29.0926950
  53.4760810  50.8009370  16.5715170  53.6513000  50.1147110  15.9276090
  52.7782380  51.3256420  16.1791840  41.3188460  51.1904210  14.1250480
  42.0507280  50.9063490  13.5774370  41.5782130  50.9517490  15.0149860
  40.4803250  47.3068940  14.1296810  39.8512130  47.7754040  14.6782640
  40.5951080  46.4618160  14.5643000  49.0294820  33.3382130  29.9163270
  48.9160270  33.6576740  30.8114790  49.8464560  33.7394640  29.6200550
  51.8093310  50.4853660  29.3981960  52.6018630  49.9902890  29.1907920
  52.1026460  51.1643800  30.0057570  46.0671010  43.1353620   2.1607280
  45.2913110  42.6554060   2.4505850  46.7183940  42.4559270   1.9863440
  40.0836840  43.4473430   3.0383040  39.2521720  43.1922140   3.4379550
  40.6917820  43.5184200   3.7740960  40.0638100  47.4813520   3.2341060
  40.3666140  46.5911260   3.0551280  40.8081690  48.0383740   3.0063310
  36.4561800  41.0080970   2.7065130  37.0277910  40.2403170   2.7068770
  36.4563340  41.3069730   1.7971740  45.5080000  45.8110810   2.1677440
  45.4388280  44.8700750   2.0066570  46.2699860  45.9012220   2.7400010
  37.6986670  36.4165330   4.4934060  37.5189510  35.5191080   4.7736820
  37.2966750  36.9637200   5.1681010  38.3173340  38.9125830   3.1016400
  38.9983450  39.1764200   3.7203800  38.0021390  38.0726700   3.4354410
  42.5097910  39.9593190   2.1888990  43.0176130  40.4574160   2.8294010
  43.0411150  39.1828390   2.0128350  54.6108840  38.1298380   5.8918340
  53.9061010  38.5180090   5.3733450  54.8766760  38.8248670   6.4939270
  40.7934010  34.5991750   6.4552410  40.7952450  35.1164140   5.6498310
  39.9638320  34.1221930   6.4322340  42.0436860  44.2386930   4.6325910
  41.7106240  44.8655850   5.2746980  42.2203540  44.7648810   3.8527580
  50.5570770  38.0532010   2.1002250  49.8526340  38.3416900   2.6805360
  50.9182930  38.8632120   1.7401810  40.4749340  36.3101710   4.4622860
  40.8166150  37.1543760   4.1676730  39.5365150  36.4585450   4.5788200
  41.2555960  46.2067730   6.4475090  41.8729960  46.8818810   6.1659540
  40.3949080  46.6155710   6.3562590  52.1733550  47.6707140   4.3629730
  51.4897070  48.3406250   4.3546400  52.7127840  47.8687790   3.5974590
  53.6257690  37.4986800   2.4911460  52.6782600  37.5325780   2.6226890
  53.9507680  38.3125750   2.8760820  49.7092290  49.5151270   3.0774910
  49.7219450  49.1113560   2.2097170  49.1567510  50.2898560   2.9736340
  49.1077730  44.4181110   4.4057520  49.5246520  44.2041220   3.5710980
  49.8317550  44.6753900   4.9766140  53.0539830  42.8168330   4.4973760
  52.2258460  42.8861420   4.0223890  53.6490310  43.4022640   4.0289590
  50.0181840  39.6037650   5.4428630  49.6053020  40.4291360   5.6968620
  49.2857790  39.0182690   5.2504990  42.6196330  46.0765110   2.4686510
  42.3224620  45.4710580   1.7894290  43.5696150  46.1142420   2.3575870
  40.8643250  39.1640760   4.0846340  41.4157840  39.2736100   3.3099590
  41.3786760  39.5378360   4.8001570  50.7081940  49.6496980   6.1309610
  50.2312500  50.4569170   5.9382220  50.0243730  48.9975310   6.2835820
  41.7114760  45.8146800   9.1194310  40.8143290  46.0386770   9.3667710
  41.7367630  45.9381740   8.1705710  40.5385980  42.6860120   7.6951680
  40.3993750  43.5582920   8.0639080  39.6567340  42.3432930   7.5499620
  42.3366330  48.6281820   9.9036830  42.3081760  49.0324770   9.0365260
  42.1731300  47.6992180   9.7408430  54.2881150  49.4108920  11.2001000
  54.7640870  49.8891810  11.8790080  54.9088310  49.3426410  10.4746500
  36.4904630  44.4557670   3.6122590  36.5685050  44.5906440   2.6678310
  37.1046310  43.7473560   3.8050710  53.6914400  46.6021770   8.3601010
  53.8177460  46.3633650   7.4418190  53.7335780  45.7706310   8.8323090
  47.5531140  50.3049770   6.9295820  48.0675810  50.2157780   7.7318250
  46.7100220  50.6509470   7.2223730  53.5438410  38.6554230   9.3250750
  52.9282680  39.1633900   8.7966210  53.2234830  37.7552560   9.2676690
  36.5464150  45.4971840   6.1517050  36.7095190  45.0277200   5.3336420
  37.0116600  44.9895400   6.8165890  45.6052730  37.4946120   6.7912940
  45.1432100  37.7029140   7.6032880  45.2030840  36.6805470   6.4883610
  50.6057240  38.7155070   7.9209600  49.7550830  38.4160820   8.2418670
  50.4459030  38.9597080   7.0093420  47.7006950  40.2156820  10.0208390
  48.0260360  39.3820570   9.6810620  48.4887280  40.7385340  10.1686720
  43.3558820  35.1724930   3.0467220  43.6531150  36.0787760   2.9659240
  43.9044380  34.6843710   2.4326790  43.5496350  40.6496750   9.5819140
  43.4539950  39.7091480   9.4319540  44.3928330  40.8711820   9.1867210
  38.6806890  37.0610420   7.7352920  38.2870280  37.9085630   7.9425700
  37.9925290  36.4236790   7.9261560  45.2551940  37.1445390  10.8049660
  44.5650260  36.9517590  11.4395750  45.9984240  37.4280030  11.3373960
  35.9823940  34.9838880   1.7683000  35.6936990  35.5541740   2.4807980
  36.7269700  34.5043330   2.1314230  47.5314910  40.9843830   3.6403580
  46.7996030  41.4930640   3.9893680  47.1339250  40.1673810   3.3392360
  47.9940820  36.4377510   3.0526520  48.0113560  36.8886160   3.8968370
  47.7456400  35.5383150   3.2659960  51.4211570  33.8509690   8.8912900
  51.7457340  33.1199350   9.4170880  51.4568080  33.5323330   7.9893890
  38.1203130  44.8723270   8.3112860  37.7357920  44.2316940   8.9095820
  38.4315320  45.5759390   8.8807590  44.2700270  41.7199810   3.7921480
  44.6370400  41.2458380   4.5382820  44.0805330  42.5941380   4.1329820
  42.0599640  40.7608450   6.1105690  41.7556710  41.6400430   6.3356050
  43.0146100  40.8208240   6.1463130  51.3469410  43.9634800   2.4998930
  52.0668530  44.4590090   2.1095040  51.1451230  43.2852690   1.8552800
  46.7288210  44.0343860   8.3867930  46.6625520  43.1139530   8.1325520
  46.0993350  44.1319300   9.1012570  38.1163370  41.6011190   7.2577050
  37.7578310  42.2665040   7.8450390  37.8217930  40.7694740   7.6289670
  41.3176490  42.0595430  10.1416600  41.0176630  42.2052610   9.2444420
  42.0887730  41.5000720  10.0489990  46.6604940  46.8564430   8.1371730
  46.6749480  45.9245390   7.9190640  45.9530040  46.9424190   8.7761500
  52.8716150  43.4971770   7.4840310  52.1464340  44.0900550   7.2869700
  53.3991610  43.4895310   6.6853680  46.0938840  48.4982000   5.2312230
  46.7381060  48.7041380   5.9085650  46.4568280  47.7370400   4.7783080
  47.3670920  46.5014350   3.9489680  48.0093150  45.8007510   4.0621850
  47.8920270  47.2812790   3.7686570  49.1408540  47.3009250   7.1525740
  49.4764780  47.8875940   7.8303660  48.2208880  47.1701960   7.3823530
  36.6911940  35.0904430   7.9349150  35.9770460  35.2901350   8.5401760
  37.1106980  34.3144000   8.3063950  36.9784530  49.0784690   8.9215680
  37.0875650  48.1379430   8.7811070  36.3265090  49.3439440   8.2729410
  44.9697120  47.3500580  10.3213800  44.6493990  46.6309820  10.8659490
  44.2955480  48.0255650  10.3949860  48.1850720  37.5826740   5.6850600
  48.5531540  36.7621950   6.0130170  47.3248920  37.6428630   6.1006250
  45.1452710  40.2366330   5.9088570  45.6437960  40.7112150   6.5740420
  45.2875660  39.3129850   6.1158600  52.3519570  36.4534290   6.7516960
  51.8493170  37.1939690   7.0910770  53.1676230  36.8418290   6.4353750
  39.1242970  50.1453600  10.7335290  39.9255700  50.4665650  11.1470690
  38.6094790  49.7849180  11.4555200  47.9607600  46.2533470  10.6810700
  47.3545760  46.2765070   9.9406450  47.6561710  45.5216510  11.2177950
  49.3907970  49.9813760   9.2920110  50.3429720  49.8971780   9.2420350
  49.2436190  50.6455470   9.9653900  36.8440780  42.6327060   9.6771340
  37.3479800  42.0534340  10.2487570  36.1048200  42.9167290  10.2147710
  43.8978720  44.0398050   9.2106860  43.1324390  44.6083050   9.1261530
  44.0794680  43.7474260   8.3175090  51.0402070  45.7703380   9.7681880
  51.7811540  46.1079140   9.2649340  50.2774750  45.9395440   9.2151650
  38.8763860  40.7756650  10.5721410  38.9169200  40.4770520  11.4806640
  39.7309360  41.1764260  10.4128930  40.8169670  39.3548750   8.5395900
  40.2866130  38.8639700   7.9119240  41.4857740  39.7832950   8.0053830
  49.7147730  43.8218210   8.3037090  50.1288750  43.9763290   9.1527510
  48.7798730  43.9473430   8.4662870  50.1869900  41.1614370  10.3076240
  50.7690670  40.4066690  10.2196720  50.3631670  41.6921810   9.5307720
  41.3041970  36.3211120   8.6193190  41.2098840  35.7031870   7.8944060
  40.7239360  37.0477410   8.3923100  44.0703410  34.8784360   5.6520580
  43.6220710  34.9008620   4.8066130  43.4368610  34.4803380   6.2490880
  44.4762960  43.7738690   6.2733020  44.8951070  44.6171420   6.1009260
  43.5571590  43.9110730   6.0439800  46.8126860  41.5054870   7.6570860
  46.9323070  40.9096010   8.3965700  47.6720860  41.5424560   7.2372160
  49.1514760  42.0592060   6.2333370  48.6249980  42.5834680   5.6298510
  49.4946100  42.6919450   6.8643100  42.3270380  50.0791700   7.3890750
  41.7891470  50.8037760   7.0699450  42.5804340  49.6022040   6.5988090
  43.5795630  38.0476220   8.9146680  44.1695320  37.7392070   9.6024500
  42.7615870  37.5755970   9.0706580  48.3989060  37.6642030   9.1479700
  47.7104580  37.0023570   9.0829690  49.1195080  37.2180300   9.5928160
  45.1832590  51.3142910   7.6477400  45.1091290  52.2178050   7.9549770
  44.2811430  50.9954810   7.6199470  37.0750090  49.5088090   3.6892650
  36.6381080  49.6888890   4.5216800  37.6427770  50.2662710   3.5474370
  52.7112270  49.0105090   7.9769960  52.1114260  49.0697650   7.2333880
  52.8406170  48.0710070   8.1066810  51.3963910  45.7357070   6.0746120
  50.5823750  46.1654230   6.3371910  51.8038110  46.3475480   5.4615170
  37.9450450  42.4060890   4.5884870  38.3123490  42.3188290   5.4680890
  37.3761270  41.6427440   4.4891730  52.7454310  40.8745270   7.6015340
  52.5140400  40.6458020   6.7013290  53.0058860  41.7944820   7.5560230
  37.4966450  39.3169980   8.4943290  36.6022500  39.2836740   8.8337000
  38.0364000  39.5156770   9.2594540  51.1842380  36.1001700  10.3795040
  52.0612560  36.1085100  10.7629040  51.1963220  35.3632540   9.7687390
  52.8095370  40.0371110   4.7902610  51.8598080  40.0034650   4.9047600
  52.9908380  40.9471220   4.5552380  38.0006160  33.5918310   2.8426510
  38.6482350  33.0415690   2.4021670  38.4208000  33.8461460   3.6642320
  51.8958500  33.7859670   6.1996150  52.5330720  34.3993810   6.5655340
  52.0433390  33.8220330   5.2545380  37.7538160  33.7473980   5.5851830
  37.4052980  34.2037800   6.3510010  37.4225860  32.8531110   5.6674260
  39.3602530  46.9193580   9.7505020  39.3172160  46.5486490  10.6319480
  39.4913540  47.8571150   9.8906840  43.0608560  48.4753170   5.3514740
  42.8199920  48.7427730   4.4645260  44.0011200  48.6458900   5.4065600
  45.2662980  34.9385860   9.1071250  45.2051870  35.5307690   9.8566660
  46.2063360  34.8311820   8.9621510  47.9037540  34.5955920   8.7463540
  48.5177950  34.9135210   8.0844620  48.4487100  34.1104510   9.3659400
  54.3212720  50.4947550   6.1525380  53.8271000  50.8916420   5.4352510
  53.7126010  49.8696760   6.5462660  38.4258800  33.2750180   8.8602600
  38.9741790  33.0938230   8.0968710  38.4914110  32.4844290   9.3958910
  39.1990560  49.8655830   6.8702800  38.6050880  49.7340530   7.6092840
  39.1914400  49.0293970   6.4044900  48.6445580  33.1588060   5.0732830
  47.7705420  33.4923170   4.8705760  48.5356330  32.6861240   5.8984700
  49.5517560  35.3658930   6.4574550  49.2230920  34.5510690   6.0776280
  50.4999860  35.3228740   6.3340240  52.0052170  51.1370970   3.4312120
  51.5455140  51.8886780   3.0570140  51.3764630  50.4177440   3.3726920
  38.8302790  47.2314210   5.8210840  38.1036850  46.6119500   5.7536790
  38.8911940  47.6254820   4.9508920  42.4347890  49.4459210   2.6060250
  42.9512910  48.8346570   2.0808510  43.0845270  49.9487990   3.0971260
  45.1743390  50.3367700   3.4329230  45.4621200  50.0822000   2.5562240
  45.6866610  49.7845060   4.0234800  46.3920400  34.0757900   4.0125740
  45.6092190  34.5503400   4.2922500  46.0983330  33.1712730   3.9038920
  45.2415750  51.2583800  10.7997430  46.1683060  51.0228070  10.8433390
  45.2266180  52.0855800  10.3183460  42.4279360  33.9228550  10.5639310
  42.1463630  34.4262150   9.8000130  42.8099060  33.1250300  10.1981440
  49.0294820  33.3382130  11.1419780  48.9160270  33.6576740  12.0371300
  49.8464560  33.7394640  10.8457060  51.8093310  50.4853660  10.6238470
  52.6018630  49.9902890  10.4164430  52.1026460  51.1643800  11.2314080
  47.9352970  22.5831110  75.3771970  47.8547020  21.6685720  75.1063680
  47.5217390  23.0798180  74.6711680  50.0878440  28.7670320  76.0380370
  49.6259970  27.9957560  76.3667540  50.9003990  28.7936390  76.5432820
  38.4928790  19.6331830  71.9199390  37.6045490  19.9747800  71.8179270
  38.7769980  19.4332150  71.0280220  46.3141750  31.0528330  75.6584360
  45.6953190  31.5085830  75.0878800  47.1693530  31.2079790  75.2574060
  40.6690180  18.2163330  72.9537770  40.7756930  19.1167060  73.2606530
  39.7582540  18.1681300  72.6632420  50.3209290  17.3388140  74.4248670
  51.1418910  16.8484710  74.4674150  50.3543370  17.9285800  75.1780510
  47.1805100  25.9367570  73.0516270  46.5622370  26.4017020  72.4878990
  47.6928350  26.6295050  73.4685780  36.5488300  26.6224100  70.4255900
  36.1716280  27.1111200  69.6940800  36.8061370  27.2949380  71.0562430
  44.1577230  15.0240490  75.8841410  44.4652210  14.4687380  75.1676910
  43.2277930  15.1584950  75.7014400  51.0037710  27.4624000  73.2639040
  50.8934040  26.5198330  73.3888460  51.0005960  27.8239640  74.1501800
  46.5457990  23.0889320  72.6201530  45.6187270  23.0226700  72.8490000
  46.6982810  24.0269450  72.5056770  46.5327070  19.3606320  69.6168690
  45.5930740  19.5220280  69.7021150  46.8510330  20.0792000  69.0704680
  50.5755280  24.6509620  73.1236780  49.9567700  24.3129170  72.4763080
  50.5579730  24.0069380  73.8315970  42.1514630  23.6154060  75.4021260
  41.7471630  22.9031310  74.9067160  42.2377750  23.2707300  76.2909300
  48.7519980  23.8896430  70.1309530  49.1913260  23.0518860  69.9847350
  49.4648400  24.5225830  70.2173670  46.8615360  28.8292500  74.0990770
  47.3011270  29.5716830  73.6846160  46.8002250  29.0719070  75.0229730
  52.3337120  15.1439240  68.4450570  52.0209780  15.2366070  69.3449640
  53.0949590  15.7220270  68.3948000  38.8519260  22.5099040  72.9027910
  38.7316860  23.2361130  72.2909180  38.5420150  21.7401950  72.4255820
  37.7352260  27.3814370  75.1202730  37.3280340  27.5228960  74.2656330
  38.6265270  27.0974530  74.9173940  49.5285540  31.8161620  71.4553780
  49.3686680  31.5264560  72.3535610  49.3632250  31.0401750  70.9199010
  42.0073920  31.5960150  73.2325400  41.8316400  30.6795690  73.0193200
  41.1529660  31.9547440  73.4723200  49.2311670  29.3249180  70.0151780
  48.5376830  29.3226470  69.3554060  49.9734530  28.9008500  69.5845950
  48.7961600  30.9511890  74.0900270  49.2518550  30.1701270  74.4038890
  49.1354120  31.6618710  74.6341450  41.3182920  15.8534110  76.2851580
  40.8751070  16.6343650  75.9536100  41.8767910  16.1764000  76.9922520
  44.4341740  15.4744810  71.1657410  43.8095920  15.4704680  71.8910720
  44.3471860  14.6075770  70.7693380  41.1097140  20.9767680  74.0132830
  40.8838060  20.7604850  74.9179450  40.3289670  21.4096140  73.6678800
  48.3394900  20.9831050  72.6123480  47.7403790  21.7066850  72.4287100
  48.8874510  20.9207830  71.8299930  46.9459770  19.6194590  74.6426760
  47.3389340  19.9366790  73.8295450  47.3076620  18.7406470  74.7571280
  36.1694170  20.1515510  68.0759680  36.0868840  21.0946270  68.2174670
  35.8177230  20.0090420  67.1972030  39.8194680  18.7681030  76.1024240
  39.4794730  19.2456260  76.8591290  39.0572000  18.3146150  75.7425340
  44.0312450  19.8866620  70.1336790  44.1525270  19.8453100  71.0822610
  43.6460960  20.7490770  69.9783520  43.0433950  22.1967760  69.5320090
  42.4750850  21.7486010  68.9056000  43.7522950  22.5560540  68.9985240
  37.1340760  17.6900010  75.0188910  36.8487680  17.3255680  75.8567530
  37.0719620  16.9580470  74.4052050  40.5881430  26.1925950  71.8046500
  39.8143690  25.6523570  71.6445220  41.3176060  25.6732560  71.4664260
  46.8079350  16.5829270  71.7402280  45.9943960  16.0842440  71.6647590
  46.6141300  17.4227520  71.3238630  49.5227740  20.9548920  70.0364440
  50.4107360  21.2666150  69.8615780  49.4932830  20.0821170  69.6445020
  40.6318830  25.8606330  75.4425310  41.1497500  25.0574590  75.3882200
  40.1802850  25.7985470  76.2842140  45.5188330  27.1272610  70.7152610
  45.8604030  27.8714840  70.2195930  44.6901040  27.4403730  71.0777440
  51.7942010  22.2660760  69.5044300  51.7105730  22.6974980  68.6540740
  52.5136200  22.7259110  69.9371120  52.8229260  29.1203020  72.2326430
  52.1805420  28.4658640  72.5070150  52.4359920  29.5258110  71.4567100
  48.4015740  26.4488450  76.0798120  48.7539560  25.8516580  75.4199490
  47.5178070  26.1232680  76.2506370  44.4879020  27.2086140  73.4868530
  45.1750150  27.7555350  73.8676120  43.7011440  27.7526870  73.5218140
  36.6271420  22.8258960  68.9785610  37.4966270  23.1083760  69.2621530
  36.1361740  23.6394830  68.8634420  43.7906230  24.2132170  73.0993890
  44.2469010  25.0237420  73.3254080  43.4394440  23.8955310  73.9312380
  39.6918010  14.5569820  73.5716410  39.5632640  14.5487720  74.5201330
  38.8680030  14.8952910  73.2207420  51.2126640  28.0119480  68.7702780
  50.9864220  27.2949920  69.3627420  50.8222840  27.7631920  67.9324530
  36.9942670  32.0386340  69.5447240  37.3540310  32.6375680  68.8904510
  36.8535010  32.5846230  70.3182270  50.7942890  25.9291420  70.4316940
  50.5064590  26.3904110  71.2194820  51.5895060  25.4689190  70.7001160
  43.0111290  29.4217540  70.3620910  43.0021390  30.1547230  69.7465420
  42.0909650  29.1749120  70.4547870  38.6117930  24.6432430  71.1067670
  38.0045880  25.3831330  71.1162970  39.0867280  24.7331790  70.2805870
  51.5512750  17.7640190  71.5912120  50.9225910  17.8685860  70.8770350
  51.0564670  17.9836970  72.3806000  45.9970890  29.4845780  69.0246100
  46.0982870  29.2809770  68.0948080  45.0972630  29.2304060  69.2293880
  43.5196780  20.0426140  73.0070000  42.8112930  20.5112480  73.4483610
  43.8041260  19.3848150  73.6415190  47.5512210  16.7676800  74.4465790
  47.4279990  16.7862930  73.4975300  48.4996770  16.8155740  74.5664190
  44.6389000  32.0032100  73.7193770  44.8930500  31.9653490  72.7973140
  43.6901480  31.8765430  73.7122020  41.7231800  18.3511220  70.3820710
  42.5722330  18.7881370  70.3160900  41.3563070  18.6631480  71.2092770
  50.6441580  22.9223980  75.2952280  49.7031720  22.9374210  75.4699970
  50.9585650  22.1359940  75.7412580  40.6223220  24.6043580  68.8556240
  41.3886490  24.4924940  69.4181670  40.6997910  23.9081550  68.2033010
  39.3169980  22.0368650  69.5389130  39.3973570  21.0896160  69.6506530
  40.2089730  22.3675530  69.6449790  40.1184690  32.1864040  76.6423670
  40.8547170  31.6379500  76.9132240  40.5025610  33.0520050  76.5029660
  37.0030170  28.2537610  72.5165180  36.0769950  28.4958750  72.5070590
  37.4686600  29.0811870  72.3949930  43.2287000  31.3594350  68.4649240
  44.0215610  31.6483180  68.0131030  42.7091350  30.9286520  67.7861720
  52.2817170  30.5864480  69.8885980  51.9958680  30.1729620  69.0740160
  52.0836720  31.5152190  69.7686500  43.7464400  26.5797760  68.3291590
  43.6415040  25.9650110  69.0552970  43.5788620  26.0563650  67.5454600
  46.9867130  25.6417790  68.9333580  46.4377230  26.0887090  69.5776320
  47.6086390  25.1367040  69.4571250  42.6542250  24.6008710  70.8298880
  43.0758670  24.4348580  71.6730270  42.7793090  23.7908940  70.3354020
  45.1669890  23.6246320  68.0775980  45.6875550  22.9095340  67.7117130
  45.8138290  24.2632190  68.3776490  41.5501150  20.6741940  67.7757040
  41.3490210  19.8109300  68.1370380  41.3793200  20.5875300  66.8378640
  49.0289460  15.4850170  70.3043920  49.3091750  14.6418070  70.6603340
  48.2555190  15.7173280  70.8182670  40.3483950  17.7742560  67.7634920
  40.6509850  17.7809990  66.8554070  41.0878540  17.4240420  68.2602580
  43.5668880  16.7177180  68.7491120  43.2190880  16.0401170  68.1693570
  43.7681650  16.2566690  69.5634510  45.7317920  31.7057930  70.3677720
  46.6268710  32.0442900  70.3896480  45.7635550  30.9837340  69.7402000
  39.3714080  27.0784980  68.5964720  39.8088950  27.6214650  69.2522300
  39.8561810  26.2531930  68.6061060  36.5859880  29.8674010  76.0484980
  36.9162890  28.9995070  75.8163620  37.0150880  30.0732530  76.8789940
  41.1821800  28.1983020  73.7086950  40.8817340  28.0747990  74.6090860
  41.0759290  27.3391610  73.3002680  53.9513720  27.9779420  68.4113630
  53.1206680  28.0456070  68.8820860  54.1285550  28.8683540  68.1080490
  53.4070180  24.7226900  70.9147830  54.1689090  25.2923550  71.0207520
  53.4224550  24.1554100  71.6856140  36.9074520  23.2464830  75.1455490
  36.2523360  22.9776470  74.5015190  37.7452470  23.1369310  74.6957470
  54.4130150  25.5777000  75.7589760  54.7838980  24.7944320  75.3525730
  55.0532080  26.2666100  75.5807060  53.4589350  25.0161270  68.0720350
  53.7338190  25.9240150  67.9439570  53.2700090  24.9523800  69.0082340
  49.8564960  18.0406120  69.3673980  50.2749840  17.8537100  68.5270640
  49.5501020  17.1885170  69.6776910  53.3554690  22.9530260  73.0649780
  52.9798290  22.1858190  72.6331070  52.6257810  23.3352960  73.5524710
  36.1212600  20.4563760  71.0880820  35.2176680  20.7193960  70.9132480
  36.6053220  20.7274930  70.3080780  52.6305650  21.1787750  76.3657020
  53.1543130  20.6850400  75.7347190  53.2165070  21.3138110  77.1104590
  38.6639810  19.5129300  68.9975200  39.3731510  19.0912520  68.5122480
  37.9479750  19.5804530  68.3658550  38.3113970  15.5668630  68.0377850
  39.0342100  16.1077570  68.3559070  38.5838490  15.2932050  67.1619390
  52.1205620  20.4361100  72.3049430  52.6164740  20.2031970  73.0898310
  51.9221690  19.5972940  71.8887070  53.5492780  19.0722050  74.8387110
  53.4392060  18.9178090  75.7769380  54.3100370  18.5442990  74.5962520
  54.4383050  16.9029970  68.0793250  55.3632360  16.7711150  67.8711540
  54.4158840  16.9822790  69.0329700  54.5121540  17.6740630  70.7049960
  53.7173040  17.6085750  71.2342870  54.7164820  18.6091270  70.6935310
  51.4539960  31.7132180  74.6988350  52.0499030  31.3916750  74.0222770
  51.7118110  31.2404000  75.4901620  52.8080040  15.6352750  75.1657610
  52.7468440  14.6913970  75.0188630  53.5872070  15.7432840  75.7111070
  37.1132790  31.7745110  74.1281560  36.9454830  31.1415790  74.8263450
  36.2467300  31.9804510  73.7775750  37.7360810  15.6061890  71.6313420
  38.4940170  15.7190770  71.0577450  37.2737980  16.4431090  71.5856850
  44.2774620  17.7201160  74.6215730  43.4649130  17.3458050  74.2811610
  44.7816260  16.9646240  74.9236920  48.7799600  14.3843610  75.8598800
  49.3828970  14.9563820  76.3347320  48.0392590  14.9483050  75.6372700
  51.9234200  14.7865170  71.1339080  52.1184830  15.6848620  71.4006510
  51.1364070  14.5552250  71.6272030  38.7195490  30.4678340  71.5731700
  38.1943110  30.8486370  70.8693660  38.6440070  31.0929110  72.2941410
  40.1085960  16.1325940  70.1715390  40.6378720  15.3455740  70.0423340
  40.7414280  16.8117130  70.4050920  42.3023800  15.8701080  73.2260780
  41.6726540  15.1688390  73.3930910  41.7628940  16.6305210  73.0093940
  53.4760810  32.0265880  72.8945640  53.6513000  31.3403620  72.2506560
  52.7782380  32.5512930  72.5022310  41.3188460  32.4160720  70.4480950
  42.0507280  32.1320000  69.9004840  41.5782130  32.1774000  71.3380330
  40.4803250  28.5325450  70.4527280  39.8512130  29.0010550  71.0013110
  40.5951080  27.6874670  70.8873470  50.0878440  28.7670320  57.2636880
  49.6259970  27.9957560  57.5924050  50.9003990  28.7936390  57.7689330
  46.3141750  31.0528330  56.8840870  45.6953190  31.5085830  56.3135310
  47.1693530  31.2079790  56.4830570  37.6986670  17.6421840  60.8164530
  37.5189510  16.7447590  61.0967290  37.2966750  18.1893710  61.4911480
  46.5385170  19.8437700  58.7176840  46.9149990  18.9709580  58.6050510
  46.4404680  20.1796400  57.8267280  50.3209290  17.3388140  55.6505180
  51.1418910  16.8484710  55.6930660  50.3543370  17.9285800  56.4037020
  54.6108840  19.3554890  62.2148810  53.9061010  19.7436600  61.6963920
  54.8766760  20.0505180  62.8169740  40.7934010  15.8248260  62.7782880
  40.7952450  16.3420650  61.9728780  39.9638320  15.3478440  62.7552810
  50.5570770  19.2788520  58.4232720  49.8526340  19.5673410  59.0035830
  50.9182930  20.0888630  58.0632280  40.4749340  17.5358220  60.7853330
  40.8166150  18.3800270  60.4907200  39.5365150  17.6841960  60.9018670
  52.1733550  28.8963650  60.6860200  51.4897070  29.5662760  60.6776870
  52.7127840  29.0944300  59.9205060  53.6257690  18.7243310  58.8141930
  52.6782600  18.7582290  58.9457360  53.9507680  19.5382260  59.1991290
  44.1577230  15.0240490  57.1097920  44.4652210  14.4687380  56.3933420
  43.2277930  15.1584950  56.9270910  49.7092290  30.7407780  59.4005380
  49.7219450  30.3370070  58.5327640  49.1567510  31.5155070  59.2966810
  51.0037710  27.4624000  54.4895550  50.8934040  26.5198330  54.6144970
  51.0005960  27.8239640  55.3758310  49.1077730  25.6437620  60.7287990
  49.5246520  25.4297730  59.8941450  49.8317550  25.9010410  61.2996610
  53.0539830  24.0424840  60.8204230  52.2258460  24.1117930  60.3454360
  53.6490310  24.6279150  60.3520060  50.5755280  24.6509620  54.3493290
  49.9567700  24.3129170  53.7019590  50.5579730  24.0069380  55.0572480
  50.0181840  20.8294160  61.7659100  49.6053020  21.6547870  62.0199090
  49.2857790  20.2439200  61.5735460  50.7081940  30.8753490  62.4540080
  50.2312500  31.6825680  62.2612690  50.0243730  30.2231820  62.6066290
  52.3337120  15.1439240  49.6707080  52.0209780  15.2366070  50.5706150
  53.0949590  15.7220270  49.6204510  54.2881150  30.6365430  67.5231470
  54.7640870  31.1148320  68.2020550  54.9088310  30.5682920  66.7976970
  53.6914400  27.8278280  64.6831480  53.8177460  27.5890160  63.7648660
  53.7335780  26.9962820  65.1553560  47.5531140  31.5306280  63.2526290
  48.0675810  31.4414290  64.0548720  46.7100220  31.8765980  63.5454200
  53.5438410  19.8810740  65.6481220  52.9282680  20.3890410  65.1196680
  53.2234830  18.9809070  65.5907160  41.3182920  15.8534110  57.5108090
  40.8751070  16.6343650  57.1792610  41.8767910  16.1764000  58.2179030
  45.6052730  18.7202630  63.1143410  45.1432100  18.9285650  63.9263350
  45.2030840  17.9061980  62.8114080  50.6057240  19.9411580  64.2440070
  49.7550830  19.6417330  64.5649140  50.4459030  20.1853590  63.3323890
  47.7006950  21.4413330  66.3438860  48.0260360  20.6077080  66.0041090
  48.4887280  21.9641850  66.4917190  44.4341740  15.4744810  52.3913920
  43.8095920  15.4704680  53.1167230  44.3471860  14.6075770  51.9949890
  43.3558820  16.3981440  59.3697690  43.6531150  17.3044270  59.2889710
  43.9044380  15.9100220  58.7557260  43.5496350  21.8753260  65.9049610
  43.4539950  20.9347990  65.7550010  44.3928330  22.0968330  65.5097680
  46.9459770  19.6194590  55.8683270  47.3389340  19.9366790  55.0551960
  47.3076620  18.7406470  55.9827790  38.6806890  18.2866930  64.0583390
  38.2870280  19.1342140  64.2656170  37.9925290  17.6493300  64.2492030
  45.2551940  18.3701900  67.1280130  44.5650260  18.1774100  67.7626220
  45.9984240  18.6536540  67.6604430  47.5314910  22.2100340  59.9634050
  46.7996030  22.7187150  60.3124150  47.1339250  21.3930320  59.6622830
  43.9692300  18.8854540  58.3686540  43.9728360  18.4444490  57.5191080
  44.8643420  19.2071870  58.4758360  39.8194680  18.7681030  57.3280750
  39.4794730  19.2456260  58.0847800  39.0572000  18.3146150  56.9681850
  47.9940820  17.6634020  59.3756990  48.0113560  18.1142670  60.2198840
  47.7456400  16.7639660  59.5890430  51.4211570  15.0766200  65.2143370
  51.7457340  14.3455860  65.7401350  51.4568080  14.7579840  64.3124360
  51.3469410  25.1891310  58.8229400  52.0668530  25.6846600  58.4325510
  51.1451230  24.5109200  58.1783270  46.8079350  16.5829270  52.9658790
  45.9943960  16.0842440  52.8904100  46.6141300  17.4227520  52.5495140
  46.7288210  25.2600370  64.7098400  46.6625520  24.3396040  64.4555990
  46.0993350  25.3575810  65.4243040  41.3176490  23.2851940  66.4647070
  41.0176630  23.4309120  65.5674890  42.0887730  22.7257230  66.3720460
  46.6604940  28.0820940  64.4602200  46.6749480  27.1501900  64.2421110
  45.9530040  28.1680700  65.0991970  52.8716150  24.7228280  63.8070780
  52.1464340  25.3157060  63.6100170  53.3991610  24.7151820  63.0084150
  52.8229260  29.1203020  53.4582940  52.1805420  28.4658640  53.7326660
  52.4359920  29.5258110  52.6823610  48.4015740  26.4488450  57.3054630
  48.7539560  25.8516580  56.6456000  47.5178070  26.1232680  57.4762880
  46.0938840  29.7238510  61.5542700  46.7381060  29.9297890  62.2316120
  46.4568280  28.9626910  61.1013550  39.6918010  14.5569820  54.7972920
  39.5632640  14.5487720  55.7457840  38.8680030  14.8952910  54.4463930
  47.3670920  27.7270860  60.2720150  48.0093150  27.0264020  60.3852320
  47.8920270  28.5069300  60.0917040  49.1408540  28.5265760  63.4756210
  49.4764780  29.1132450  64.1534130  48.2208880  28.3958470  63.7054000
  36.6911940  16.3160940  64.2579620  35.9770460  16.5157860  64.8632230
  37.1106980  15.5400510  64.6294420  44.9697120  28.5757090  66.6444270
  44.6493990  27.8566330  67.1889960  44.2955480  29.2512160  66.7180330
  48.1850720  18.8083250  62.0081070  48.5531540  17.9878460  62.3360640
  47.3248920  18.8685140  62.4236720  45.1452710  21.4622840  62.2319040
  45.6437960  21.9368660  62.8970890  45.2875660  20.5386360  62.4389070
  47.5512210  16.7676800  55.6722300  47.4279990  16.7862930  54.7231810
  48.4996770  16.8155740  55.7920700  52.3519570  17.6790800  63.0747430
  51.8493170  18.4196200  63.4141240  53.1676230  18.0674800  62.7584220
  50.6441580  22.9223980  56.5208790  49.7031720  22.9374210  56.6956480
  50.9585650  22.1359940  56.9669090  52.6467160  30.0932830  58.1963050
  52.7714580  30.9164000  58.6686860  53.5132720  29.8823560  57.8487200
  39.1242970  31.3710110  67.0565760  39.9255700  31.6922160  67.4701160
  38.6094790  31.0105690  67.7785670  47.9607600  27.4789980  67.0041170
  47.3545760  27.5021580  66.2636920  47.6561710  26.7473020  67.5408420
  49.3907970  31.2070270  65.6150580  50.3429720  31.1228290  65.5650820
  49.2436190  31.8711980  66.2884370  36.8440780  23.8583570  66.0001810
  37.3479800  23.2790850  66.5718040  36.1048200  24.1423800  66.5378180
  51.0402070  26.9959890  66.0912350  51.7811540  27.3335650  65.5879810
  50.2774750  27.1651950  65.5382120  38.8763860  22.0013160  66.8951880
  38.9169200  21.7027030  67.8037110  39.7309360  22.4020770  66.7359400
  40.8169670  20.5805260  64.8626370  40.2866130  20.0896210  64.2349710
  41.4857740  21.0089460  64.3284300  49.7147730  25.0474720  64.6267560
  50.1288750  25.2019800  65.4757980  48.7798730  25.1729940  64.7893340
  50.1869900  22.3870880  66.6306710  50.7690670  21.6323200  66.5427190
  50.3631670  22.9178320  65.8538190  41.3041970  17.5467630  64.9423660
  41.2098840  16.9288380  64.2174530  40.7239360  18.2733920  64.7153570
  44.0703410  16.1040870  61.9751050  43.6220710  16.1265130  61.1296600
  43.4368610  15.7059890  62.5721350  46.8126860  22.7311380  63.9801330
  46.9323070  22.1352520  64.7196170  47.6720860  22.7681070  63.5602630
  49.1514760  23.2848570  62.5563840  48.6249980  23.8091190  61.9528980
  49.4946100  23.9175960  63.1873570  43.5795630  19.2732730  65.2377150
  44.1695320  18.9648580  65.9254970  42.7615870  18.8012480  65.3937050
  48.3989060  18.8898540  65.4710170  47.7104580  18.2280080  65.4060160
  49.1195080  18.4436810  65.9158630  49.0289460  15.4850170  51.5300430
  49.3091750  14.6418070  51.8859850  48.2555190  15.7173280  52.0439180
  45.1832590  32.5399420  63.9707870  45.1091290  33.4434560  64.2780240
  44.2811430  32.2211320  63.9429940  43.5668880  16.7177180  49.9747630
  43.2190880  16.0401170  49.3950080  43.7681650  16.2566690  50.7891020
  52.7112270  30.2361600  64.3000430  52.1114260  30.2954160  63.5564350
  52.8406170  29.2966580  64.4297280  54.4130150  25.5777000  56.9846270
  54.7838980  24.7944320  56.5782240  55.0532080  26.2666100  56.8063570
  51.3963910  26.9613580  62.3976590  50.5823750  27.3910740  62.6602380
  51.8038110  27.5731990  61.7845640  49.8564960  18.0406120  50.5930490
  50.2749840  17.8537100  49.7527150  49.5501020  17.1885170  50.9033420
  52.7454310  22.1001780  63.9245810  52.5140400  21.8714530  63.0243760
  53.0058860  23.0201330  63.8790700  37.4966450  20.5426490  64.8173760
  36.6022500  20.5093250  65.1567470  38.0364000  20.7413280  65.5825010
  51.1842380  17.3258210  66.7025510  52.0612560  17.3341610  67.0859510
  51.1963220  16.5889050  66.0917860  52.6305650  21.1787750  57.5913530
  53.1543130  20.6850400  56.9603700  53.2165070  21.3138110  58.3361100
  52.8095370  21.2627620  61.1133080  51.8598080  21.2291160  61.2278070
  52.9908380  22.1727730  60.8782850  38.3113970  15.5668630  49.2634360
  39.0342100  16.1077570  49.5815580  38.5838490  15.2932050  48.3875900
  38.0006160  14.8174820  59.1656980  38.6482350  14.2672200  58.7252140
  38.4208000  15.0717970  59.9872790  53.5492780  19.0722050  56.0643620
  53.4392060  18.9178090  57.0025890  54.3100370  18.5442990  55.8219030
  51.8958500  15.0116180  62.5226620  52.5330720  15.6250320  62.8885810
  52.0433390  15.0476840  61.5775850  54.4383050  16.9029970  49.3049760
  55.3632360  16.7711150  49.0968050  54.4158840  16.9822790  50.2586210
  54.5121540  17.6740630  51.9306470  53.7173040  17.6085750  52.4599380
  54.7164820  18.6091270  51.9191820  37.7538160  14.9730490  61.9082300
  37.4052980  15.4294310  62.6740480  37.4225860  14.0787620  61.9904730
  45.2662980  16.1642370  65.4301720  45.2051870  16.7564200  66.1797130
  46.2063360  16.0568330  65.2851980  47.9037540  15.8212430  65.0694010
  48.5177950  16.1391720  64.4075090  48.4487100  15.3361020  65.6889870
  54.3212720  31.7204060  62.4755850  53.8271000  32.1172930  61.7582980
  53.7126010  31.0953270  62.8693130  38.4258800  14.5006690  65.1833070
  38.9741790  14.3194740  64.4199180  38.4914110  13.7100800  65.7189380
  48.6445580  14.3844570  61.3963300  47.7705420  14.7179680  61.1936230
  48.5356330  13.9117750  62.2215170  49.5517560  16.5915440  62.7805020
  49.2230920  15.7767200  62.4006750  50.4999860  16.5485250  62.6570710
  52.0052170  32.3627480  59.7542590  51.5455140  33.1143290  59.3800610
  51.3764630  31.6433950  59.6957390  45.1743390  31.5624210  59.7559700
  45.4621200  31.3078510  58.8792710  45.6866610  31.0101570  60.3465270
  46.3920400  15.3014410  60.3356210  45.6092190  15.7759910  60.6152970
  46.0983330  14.3969240  60.2269390  50.9441470  16.0037510  58.3805300
  51.3849560  15.9482610  57.5326900  50.6749060  16.9195520  58.4515480
  52.8080040  15.6352750  56.3914120  52.7468440  14.6913970  56.2445140
  53.5872070  15.7432840  56.9367580  37.7360810  15.6061890  52.8569930
  38.4940170  15.7190770  52.2833960  37.2737980  16.4431090  52.8113360
  44.2774620  17.7201160  55.8472240  43.4649130  17.3458050  55.5068120
  44.7816260  16.9646240  56.1493430  48.7799600  14.3843610  57.0855310
  49.3828970  14.9563820  57.5603830  48.0392590  14.9483050  56.8629210
  51.9234200  14.7865170  52.3595590  52.1184830  15.6848620  52.6263020
  51.1364070  14.5552250  52.8528540  40.1085960  16.1325940  51.3971900
  40.6378720  15.3455740  51.2679850  40.7414280  16.8117130  51.6307430
  42.3023800  15.8701080  54.4517290  41.6726540  15.1688390  54.6187420
  41.7628940  16.6305210  54.2350450  45.2415750  32.4840310  67.1227900
  46.1683060  32.2484580  67.1663860  45.2266180  33.3112310  66.6413930
  53.4760810  32.0265880  54.1202150  53.6513000  31.3403620  53.4763070
  52.7782380  32.5512930  53.7278820  42.4279360  15.1485060  66.8869780
  42.1463630  15.6518660  66.1230600  42.8099060  14.3506810  66.5211910
  49.0294820  14.5638640  67.4650250  48.9160270  14.8833250  68.3601770
  49.8464560  14.9651150  67.1687530  51.8093310  31.7110170  66.9468940
  52.6018630  31.2159400  66.7394900  52.1026460  32.3900310  67.5544550
  47.9352970  22.5831110  37.8284990  47.8547020  21.6685720  37.5576700
  47.5217390  23.0798180  37.1224700  46.5385170  19.8437700  39.9433350
  46.9149990  18.9709580  39.8307020  46.4404680  20.1796400  39.0523790
  50.3209290  17.3388140  36.8761690  51.1418910  16.8484710  36.9187170
  50.3543370  17.9285800  37.6293530  54.6108840  19.3554890  43.4405320
  53.9061010  19.7436600  42.9220430  54.8766760  20.0505180  44.0426250
  40.7934010  15.8248260  44.0039390  40.7952450  16.3420650  43.1985290
  39.9638320  15.3478440  43.9809320  50.5570770  19.2788520  39.6489230
  49.8526340  19.5673410  40.2292340  50.9182930  20.0888630  39.2888790
  40.4749340  17.5358220  42.0109840  40.8166150  18.3800270  41.7163710
  39.5365150  17.6841960  42.1275180  53.6257690  18.7243310  40.0398440
  52.6782600  18.7582290  40.1713870  53.9507680  19.5382260  40.4247800
  44.1577230  15.0240490  38.3354430  44.4652210  14.4687380  37.6189930
  43.2277930  15.1584950  38.1527420  46.5457990  23.0889320  35.0714550
  45.6187270  23.0226700  35.3003020  46.6982810  24.0269450  34.9569790
  46.5327070  19.3606320  32.0681710  45.5930740  19.5220280  32.1534170
  46.8510330  20.0792000  31.5217700  53.0539830  24.0424840  42.0460740
  52.2258460  24.1117930  41.5710870  53.6490310  24.6279150  41.5776570
  50.0181840  20.8294160  42.9915610  49.6053020  21.6547870  43.2455600
  49.2857790  20.2439200  42.7991970  48.7519980  23.8896430  32.5822550
  49.1913260  23.0518860  32.4360370  49.4648400  24.5225830  32.6686690
  52.3337120  15.1439240  30.8963590  52.0209780  15.2366070  31.7962660
  53.0949590  15.7220270  30.8461020  49.5285540  31.8161620  33.9066800
  49.3686680  31.5264560  34.8048630  49.3632250  31.0401750  33.3712030
  49.2311670  29.3249180  32.4664800  48.5376830  29.3226470  31.8067080
  49.9734530  28.9008500  32.0358970  53.5438410  19.8810740  46.8737730
  52.9282680  20.3890410  46.3453190  53.2234830  18.9809070  46.8163670
  41.3182920  15.8534110  38.7364600  40.8751070  16.6343650  38.4049120
  41.8767910  16.1764000  39.4435540  45.6052730  18.7202630  44.3399920
  45.1432100  18.9285650  45.1519860  45.2030840  17.9061980  44.0370590
  50.6057240  19.9411580  45.4696580  49.7550830  19.6417330  45.7905650
  50.4459030  20.1853590  44.5580400  44.4341740  15.4744810  33.6170430
  43.8095920  15.4704680  34.3423740  44.3471860  14.6075770  33.2206400
  43.3558820  16.3981440  40.5954200  43.6531150  17.3044270  40.5146220
  43.9044380  15.9100220  39.9813770  48.3394900  20.9831050  35.0636500
  47.7403790  21.7066850  34.8800120  48.8874510  20.9207830  34.2812950
  46.9459770  19.6194590  37.0939780  47.3389340  19.9366790  36.2808470
  47.3076620  18.7406470  37.2084300  45.2551940  18.3701900  48.3536640
  44.5650260  18.1774100  48.9882730  45.9984240  18.6536540  48.8860940
  35.9823940  16.2095390  39.3169980  35.6936990  16.7798250  40.0294960
  36.7269700  15.7299840  39.6801210  43.9692300  18.8854540  39.5943050
  43.9728360  18.4444490  38.7447590  44.8643420  19.2071870  39.7014870
  44.0312450  19.8866620  32.5849810  44.1525270  19.8453100  33.5335630
  43.6460960  20.7490770  32.4296540  47.9940820  17.6634020  40.6013500
  48.0113560  18.1142670  41.4455350  47.7456400  16.7639660  40.8146940
  51.4211570  15.0766200  46.4399880  51.7457340  14.3455860  46.9657860
  51.4568080  14.7579840  45.5380870  37.1340760  17.6900010  37.4701930
  36.8487680  17.3255680  38.3080550  37.0719620  16.9580470  36.8565070
  46.8079350  16.5829270  34.1915300  45.9943960  16.0842440  34.1160610
  46.6141300  17.4227520  33.7751650  49.5227740  20.9548920  32.4877460
  50.4107360  21.2666150  32.3128800  49.4932830  20.0821170  32.0958040
  51.7942010  22.2660760  31.9557320  51.7105730  22.6974980  31.1053760
  52.5136200  22.7259110  32.3884140  39.6918010  14.5569820  36.0229430
  39.5632640  14.5487720  36.9714350  38.8680030  14.8952910  35.6720440
  51.2126640  28.0119480  31.2215800  50.9864220  27.2949920  31.8140440
  50.8222840  27.7631920  30.3837550  48.1850720  18.8083250  43.2337580
  48.5531540  17.9878460  43.5617150  47.3248920  18.8685140  43.6493230
  51.5512750  17.7640190  34.0425140  50.9225910  17.8685860  33.3283370
  51.0564670  17.9836970  34.8319020  47.5512210  16.7676800  36.8978810
  47.4279990  16.7862930  35.9488320  48.4996770  16.8155740  37.0177210
  52.3519570  17.6790800  44.3003940  51.8493170  18.4196200  44.6397750
  53.1676230  18.0674800  43.9840730  52.2817170  30.5864480  32.3399000
  51.9958680  30.1729620  31.5253180  52.0836720  31.5152190  32.2199520
  46.9867130  25.6417790  31.3846600  46.4377230  26.0887090  32.0289340
  47.6086390  25.1367040  31.9084270  45.1669890  23.6246320  30.5289000
  45.6875550  22.9095340  30.1630150  45.8138290  24.2632190  30.8289510
  44.0703410  16.1040870  43.2007560  43.6220710  16.1265130  42.3553110
  43.4368610  15.7059890  43.7977860  41.5501150  20.6741940  30.2270060
  41.3490210  19.8109300  30.5883400  41.3793200  20.5875300  29.2891660
  48.3989060  18.8898540  46.6966680  47.7104580  18.2280080  46.6316670
  49.1195080  18.4436810  47.1415140  49.0289460  15.4850170  32.7556940
  49.3091750  14.6418070  33.1116360  48.2555190  15.7173280  33.2695690
  40.3483950  17.7742560  30.2147940  40.6509850  17.7809990  29.3067090
  41.0878540  17.4240420  30.7115600  43.5668880  16.7177180  31.2004140
  43.2190880  16.0401170  30.6206590  43.7681650  16.2566690  32.0147530
  53.9513720  27.9779420  30.8626650  53.1206680  28.0456070  31.3333880
  54.1285550  28.8683540  30.5593510  54.4130150  25.5777000  38.2102780
  54.7838980  24.7944320  37.8038750  55.0532080  26.2666100  38.0320080
  53.4589350  25.0161270  30.5233370  53.7338190  25.9240150  30.3952590
  53.2700090  24.9523800  31.4595360  49.8564960  18.0406120  31.8187000
  50.2749840  17.8537100  30.9783660  49.5501020  17.1885170  32.1289930
  53.3554690  22.9530260  35.5162800  52.9798290  22.1858190  35.0844090
  52.6257810  23.3352960  36.0037730  51.1842380  17.3258210  47.9282020
  52.0612560  17.3341610  48.3116020  51.1963220  16.5889050  47.3174370
  52.6305650  21.1787750  38.8170040  53.1543130  20.6850400  38.1860210
  53.2165070  21.3138110  39.5617610  52.8095370  21.2627620  42.3389590
  51.8598080  21.2291160  42.4534580  52.9908380  22.1727730  42.1039360
  38.3113970  15.5668630  30.4890870  39.0342100  16.1077570  30.8072090
  38.5838490  15.2932050  29.6132410  52.1205620  20.4361100  34.7562450
  52.6164740  20.2031970  35.5411330  51.9221690  19.5972940  34.3400090
  38.0006160  14.8174820  40.3913490  38.6482350  14.2672200  39.9508650
  38.4208000  15.0717970  41.2129300  53.5492780  19.0722050  37.2900130
  53.4392060  18.9178090  38.2282400  54.3100370  18.5442990  37.0475540
  51.8958500  15.0116180  43.7483130  52.5330720  15.6250320  44.1142320
  52.0433390  15.0476840  42.8032360  54.4383050  16.9029970  30.5306270
  55.3632360  16.7711150  30.3224560  54.4158840  16.9822790  31.4842720
  54.5121540  17.6740630  33.1562980  53.7173040  17.6085750  33.6855890
  54.7164820  18.6091270  33.1448330  37.7538160  14.9730490  43.1338810
  37.4052980  15.4294310  43.8996990  37.4225860  14.0787620  43.2161240
  45.2662980  16.1642370  46.6558230  45.2051870  16.7564200  47.4053640
  46.2063360  16.0568330  46.5108490  47.9037540  15.8212430  46.2950520
  48.5177950  16.1391720  45.6331600  48.4487100  15.3361020  46.9146380
  54.3212720  31.7204060  43.7012360  53.8271000  32.1172930  42.9839490
  53.7126010  31.0953270  44.0949640  38.4258800  14.5006690  46.4089580
  38.9741790  14.3194740  45.6455690  38.4914110  13.7100800  46.9445890
  48.6445580  14.3844570  42.6219810  47.7705420  14.7179680  42.4192740
  48.5356330  13.9117750  43.4471680  49.5517560  16.5915440  44.0061530
  49.2230920  15.7767200  43.6263260  50.4999860  16.5485250  43.8827220
  46.3920400  15.3014410  41.5612720  45.6092190  15.7759910  41.8409480
  46.0983330  14.3969240  41.4525900  50.9441470  16.0037510  39.6061810
  51.3849560  15.9482610  38.7583410  50.6749060  16.9195520  39.6771990
  52.8080040  15.6352750  37.6170630  52.7468440  14.6913970  37.4701650
  53.5872070  15.7432840  38.1624090  37.7360810  15.6061890  34.0826440
  38.4940170  15.7190770  33.5090470  37.2737980  16.4431090  34.0369870
  44.2774620  17.7201160  37.0728750  43.4649130  17.3458050  36.7324630
  44.7816260  16.9646240  37.3749940  48.7799600  14.3843610  38.3111820
  49.3828970  14.9563820  38.7860340  48.0392590  14.9483050  38.0885720
  51.9234200  14.7865170  33.5852100  52.1184830  15.6848620  33.8519530
  51.1364070  14.5552250  34.0785050  40.1085960  16.1325940  32.6228410
  40.6378720  15.3455740  32.4936360  40.7414280  16.8117130  32.8563940
  42.3023800  15.8701080  35.6773800  41.6726540  15.1688390  35.8443930
  41.7628940  16.6305210  35.4606960  53.4760810  32.0265880  35.3458660
  53.6513000  31.3403620  34.7019580  52.7782380  32.5512930  34.9535330
  42.4279360  15.1485060  48.1126290  42.1463630  15.6518660  47.3487110
  42.8099060  14.3506810  47.7468420  49.0294820  14.5638640  48.6906760
  48.9160270  14.8833250  49.5858280  49.8464560  14.9651150  48.3944040
  47.9352970  22.5831110  19.0541500  47.8547020  21.6685720  18.7833210
  47.5217390  23.0798180  18.3481210  50.0878440  28.7670320  19.7149900
  49.6259970  27.9957560  20.0437070  50.9003990  28.7936390  20.2202350
  40.6690180  18.2163330  16.6307300  40.7756930  19.1167060  16.9376060
  39.7582540  18.1681300  16.3401950  50.3209290  17.3388140  18.1018200
  51.1418910  16.8484710  18.1443680  50.3543370  17.9285800  18.8550040
  54.6108840  19.3554890  24.6661830  53.9061010  19.7436600  24.1476940
  54.8766760  20.0505180  25.2682760  47.1805100  25.9367570  16.7285800
  46.5622370  26.4017020  16.1648520  47.6928350  26.6295050  17.1455310
  50.5570770  19.2788520  20.8745740  49.8526340  19.5673410  21.4548850
  50.9182930  20.0888630  20.5145300  36.5488300  26.6224100  14.1025430
  36.1716280  27.1111200  13.3710330  36.8061370  27.2949380  14.7331960
  52.1733550  28.8963650  23.1373220  51.4897070  29.5662760  23.1289890
  52.7127840  29.0944300  22.3718080  53.6257690  18.7243310  21.2654950
  52.6782600  18.7582290  21.3970380  53.9507680  19.5382260  21.6504310
  49.7092290  30.7407780  21.8518400  49.7219450  30.3370070  20.9840660
  49.1567510  31.5155070  21.7479830  51.0037710  27.4624000  16.9408570
  50.8934040  26.5198330  17.0657990  51.0005960  27.8239640  17.8271330
  49.1077730  25.6437620  23.1801010  49.5246520  25.4297730  22.3454470
  49.8317550  25.9010410  23.7509630  46.5457990  23.0889320  16.2971060
  45.6187270  23.0226700  16.5259530  46.6982810  24.0269450  16.1826300
  46.5327070  19.3606320  13.2938220  45.5930740  19.5220280  13.3790680
  46.8510330  20.0792000  12.7474210  53.0539830  24.0424840  23.2717250
  52.2258460  24.1117930  22.7967380  53.6490310  24.6279150  22.8033080
  50.5755280  24.6509620  16.8006310  49.9567700  24.3129170  16.1532610
  50.5579730  24.0069380  17.5085500  50.7081940  30.8753490  24.9053100
  50.2312500  31.6825680  24.7125710  50.0243730  30.2231820  25.0579310
  48.7519980  23.8896430  13.8079060  49.1913260  23.0518860  13.6616880
  49.4648400  24.5225830  13.8943200  46.8615360  28.8292500  17.7760300
  47.3011270  29.5716830  17.3615690  46.8002250  29.0719070  18.6999260
  52.3337120  15.1439240  12.1220100  52.0209780  15.2366070  13.0219170
  53.0949590  15.7220270  12.0717530  54.2881150  30.6365430  29.9744490
  54.7640870  31.1148320  30.6533570  54.9088310  30.5682920  29.2489990
  53.6914400  27.8278280  27.1344500  53.8177460  27.5890160  26.2161680
  53.7335780  26.9962820  27.6066580  47.5531140  31.5306280  25.7039310
  48.0675810  31.4414290  26.5061740  46.7100220  31.8765980  25.9967220
  49.5285540  31.8161620  15.1323310  49.3686680  31.5264560  16.0305140
  49.3632250  31.0401750  14.5968540  42.0073920  31.5960150  16.9094930
  41.8316400  30.6795690  16.6962730  41.1529660  31.9547440  17.1492730
  49.2311670  29.3249180  13.6921310  48.5376830  29.3226470  13.0323590
  49.9734530  28.9008500  13.2615480  48.7961600  30.9511890  17.7669800
  49.2518550  30.1701270  18.0808420  49.1354120  31.6618710  18.3110980
  53.5438410  19.8810740  28.0994240  52.9282680  20.3890410  27.5709700
  53.2234830  18.9809070  28.0420180  44.4341740  15.4744810  14.8426940
  43.8095920  15.4704680  15.5680250  44.3471860  14.6075770  14.4462910
  48.3394900  20.9831050  16.2893010  47.7403790  21.7066850  16.1056630
  48.8874510  20.9207830  15.5069460  46.9459770  19.6194590  18.3196290
  47.3389340  19.9366790  17.5064980  47.3076620  18.7406470  18.4340810
  45.2551940  18.3701900  29.5793150  44.5650260  18.1774100  30.2139240
  45.9984240  18.6536540  30.1117450  36.1694170  20.1515510  11.7529210
  36.0868840  21.0946270  11.8944200  35.8177230  20.0090420  10.8741560
  44.0312450  19.8866620  13.8106320  44.1525270  19.8453100  14.7592140
  43.6460960  20.7490770  13.6553050  47.9940820  17.6634020  21.8270010
  48.0113560  18.1142670  22.6711860  47.7456400  16.7639660  22.0403450
  43.0433950  22.1967760  13.2089620  42.4750850  21.7486010  12.5825530
  43.7522950  22.5560540  12.6754770  51.4211570  15.0766200  27.6656390
  51.7457340  14.3455860  28.1914370  51.4568080  14.7579840  26.7637380
  40.5881430  26.1925950  15.4816030  39.8143690  25.6523570  15.3214750
  41.3176060  25.6732560  15.1433790  51.3469410  25.1891310  21.2742420
  52.0668530  25.6846600  20.8838530  51.1451230  24.5109200  20.6296290
  46.8079350  16.5829270  15.4171810  45.9943960  16.0842440  15.3417120
  46.6141300  17.4227520  15.0008160  46.7288210  25.2600370  27.1611420
  46.6625520  24.3396040  26.9069010  46.0993350  25.3575810  27.8756060
  49.5227740  20.9548920  13.7133970  50.4107360  21.2666150  13.5385310
  49.4932830  20.0821170  13.3214550  45.5188330  27.1272610  14.3922140
  45.8604030  27.8714840  13.8965460  44.6901040  27.4403730  14.7546970
  46.6604940  28.0820940  26.9115220  46.6749480  27.1501900  26.6934130
  45.9530040  28.1680700  27.5504990  51.7942010  22.2660760  13.1813830
  51.7105730  22.6974980  12.3310270  52.5136200  22.7259110  13.6140650
  52.8716150  24.7228280  26.2583800  52.1464340  25.3157060  26.0613190
  53.3991610  24.7151820  25.4597170  52.8229260  29.1203020  15.9095960
  52.1805420  28.4658640  16.1839680  52.4359920  29.5258110  15.1336630
  48.4015740  26.4488450  19.7567650  48.7539560  25.8516580  19.0969020
  47.5178070  26.1232680  19.9275900  44.4879020  27.2086140  17.1638060
  45.1750150  27.7555350  17.5445650  43.7011440  27.7526870  17.1987670
  36.6271420  22.8258960  12.6555140  37.4966270  23.1083760  12.9391060
  36.1361740  23.6394830  12.5403950  43.7906230  24.2132170  16.7763420
  44.2469010  25.0237420  17.0023610  43.4394440  23.8955310  17.6081910
  46.0938840  29.7238510  24.0055720  46.7381060  29.9297890  24.6829140
  46.4568280  28.9626910  23.5526570  39.6918010  14.5569820  17.2485940
  39.5632640  14.5487720  18.1970860  38.8680030  14.8952910  16.8976950
  47.3670920  27.7270860  22.7233170  48.0093150  27.0264020  22.8365340
  47.8920270  28.5069300  22.5430060  51.2126640  28.0119480  12.4472310
  50.9864220  27.2949920  13.0396950  50.8222840  27.7631920  11.6094060
  49.1408540  28.5265760  25.9269230  49.4764780  29.1132450  26.6047150
  48.2208880  28.3958470  26.1567020  36.9942670  32.0386340  13.2216770
  37.3540310  32.6375680  12.5674040  36.8535010  32.5846230  13.9951800
  50.7942890  25.9291420  14.1086470  50.5064590  26.3904110  14.8964350
  51.5895060  25.4689190  14.3770690  44.9697120  28.5757090  29.0957290
  44.6493990  27.8566330  29.6402980  44.2955480  29.2512160  29.1693350
  43.0111290  29.4217540  14.0390440  43.0021390  30.1547230  13.4234950
  42.0909650  29.1749120  14.1317400  38.6117930  24.6432430  14.7837200
  38.0045880  25.3831330  14.7932500  39.0867280  24.7331790  13.9575400
  51.5512750  17.7640190  15.2681650  50.9225910  17.8685860  14.5539880
  51.0564670  17.9836970  16.0575530  45.9970890  29.4845780  12.7015630
  46.0982870  29.2809770  11.7717610  45.0972630  29.2304060  12.9063410
  43.5196780  20.0426140  16.6839530  42.8112930  20.5112480  17.1253140
  43.8041260  19.3848150  17.3184720  47.5512210  16.7676800  18.1235320
  47.4279990  16.7862930  17.1744830  48.4996770  16.8155740  18.2433720
  41.7231800  18.3511220  14.0590240  42.5722330  18.7881370  13.9930430
  41.3563070  18.6631480  14.8862300  52.3519570  17.6790800  25.5260450
  51.8493170  18.4196200  25.8654260  53.1676230  18.0674800  25.2097240
  50.6441580  22.9223980  18.9721810  49.7031720  22.9374210  19.1469500
  50.9585650  22.1359940  19.4182110  40.6223220  24.6043580  12.5325770
  41.3886490  24.4924940  13.0951200  40.6997910  23.9081550  11.8802540
  39.3169980  22.0368650  13.2158660  39.3973570  21.0896160  13.3276060
  40.2089730  22.3675530  13.3219320  52.6467160  30.0932830  20.6476070
  52.7714580  30.9164000  21.1199880  53.5132720  29.8823560  20.3000220
  37.0030170  28.2537610  16.1934710  36.0769950  28.4958750  16.1840120
  37.4686600  29.0811870  16.0719460  43.2287000  31.3594350  12.1418770
  44.0215610  31.6483180  11.6900560  42.7091350  30.9286520  11.4631250
  47.9607600  27.4789980  29.4554190  47.3545760  27.5021580  28.7149940
  47.6561710  26.7473020  29.9921440  49.3907970  31.2070270  28.0663600
  50.3429720  31.1228290  28.0163840  49.2436190  31.8711980  28.7397390
  52.2817170  30.5864480  13.5655510  51.9958680  30.1729620  12.7509690
  52.0836720  31.5152190  13.4456030  43.7464400  26.5797760  12.0061120
  43.6415040  25.9650110  12.7322500  43.5788620  26.0563650  11.2224130
  43.8978720  25.2654560  27.9850350  43.1324390  25.8339560  27.9005020
  44.0794680  24.9730770  27.0918580  46.9867130  25.6417790  12.6103110
  46.4377230  26.0887090  13.2545850  47.6086390  25.1367040  13.1340780
  51.0402070  26.9959890  28.5425370  51.7811540  27.3335650  28.0392830
  50.2774750  27.1651950  27.9895140  42.6542250  24.6008710  14.5068410
  43.0758670  24.4348580  15.3499800  42.7793090  23.7908940  14.0123550
  45.1669890  23.6246320  11.7545510  45.6875550  22.9095340  11.3886660
  45.8138290  24.2632190  12.0546020  49.7147730  25.0474720  27.0780580
  50.1288750  25.2019800  27.9271000  48.7798730  25.1729940  27.2406360
  50.1869900  22.3870880  29.0819730  50.7690670  21.6323200  28.9940210
  50.3631670  22.9178320  28.3051210  41.5501150  20.6741940  11.4526570
  41.3490210  19.8109300  11.8139910  41.3793200  20.5875300  10.5148170
  49.0289460  15.4850170  13.9813450  49.3091750  14.6418070  14.3372870
  48.2555190  15.7173280  14.4952200  40.3483950  17.7742560  11.4404450
  40.6509850  17.7809990  10.5323600  41.0878540  17.4240420  11.9372110
  43.5668880  16.7177180  12.4260650  43.2190880  16.0401170  11.8463100
  43.7681650  16.2566690  13.2404040  45.7317920  31.7057930  14.0447250
  46.6268710  32.0442900  14.0666010  45.7635550  30.9837340  13.4171530
  39.3714080  27.0784980  12.2734250  39.8088950  27.6214650  12.9291830
  39.8561810  26.2531930  12.2830590  52.7112270  30.2361600  26.7513450
  52.1114260  30.2954160  26.0077370  52.8406170  29.2966580  26.8810300
  53.9513720  27.9779420  12.0883160  53.1206680  28.0456070  12.5590390
  54.1285550  28.8683540  11.7850020  53.4070180  24.7226900  14.5917360
  54.1689090  25.2923550  14.6977050  53.4224550  24.1554100  15.3625670
  54.4130150  25.5777000  19.4359290  54.7838980  24.7944320  19.0295260
  55.0532080  26.2666100  19.2576590  51.3963910  26.9613580  24.8489610
  50.5823750  27.3910740  25.1115400  51.8038110  27.5731990  24.2358660
  53.4589350  25.0161270  11.7489880  53.7338190  25.9240150  11.6209100
  53.2700090  24.9523800  12.6851870  49.8564960  18.0406120  13.0443510
  50.2749840  17.8537100  12.2040170  49.5501020  17.1885170  13.3546440
  53.3554690  22.9530260  16.7419310  52.9798290  22.1858190  16.3100600
  52.6257810  23.3352960  17.2294240  52.7454310  22.1001780  26.3758830
  52.5140400  21.8714530  25.4756780  53.0058860  23.0201330  26.3303720
  51.1842380  17.3258210  29.1538530  52.0612560  17.3341610  29.5372530
  51.1963220  16.5889050  28.5430880  52.6305650  21.1787750  20.0426550
  53.1543130  20.6850400  19.4116720  53.2165070  21.3138110  20.7874120
  52.8095370  21.2627620  23.5646100  51.8598080  21.2291160  23.6791090
  52.9908380  22.1727730  23.3295870  38.6639810  19.5129300  12.6744730
  39.3731510  19.0912520  12.1892010  37.9479750  19.5804530  12.0428080
  38.3113970  15.5668630  11.7147380  39.0342100  16.1077570  12.0328600
  38.5838490  15.2932050  10.8388920  52.1205620  20.4361100  15.9818960
  52.6164740  20.2031970  16.7667840  51.9221690  19.5972940  15.5656600
  53.5492780  19.0722050  18.5156640  53.4392060  18.9178090  19.4538910
  54.3100370  18.5442990  18.2732050  51.8958500  15.0116180  24.9739640
  52.5330720  15.6250320  25.3398830  52.0433390  15.0476840  24.0288870
  54.4383050  16.9029970  11.7562780  55.3632360  16.7711150  11.5481070
  54.4158840  16.9822790  12.7099230  54.5121540  17.6740630  14.3819490
  53.7173040  17.6085750  14.9112400  54.7164820  18.6091270  14.3704840
  51.4539960  31.7132180  18.3757880  52.0499030  31.3916750  17.6992300
  51.7118110  31.2404000  19.1671150  47.9037540  15.8212430  27.5207030
  48.5177950  16.1391720  26.8588110  48.4487100  15.3361020  28.1402890
  54.3212720  31.7204060  24.9268870  53.8271000  32.1172930  24.2096000
  53.7126010  31.0953270  25.3206150  38.4258800  14.5006690  27.6346090
  38.9741790  14.3194740  26.8712200  38.4914110  13.7100800  28.1702400
  48.6445580  14.3844570  23.8476320  47.7705420  14.7179680  23.6449250
  48.5356330  13.9117750  24.6728190  52.0052170  32.3627480  22.2055610
  51.5455140  33.1143290  21.8313630  51.3764630  31.6433950  22.1470410
  50.9441470  16.0037510  20.8318320  51.3849560  15.9482610  19.9839920
  50.6749060  16.9195520  20.9028500  52.8080040  15.6352750  18.8427140
  52.7468440  14.6913970  18.6958160  53.5872070  15.7432840  19.3880600
  37.7360810  15.6061890  15.3082950  38.4940170  15.7190770  14.7346980
  37.2737980  16.4431090  15.2626380  44.2774620  17.7201160  18.2985260
  43.4649130  17.3458050  17.9581140  44.7816260  16.9646240  18.6006450
  48.7799600  14.3843610  19.5368330  49.3828970  14.9563820  20.0116850
  48.0392590  14.9483050  19.3142230  51.9234200  14.7865170  14.8108610
  52.1184830  15.6848620  15.0776040  51.1364070  14.5552250  15.3041560
  38.7195490  30.4678340  15.2501230  38.1943110  30.8486370  14.5463190
  38.6440070  31.0929110  15.9710940  40.1085960  16.1325940  13.8484920
  40.6378720  15.3455740  13.7192870  40.7414280  16.8117130  14.0820450
  42.3023800  15.8701080  16.9030310  41.6726540  15.1688390  17.0700440
  41.7628940  16.6305210  16.6863470  53.4760810  32.0265880  16.5715170
  53.6513000  31.3403620  15.9276090  52.7782380  32.5512930  16.1791840
  42.4279360  15.1485060  29.3382800  42.1463630  15.6518660  28.5743620
  42.8099060  14.3506810  28.9724930  41.3188460  32.4160720  14.1250480
  42.0507280  32.1320000  13.5774370  41.5782130  32.1774000  15.0149860
  40.4803250  28.5325450  14.1296810  39.8512130  29.0010550  14.6782640
  40.5951080  27.6874670  14.5643000  49.0294820  14.5638640  29.9163270
  48.9160270  14.8833250  30.8114790  49.8464560  14.9651150  29.6200550
  51.8093310  31.7110170  29.3981960  52.6018630  31.2159400  29.1907920
  52.1026460  32.3900310  30.0057570  46.0671010  24.3610130   2.1607280
  45.2913110  23.8810570   2.4505850  46.7183940  23.6815780   1.9863440
  40.0836840  24.6729940   3.0383040  39.2521720  24.4178650   3.4379550
  40.6917820  24.7440710   3.7740960  40.0638100  28.7070030   3.2341060
  40.3666140  27.8167770   3.0551280  40.8081690  29.2640250   3.0063310
  36.4561800  22.2337480   2.7065130  37.0277910  21.4659680   2.7068770
  36.4563340  22.5326240   1.7971740  45.5080000  27.0367320   2.1677440
  45.4388280  26.0957260   2.0066570  46.2699860  27.1268730   2.7400010
  37.6986670  17.6421840   4.4934060  37.5189510  16.7447590   4.7736820
  37.2966750  18.1893710   5.1681010  38.3173340  20.1382340   3.1016400
  38.9983450  20.4020710   3.7203800  38.0021390  19.2983210   3.4354410
  42.5097910  21.1849700   2.1888990  43.0176130  21.6830670   2.8294010
  43.0411150  20.4084900   2.0128350  54.6108840  19.3554890   5.8918340
  53.9061010  19.7436600   5.3733450  54.8766760  20.0505180   6.4939270
  40.7934010  15.8248260   6.4552410  40.7952450  16.3420650   5.6498310
  39.9638320  15.3478440   6.4322340  42.0436860  25.4643440   4.6325910
  41.7106240  26.0912360   5.2746980  42.2203540  25.9905320   3.8527580
  50.5570770  19.2788520   2.1002250  49.8526340  19.5673410   2.6805360
  50.9182930  20.0888630   1.7401810  40.4749340  17.5358220   4.4622860
  40.8166150  18.3800270   4.1676730  39.5365150  17.6841960   4.5788200
  41.2555960  27.4324240   6.4475090  41.8729960  28.1075320   6.1659540
  40.3949080  27.8412220   6.3562590  52.1733550  28.8963650   4.3629730
  51.4897070  29.5662760   4.3546400  52.7127840  29.0944300   3.5974590
  53.6257690  18.7243310   2.4911460  52.6782600  18.7582290   2.6226890
  53.9507680  19.5382260   2.8760820  49.7092290  30.7407780   3.0774910
  49.7219450  30.3370070   2.2097170  49.1567510  31.5155070   2.9736340
  49.1077730  25.6437620   4.4057520  49.5246520  25.4297730   3.5710980
  49.8317550  25.9010410   4.9766140  53.0539830  24.0424840   4.4973760
  52.2258460  24.1117930   4.0223890  53.6490310  24.6279150   4.0289590
  50.0181840  20.8294160   5.4428630  49.6053020  21.6547870   5.6968620
  49.2857790  20.2439200   5.2504990  42.6196330  27.3021620   2.4686510
  42.3224620  26.6967090   1.7894290  43.5696150  27.3398930   2.3575870
  40.8643250  20.3897270   4.0846340  41.4157840  20.4992610   3.3099590
  41.3786760  20.7634870   4.8001570  50.7081940  30.8753490   6.1309610
  50.2312500  31.6825680   5.9382220  50.0243730  30.2231820   6.2835820
  41.7114760  27.0403310   9.1194310  40.8143290  27.2643280   9.3667710
  41.7367630  27.1638250   8.1705710  40.5385980  23.9116630   7.6951680
  40.3993750  24.7839430   8.0639080  39.6567340  23.5689440   7.5499620
  42.3366330  29.8538330   9.9036830  42.3081760  30.2581280   9.0365260
  42.1731300  28.9248690   9.7408430  54.2881150  30.6365430  11.2001000
  54.7640870  31.1148320  11.8790080  54.9088310  30.5682920  10.4746500
  36.4904630  25.6814180   3.6122590  36.5685050  25.8162950   2.6678310
  37.1046310  24.9730070   3.8050710  53.6914400  27.8278280   8.3601010
  53.8177460  27.5890160   7.4418190  53.7335780  26.9962820   8.8323090
  47.5531140  31.5306280   6.9295820  48.0675810  31.4414290   7.7318250
  46.7100220  31.8765980   7.2223730  53.5438410  19.8810740   9.3250750
  52.9282680  20.3890410   8.7966210  53.2234830  18.9809070   9.2676690
  36.5464150  26.7228350   6.1517050  36.7095190  26.2533710   5.3336420
  37.0116600  26.2151910   6.8165890  45.6052730  18.7202630   6.7912940
  45.1432100  18.9285650   7.6032880  45.2030840  17.9061980   6.4883610
  50.6057240  19.9411580   7.9209600  49.7550830  19.6417330   8.2418670
  50.4459030  20.1853590   7.0093420  47.7006950  21.4413330  10.0208390
  48.0260360  20.6077080   9.6810620  48.4887280  21.9641850  10.1686720
  43.3558820  16.3981440   3.0467220  43.6531150  17.3044270   2.9659240
  43.9044380  15.9100220   2.4326790  43.5496350  21.8753260   9.5819140
  43.4539950  20.9347990   9.4319540  44.3928330  22.0968330   9.1867210
  38.6806890  18.2866930   7.7352920  38.2870280  19.1342140   7.9425700
  37.9925290  17.6493300   7.9261560  45.2551940  18.3701900  10.8049660
  44.5650260  18.1774100  11.4395750  45.9984240  18.6536540  11.3373960
  35.9823940  16.2095390   1.7683000  35.6936990  16.7798250   2.4807980
  36.7269700  15.7299840   2.1314230  47.5314910  22.2100340   3.6403580
  46.7996030  22.7187150   3.9893680  47.1339250  21.3930320   3.3392360
  47.9940820  17.6634020   3.0526520  48.0113560  18.1142670   3.8968370
  47.7456400  16.7639660   3.2659960  51.4211570  15.0766200   8.8912900
  51.7457340  14.3455860   9.4170880  51.4568080  14.7579840   7.9893890
  38.1203130  26.0979780   8.3112860  37.7357920  25.4573450   8.9095820
  38.4315320  26.8015900   8.8807590  44.2700270  22.9456320   3.7921480
  44.6370400  22.4714890   4.5382820  44.0805330  23.8197890   4.1329820
  42.0599640  21.9864960   6.1105690  41.7556710  22.8656940   6.3356050
  43.0146100  22.0464750   6.1463130  51.3469410  25.1891310   2.4998930
  52.0668530  25.6846600   2.1095040  51.1451230  24.5109200   1.8552800
  46.7288210  25.2600370   8.3867930  46.6625520  24.3396040   8.1325520
  46.0993350  25.3575810   9.1012570  38.1163370  22.8267700   7.2577050
  37.7578310  23.4921550   7.8450390  37.8217930  21.9951250   7.6289670
  41.3176490  23.2851940  10.1416600  41.0176630  23.4309120   9.2444420
  42.0887730  22.7257230  10.0489990  46.6604940  28.0820940   8.1371730
  46.6749480  27.1501900   7.9190640  45.9530040  28.1680700   8.7761500
  52.8716150  24.7228280   7.4840310  52.1464340  25.3157060   7.2869700
  53.3991610  24.7151820   6.6853680  46.0938840  29.7238510   5.2312230
  46.7381060  29.9297890   5.9085650  46.4568280  28.9626910   4.7783080
  47.3670920  27.7270860   3.9489680  48.0093150  27.0264020   4.0621850
  47.8920270  28.5069300   3.7686570  49.1408540  28.5265760   7.1525740
  49.4764780  29.1132450   7.8303660  48.2208880  28.3958470   7.3823530
  36.6911940  16.3160940   7.9349150  35.9770460  16.5157860   8.5401760
  37.1106980  15.5400510   8.3063950  36.9784530  30.3041200   8.9215680
  37.0875650  29.3635940   8.7811070  36.3265090  30.5695950   8.2729410
  44.9697120  28.5757090  10.3213800  44.6493990  27.8566330  10.8659490
  44.2955480  29.2512160  10.3949860  48.1850720  18.8083250   5.6850600
  48.5531540  17.9878460   6.0130170  47.3248920  18.8685140   6.1006250
  45.1452710  21.4622840   5.9088570  45.6437960  21.9368660   6.5740420
  45.2875660  20.5386360   6.1158600  52.3519570  17.6790800   6.7516960
  51.8493170  18.4196200   7.0910770  53.1676230  18.0674800   6.4353750
  39.1242970  31.3710110  10.7335290  39.9255700  31.6922160  11.1470690
  38.6094790  31.0105690  11.4555200  47.9607600  27.4789980  10.6810700
  47.3545760  27.5021580   9.9406450  47.6561710  26.7473020  11.2177950
  49.3907970  31.2070270   9.2920110  50.3429720  31.1228290   9.2420350
  49.2436190  31.8711980   9.9653900  36.8440780  23.8583570   9.6771340
  37.3479800  23.2790850  10.2487570  36.1048200  24.1423800  10.2147710
  43.8978720  25.2654560   9.2106860  43.1324390  25.8339560   9.1261530
  44.0794680  24.9730770   8.3175090  51.0402070  26.9959890   9.7681880
  51.7811540  27.3335650   9.2649340  50.2774750  27.1651950   9.2151650
  38.8763860  22.0013160  10.5721410  38.9169200  21.7027030  11.4806640
  39.7309360  22.4020770  10.4128930  40.8169670  20.5805260   8.5395900
  40.2866130  20.0896210   7.9119240  41.4857740  21.0089460   8.0053830
  49.7147730  25.0474720   8.3037090  50.1288750  25.2019800   9.1527510
  48.7798730  25.1729940   8.4662870  50.1869900  22.3870880  10.3076240
  50.7690670  21.6323200  10.2196720  50.3631670  22.9178320   9.5307720
  41.3041970  17.5467630   8.6193190  41.2098840  16.9288380   7.8944060
  40.7239360  18.2733920   8.3923100  44.0703410  16.1040870   5.6520580
  43.6220710  16.1265130   4.8066130  43.4368610  15.7059890   6.2490880
  44.4762960  24.9995200   6.2733020  44.8951070  25.8427930   6.1009260
  43.5571590  25.1367240   6.0439800  46.8126860  22.7311380   7.6570860
  46.9323070  22.1352520   8.3965700  47.6720860  22.7681070   7.2372160
  49.1514760  23.2848570   6.2333370  48.6249980  23.8091190   5.6298510
  49.4946100  23.9175960   6.8643100  42.3270380  31.3048210   7.3890750
  41.7891470  32.0294270   7.0699450  42.5804340  30.8278550   6.5988090
  43.5795630  19.2732730   8.9146680  44.1695320  18.9648580   9.6024500
  42.7615870  18.8012480   9.0706580  48.3989060  18.8898540   9.1479700
  47.7104580  18.2280080   9.0829690  49.1195080  18.4436810   9.5928160
  45.1832590  32.5399420   7.6477400  45.1091290  33.4434560   7.9549770
  44.2811430  32.2211320   7.6199470  37.0750090  30.7344600   3.6892650
  36.6381080  30.9145400   4.5216800  37.6427770  31.4919220   3.5474370
  52.7112270  30.2361600   7.9769960  52.1114260  30.2954160   7.2333880
  52.8406170  29.2966580   8.1066810  51.3963910  26.9613580   6.0746120
  50.5823750  27.3910740   6.3371910  51.8038110  27.5731990   5.4615170
  37.9450450  23.6317400   4.5884870  38.3123490  23.5444800   5.4680890
  37.3761270  22.8683950   4.4891730  52.7454310  22.1001780   7.6015340
  52.5140400  21.8714530   6.7013290  53.0058860  23.0201330   7.5560230
  37.4966450  20.5426490   8.4943290  36.6022500  20.5093250   8.8337000
  38.0364000  20.7413280   9.2594540  51.1842380  17.3258210  10.3795040
  52.0612560  17.3341610  10.7629040  51.1963220  16.5889050   9.7687390
  52.8095370  21.2627620   4.7902610  51.8598080  21.2291160   4.9047600
  52.9908380  22.1727730   4.5552380  38.0006160  14.8174820   2.8426510
  38.6482350  14.2672200   2.4021670  38.4208000  15.0717970   3.6642320
  51.8958500  15.0116180   6.1996150  52.5330720  15.6250320   6.5655340
  52.0433390  15.0476840   5.2545380  37.7538160  14.9730490   5.5851830
  37.4052980  15.4294310   6.3510010  37.4225860  14.0787620   5.6674260
  39.3602530  28.1450090   9.7505020  39.3172160  27.7743000  10.6319480
  39.4913540  29.0827660   9.8906840  43.0608560  29.7009680   5.3514740
  42.8199920  29.9684240   4.4645260  44.0011200  29.8715410   5.4065600
  45.2662980  16.1642370   9.1071250  45.2051870  16.7564200   9.8566660
  46.2063360  16.0568330   8.9621510  47.9037540  15.8212430   8.7463540
  48.5177950  16.1391720   8.0844620  48.4487100  15.3361020   9.3659400
  54.3212720  31.7204060   6.1525380  53.8271000  32.1172930   5.4352510
  53.7126010  31.0953270   6.5462660  38.4258800  14.5006690   8.8602600
  38.9741790  14.3194740   8.0968710  38.4914110  13.7100800   9.3958910
  39.1990560  31.0912340   6.8702800  38.6050880  30.9597040   7.6092840
  39.1914400  30.2550480   6.4044900  48.6445580  14.3844570   5.0732830
  47.7705420  14.7179680   4.8705760  48.5356330  13.9117750   5.8984700
  49.5517560  16.5915440   6.4574550  49.2230920  15.7767200   6.0776280
  50.4999860  16.5485250   6.3340240  52.0052170  32.3627480   3.4312120
  51.5455140  33.1143290   3.0570140  51.3764630  31.6433950   3.3726920
  38.8302790  28.4570720   5.8210840  38.1036850  27.8376010   5.7536790
  38.8911940  28.8511330   4.9508920  42.4347890  30.6715720   2.6060250
  42.9512910  30.0603080   2.0808510  43.0845270  31.1744500   3.0971260
  45.1743390  31.5624210   3.4329230  45.4621200  31.3078510   2.5562240
  45.6866610  31.0101570   4.0234800  46.3920400  15.3014410   4.0125740
  45.6092190  15.7759910   4.2922500  46.0983330  14.3969240   3.9038920
  45.2415750  32.4840310  10.7997430  46.1683060  32.2484580  10.8433390
  45.2266180  33.3112310  10.3183460  42.4279360  15.1485060  10.5639310
  42.1463630  15.6518660   9.8000130  42.8099060  14.3506810  10.1981440
  49.0294820  14.5638640  11.1419780  48.9160270  14.8833250  12.0371300
  49.8464560  14.9651150  10.8457060  51.8093310  31.7110170  10.6238470
  52.6018630  31.2159400  10.4164430  52.1026460  32.3900310  11.2314080
  47.9352970   3.8087620  75.3771970  47.8547020   2.8942230  75.1063680
  47.5217390   4.3054690  74.6711680  50.0878440   9.9926830  76.0380370
  49.6259970   9.2214070  76.3667540  50.9003990  10.0192900  76.5432820
  46.3141750  12.2784840  75.6584360  45.6953190  12.7342340  75.0878800
  47.1693530  12.4336300  75.2574060  47.1805100   7.1624080  73.0516270
  46.5622370   7.6273530  72.4878990  47.6928350   7.8551560  73.4685780
  36.5488300   7.8480610  70.4255900  36.1716280   8.3367710  69.6940800
  36.8061370   8.5205890  71.0562430  51.0037710   8.6880510  73.2639040
  50.8934040   7.7454840  73.3888460  51.0005960   9.0496150  74.1501800
  46.5457990   4.3145830  72.6201530  45.6187270   4.2483210  72.8490000
  46.6982810   5.2525960  72.5056770  50.5755280   5.8766130  73.1236780
  49.9567700   5.5385680  72.4763080  50.5579730   5.2325890  73.8315970
  42.1514630   4.8410570  75.4021260  41.7471630   4.1287820  74.9067160
  42.2377750   4.4963810  76.2909300  48.7519980   5.1152940  70.1309530
  49.1913260   4.2775370  69.9847350  49.4648400   5.7482340  70.2173670
  46.8615360  10.0549010  74.0990770  47.3011270  10.7973340  73.6846160
  46.8002250  10.2975580  75.0229730  38.8519260   3.7355550  72.9027910
  38.7316860   4.4617640  72.2909180  38.5420150   2.9658460  72.4255820
  37.7352260   8.6070880  75.1202730  37.3280340   8.7485470  74.2656330
  38.6265270   8.3231040  74.9173940  49.5285540  13.0418130  71.4553780
  49.3686680  12.7521070  72.3535610  49.3632250  12.2658260  70.9199010
  42.0073920  12.8216660  73.2325400  41.8316400  11.9052200  73.0193200
  41.1529660  13.1803950  73.4723200  49.2311670  10.5505690  70.0151780
  48.5376830  10.5482980  69.3554060  49.9734530  10.1265010  69.5845950
  48.7961600  12.1768400  74.0900270  49.2518550  11.3957780  74.4038890
  49.1354120  12.8875220  74.6341450  41.1097140   2.2024190  74.0132830
  40.8838060   1.9861360  74.9179450  40.3289670   2.6352650  73.6678800
  48.3394900   2.2087560  72.6123480  47.7403790   2.9323360  72.4287100
  48.8874510   2.1464340  71.8299930  43.0433950   3.4224270  69.5320090
  42.4750850   2.9742520  68.9056000  43.7522950   3.7817050  68.9985240
  40.5881430   7.4182460  71.8046500  39.8143690   6.8780080  71.6445220
  41.3176060   6.8989070  71.4664260  40.6318830   7.0862840  75.4425310
  41.1497500   6.2831100  75.3882200  40.1802850   7.0241980  76.2842140
  45.5188330   8.3529120  70.7152610  45.8604030   9.0971350  70.2195930
  44.6901040   8.6660240  71.0777440  51.7942010   3.4917270  69.5044300
  51.7105730   3.9231490  68.6540740  52.5136200   3.9515620  69.9371120
  52.8229260  10.3459530  72.2326430  52.1805420   9.6915150  72.5070150
  52.4359920  10.7514620  71.4567100  48.4015740   7.6744960  76.0798120
  48.7539560   7.0773090  75.4199490  47.5178070   7.3489190  76.2506370
  44.4879020   8.4342650  73.4868530  45.1750150   8.9811860  73.8676120
  43.7011440   8.9783380  73.5218140  36.6271420   4.0515470  68.9785610
  37.4966270   4.3340270  69.2621530  36.1361740   4.8651340  68.8634420
  43.7906230   5.4388680  73.0993890  44.2469010   6.2493930  73.3254080
  43.4394440   5.1211820  73.9312380  51.2126640   9.2375990  68.7702780
  50.9864220   8.5206430  69.3627420  50.8222840   8.9888430  67.9324530
  36.9942670  13.2642850  69.5447240  37.3540310  13.8632190  68.8904510
  36.8535010  13.8102740  70.3182270  50.7942890   7.1547930  70.4316940
  50.5064590   7.6160620  71.2194820  51.5895060   6.6945700  70.7001160
  43.0111290  10.6474050  70.3620910  43.0021390  11.3803740  69.7465420
  42.0909650  10.4005630  70.4547870  38.6117930   5.8688940  71.1067670
  38.0045880   6.6087840  71.1162970  39.0867280   5.9588300  70.2805870
  45.9970890  10.7102290  69.0246100  46.0982870  10.5066280  68.0948080
  45.0972630  10.4560570  69.2293880  44.6389000  13.2288610  73.7193770
  44.8930500  13.1910000  72.7973140  43.6901480  13.1021940  73.7122020
  50.6441580   4.1480490  75.2952280  49.7031720   4.1630720  75.4699970
  50.9585650   3.3616450  75.7412580  40.6223220   5.8300090  68.8556240
  41.3886490   5.7181450  69.4181670  40.6997910   5.1338060  68.2033010
  39.3169980   3.2625160  69.5389130  39.3973570   2.3152670  69.6506530
  40.2089730   3.5932040  69.6449790  40.1184690  13.4120550  76.6423670
  40.8547170  12.8636010  76.9132240  40.5025610  14.2776560  76.5029660
  37.0030170   9.4794120  72.5165180  36.0769950   9.7215260  72.5070590
  37.4686600  10.3068380  72.3949930  43.2287000  12.5850860  68.4649240
  44.0215610  12.8739690  68.0131030  42.7091350  12.1543030  67.7861720
  52.2817170  11.8120990  69.8885980  51.9958680  11.3986130  69.0740160
  52.0836720  12.7408700  69.7686500  43.7464400   7.8054270  68.3291590
  43.6415040   7.1906620  69.0552970  43.5788620   7.2820160  67.5454600
  46.9867130   6.8674300  68.9333580  46.4377230   7.3143600  69.5776320
  47.6086390   6.3623550  69.4571250  42.6542250   5.8265220  70.8298880
  43.0758670   5.6605090  71.6730270  42.7793090   5.0165450  70.3354020
  45.1669890   4.8502830  68.0775980  45.6875550   4.1351850  67.7117130
  45.8138290   5.4888700  68.3776490  45.7317920  12.9314440  70.3677720
  46.6268710  13.2699410  70.3896480  45.7635550  12.2093850  69.7402000
  39.3714080   8.3041490  68.5964720  39.8088950   8.8471160  69.2522300
  39.8561810   7.4788440  68.6061060  36.5859880  11.0930520  76.0484980
  36.9162890  10.2251580  75.8163620  37.0150880  11.2989040  76.8789940
  41.1821800   9.4239530  73.7086950  40.8817340   9.3004500  74.6090860
  41.0759290   8.5648120  73.3002680  53.9513720   9.2035930  68.4113630
  53.1206680   9.2712580  68.8820860  54.1285550  10.0940050  68.1080490
  53.4070180   5.9483410  70.9147830  54.1689090   6.5180060  71.0207520
  53.4224550   5.3810610  71.6856140  36.9074520   4.4721340  75.1455490
  36.2523360   4.2032980  74.5015190  37.7452470   4.3625820  74.6957470
  54.4130150   6.8033510  75.7589760  54.7838980   6.0200830  75.3525730
  55.0532080   7.4922610  75.5807060  53.4589350   6.2417780  68.0720350
  53.7338190   7.1496660  67.9439570  53.2700090   6.1780310  69.0082340
  53.3554690   4.1786770  73.0649780  52.9798290   3.4114700  72.6331070
  52.6257810   4.5609470  73.5524710  52.6305650   2.4044260  76.3657020
  53.1543130   1.9106910  75.7347190  53.2165070   2.5394620  77.1104590
  51.4539960  12.9388690  74.6988350  52.0499030  12.6173260  74.0222770
  51.7118110  12.4660510  75.4901620  37.1132790  13.0001620  74.1281560
  36.9454830  12.3672300  74.8263450  36.2467300  13.2061020  73.7775750
  38.7195490  11.6934850  71.5731700  38.1943110  12.0742880  70.8693660
  38.6440070  12.3185620  72.2941410  53.4760810  13.2522390  72.8945640
  53.6513000  12.5660130  72.2506560  52.7782380  13.7769440  72.5022310
  41.3188460  13.6417230  70.4480950  42.0507280  13.3576510  69.9004840
  41.5782130  13.4030510  71.3380330  40.4803250   9.7581960  70.4527280
  39.8512130  10.2267060  71.0013110  40.5951080   8.9131180  70.8873470
  47.9352970   3.8087620  56.6028480  47.8547020   2.8942230  56.3320190
  47.5217390   4.3054690  55.8968190  46.0671010   5.5866640  58.4837750
  45.2913110   5.1067080  58.7736320  46.7183940   4.9072290  58.3093910
  40.0836840   5.8986450  59.3613510  39.2521720   5.6435160  59.7610020
  40.6917820   5.9697220  60.0971430  50.0878440   9.9926830  57.2636880
  49.6259970   9.2214070  57.5924050  50.9003990  10.0192900  57.7689330
  40.0638100   9.9326540  59.5571530  40.3666140   9.0424280  59.3781750
  40.8081690  10.4896760  59.3293780  36.4561800   3.4593990  59.0295600
  37.0277910   2.6916190  59.0299240  36.4563340   3.7582750  58.1202210
  46.3141750  12.2784840  56.8840870  45.6953190  12.7342340  56.3135310
  47.1693530  12.4336300  56.4830570  45.5080000   8.2623830  58.4907910
  45.4388280   7.3213770  58.3297040  46.2699860   8.3525240  59.0630480
  47.1805100   7.1624080  54.2772780  46.5622370   7.6273530  53.7135500
  47.6928350   7.8551560  54.6942290  42.0436860   6.6899950  60.9556380
  41.7106240   7.3168870  61.5977450  42.2203540   7.2161830  60.1758050
  41.2555960   8.6580750  62.7705560  41.8729960   9.3331830  62.4890010
  40.3949080   9.0668730  62.6793060  36.5488300   7.8480610  51.6512410
  36.1716280   8.3367710  50.9197310  36.8061370   8.5205890  52.2818940
  52.1733550  10.1220160  60.6860200  51.4897070  10.7919270  60.6776870
  52.7127840  10.3200810  59.9205060  49.7092290  11.9664290  59.4005380
  49.7219450  11.5626580  58.5327640  49.1567510  12.7411580  59.2966810
  51.0037710   8.6880510  54.4895550  50.8934040   7.7454840  54.6144970
  51.0005960   9.0496150  55.3758310  49.1077730   6.8694130  60.7287990
  49.5246520   6.6554240  59.8941450  49.8317550   7.1266920  61.2996610
  46.5457990   4.3145830  53.8458040  45.6187270   4.2483210  54.0746510
  46.6982810   5.2525960  53.7313280  53.0539830   5.2681350  60.8204230
  52.2258460   5.3374440  60.3454360  53.6490310   5.8535660  60.3520060
  50.5755280   5.8766130  54.3493290  49.9567700   5.5385680  53.7019590
  50.5579730   5.2325890  55.0572480  42.1514630   4.8410570  56.6277770
  41.7471630   4.1287820  56.1323670  42.2377750   4.4963810  57.5165810
  42.6196330   8.5278130  58.7916980  42.3224620   7.9223600  58.1124760
  43.5696150   8.5655440  58.6806340  50.7081940  12.1010000  62.4540080
  50.2312500  12.9082190  62.2612690  50.0243730  11.4488330  62.6066290
  41.7114760   8.2659820  65.4424780  40.8143290   8.4899790  65.6898180
  41.7367630   8.3894760  64.4936180  48.7519980   5.1152940  51.3566040
  49.1913260   4.2775370  51.2103860  49.4648400   5.7482340  51.4430180
  40.5385980   5.1373140  64.0182150  40.3993750   6.0095940  64.3869550
  39.6567340   4.7945950  63.8730090  46.8615360  10.0549010  55.3247280
  47.3011270  10.7973340  54.9102670  46.8002250  10.2975580  56.2486240
  42.3366330  11.0794840  66.2267300  42.3081760  11.4837790  65.3595730
  42.1731300  10.1505200  66.0638900  38.8519260   3.7355550  54.1284420
  38.7316860   4.4617640  53.5165690  38.5420150   2.9658460  53.6512330
  54.2881150  11.8621940  67.5231470  54.7640870  12.3404830  68.2020550
  54.9088310  11.7939430  66.7976970  36.4904630   6.9070690  59.9353060
  36.5685050   7.0419460  58.9908780  37.1046310   6.1986580  60.1281180
  37.7352260   8.6070880  56.3459240  37.3280340   8.7485470  55.4912840
  38.6265270   8.3231040  56.1430450  53.6914400   9.0534790  64.6831480
  53.8177460   8.8146670  63.7648660  53.7335780   8.2219330  65.1553560
  47.5531140  12.7562790  63.2526290  48.0675810  12.6670800  64.0548720
  46.7100220  13.1022490  63.5454200  49.5285540  13.0418130  52.6810290
  49.3686680  12.7521070  53.5792120  49.3632250  12.2658260  52.1455520
  42.0073920  12.8216660  54.4581910  41.8316400  11.9052200  54.2449710
  41.1529660  13.1803950  54.6979710  49.2311670  10.5505690  51.2408290
  48.5376830  10.5482980  50.5810570  49.9734530  10.1265010  50.8102460
  48.7961600  12.1768400  55.3156780  49.2518550  11.3957780  55.6295400
  49.1354120  12.8875220  55.8597960  36.5464150   7.9484860  62.4747520
  36.7095190   7.4790220  61.6566890  37.0116600   7.4408420  63.1396360
  47.7006950   2.6669840  66.3438860  48.0260360   1.8333590  66.0041090
  48.4887280   3.1898360  66.4917190  41.1097140   2.2024190  55.2389340
  40.8838060   1.9861360  56.1435960  40.3289670   2.6352650  54.8935310
  48.3394900   2.2087560  53.8379990  47.7403790   2.9323360  53.6543610
  48.8874510   2.1464340  53.0556440  43.5496350   3.1009770  65.9049610
  43.4539950   2.1604500  65.7550010  44.3928330   3.3224840  65.5097680
  47.5314910   3.4356850  59.9634050  46.7996030   3.9443660  60.3124150
  47.1339250   2.6186830  59.6622830  43.0433950   3.4224270  50.7576600
  42.4750850   2.9742520  50.1312510  43.7522950   3.7817050  50.2241750
  38.1203130   7.3236290  64.6343330  37.7357920   6.6829960  65.2326290
  38.4315320   8.0272410  65.2038060  44.2700270   4.1712830  60.1151950
  44.6370400   3.6971400  60.8613290  44.0805330   5.0454400  60.4560290
  42.0599640   3.2121470  62.4336160  41.7556710   4.0913450  62.6586520
  43.0146100   3.2721260  62.4693600  40.5881430   7.4182460  53.0303010
  39.8143690   6.8780080  52.8701730  41.3176060   6.8989070  52.6920770
  51.3469410   6.4147820  58.8229400  52.0668530   6.9103110  58.4325510
  51.1451230   5.7365710  58.1783270  46.7288210   6.4856880  64.7098400
  46.6625520   5.5652550  64.4555990  46.0993350   6.5832320  65.4243040
  40.6318830   7.0862840  56.6681820  41.1497500   6.2831100  56.6138710
  40.1802850   7.0241980  57.5098650  45.5188330   8.3529120  51.9409120
  45.8604030   9.0971350  51.4452440  44.6901040   8.6660240  52.3033950
  38.1163370   4.0524210  63.5807520  37.7578310   4.7178060  64.1680860
  37.8217930   3.2207760  63.9520140  41.3176490   4.5108450  66.4647070
  41.0176630   4.6565630  65.5674890  42.0887730   3.9513740  66.3720460
  46.6604940   9.3077450  64.4602200  46.6749480   8.3758410  64.2421110
  45.9530040   9.3937210  65.0991970  51.7942010   3.4917270  50.7300810
  51.7105730   3.9231490  49.8797250  52.5136200   3.9515620  51.1627630
  52.8716150   5.9484790  63.8070780  52.1464340   6.5413570  63.6100170
  53.3991610   5.9408330  63.0084150  52.8229260  10.3459530  53.4582940
  52.1805420   9.6915150  53.7326660  52.4359920  10.7514620  52.6823610
  48.4015740   7.6744960  57.3054630  48.7539560   7.0773090  56.6456000
  47.5178070   7.3489190  57.4762880  44.4879020   8.4342650  54.7125040
  45.1750150   8.9811860  55.0932630  43.7011440   8.9783380  54.7474650
  36.6271420   4.0515470  50.2042120  37.4966270   4.3340270  50.4878040
  36.1361740   4.8651340  50.0890930  43.7906230   5.4388680  54.3250400
  44.2469010   6.2493930  54.5510590  43.4394440   5.1211820  55.1568890
  46.0938840  10.9495020  61.5542700  46.7381060  11.1554400  62.2316120
  46.4568280  10.1883420  61.1013550  47.3670920   8.9527370  60.2720150
  48.0093150   8.2520530  60.3852320  47.8920270   9.7325810  60.0917040
  51.2126640   9.2375990  49.9959290  50.9864220   8.5206430  50.5883930
  50.8222840   8.9888430  49.1581040  49.1408540   9.7522270  63.4756210
  49.4764780  10.3388960  64.1534130  48.2208880   9.6214980  63.7054000
  36.9942670  13.2642850  50.7703750  37.3540310  13.8632190  50.1161020
  36.8535010  13.8102740  51.5438780  50.7942890   7.1547930  51.6573450
  50.5064590   7.6160620  52.4451330  51.5895060   6.6945700  51.9257670
  36.9784530  11.5297710  65.2446150  37.0875650  10.5892450  65.1041540
  36.3265090  11.7952460  64.5959880  44.9697120   9.8013600  66.6444270
  44.6493990   9.0822840  67.1889960  44.2955480  10.4768670  66.7180330
  43.0111290  10.6474050  51.5877420  43.0021390  11.3803740  50.9721930
  42.0909650  10.4005630  51.6804380  38.6117930   5.8688940  52.3324180
  38.0045880   6.6087840  52.3419480  39.0867280   5.9588300  51.5062380
  45.9970890  10.7102290  50.2502610  46.0982870  10.5066280  49.3204590
  45.0972630  10.4560570  50.4550390  45.1452710   2.6879350  62.2319040
  45.6437960   3.1625170  62.8970890  45.2875660   1.7642870  62.4389070
  44.6389000  13.2288610  54.9450280  44.8930500  13.1910000  54.0229650
  43.6901480  13.1021940  54.9378530  50.6441580   4.1480490  56.5208790
  49.7031720   4.1630720  56.6956480  50.9585650   3.3616450  56.9669090
  40.6223220   5.8300090  50.0812750  41.3886490   5.7181450  50.6438180
  40.6997910   5.1338060  49.4289520  39.3169980   3.2625160  50.7645640
  39.3973570   2.3152670  50.8763040  40.2089730   3.5932040  50.8706300
  52.6467160  11.3189340  58.1963050  52.7714580  12.1420510  58.6686860
  53.5132720  11.1080070  57.8487200  40.1184690  13.4120550  57.8680180
  40.8547170  12.8636010  58.1388750  40.5025610  14.2776560  57.7286170
  37.0030170   9.4794120  53.7421690  36.0769950   9.7215260  53.7327100
  37.4686600  10.3068380  53.6206440  39.1242970  12.5966620  67.0565760
  39.9255700  12.9178670  67.4701160  38.6094790  12.2362200  67.7785670
  43.2287000  12.5850860  49.6905750  44.0215610  12.8739690  49.2387540
  42.7091350  12.1543030  49.0118230  47.9607600   8.7046490  67.0041170
  47.3545760   8.7278090  66.2636920  47.6561710   7.9729530  67.5408420
  49.3907970  12.4326780  65.6150580  50.3429720  12.3484800  65.5650820
  49.2436190  13.0968490  66.2884370  52.2817170  11.8120990  51.1142490
  51.9958680  11.3986130  50.2996670  52.0836720  12.7408700  50.9943010
  36.8440780   5.0840080  66.0001810  37.3479800   4.5047360  66.5718040
  36.1048200   5.3680310  66.5378180  43.7464400   7.8054270  49.5548100
  43.6415040   7.1906620  50.2809480  43.5788620   7.2820160  48.7711110
  43.8978720   6.4911070  65.5337330  43.1324390   7.0596070  65.4492000
  44.0794680   6.1987280  64.6405560  46.9867130   6.8674300  50.1590090
  46.4377230   7.3143600  50.8032830  47.6086390   6.3623550  50.6827760
  51.0402070   8.2216400  66.0912350  51.7811540   8.5592160  65.5879810
  50.2774750   8.3908460  65.5382120  38.8763860   3.2269670  66.8951880
  38.9169200   2.9283540  67.8037110  39.7309360   3.6277280  66.7359400
  42.6542250   5.8265220  52.0555390  43.0758670   5.6605090  52.8986780
  42.7793090   5.0165450  51.5610530  45.1669890   4.8502830  49.3032490
  45.6875550   4.1351850  48.9373640  45.8138290   5.4888700  49.6033000
  49.7147730   6.2731230  64.6267560  50.1288750   6.4276310  65.4757980
  48.7798730   6.3986450  64.7893340  50.1869900   3.6127390  66.6306710
  50.7690670   2.8579710  66.5427190  50.3631670   4.1434830  65.8538190
  44.4762960   6.2251710  62.5963490  44.8951070   7.0684440  62.4239730
  43.5571590   6.3623750  62.3670270  46.8126860   3.9567890  63.9801330
  46.9323070   3.3609030  64.7196170  47.6720860   3.9937580  63.5602630
  49.1514760   4.5105080  62.5563840  48.6249980   5.0347700  61.9528980
  49.4946100   5.1432470  63.1873570  42.3270380  12.5304720  63.7121220
  41.7891470  13.2550780  63.3929920  42.5804340  12.0535060  62.9218560
  45.1832590  13.7655930  63.9707870  45.1091290  14.6691070  64.2780240
  44.2811430  13.4467830  63.9429940  45.7317920  12.9314440  51.5934230
  46.6268710  13.2699410  51.6152990  45.7635550  12.2093850  50.9658510
  39.3714080   8.3041490  49.8221230  39.8088950   8.8471160  50.4778810
  39.8561810   7.4788440  49.8317570  36.5859880  11.0930520  57.2741490
  36.9162890  10.2251580  57.0420130  37.0150880  11.2989040  58.1046450
  41.1821800   9.4239530  54.9343460  40.8817340   9.3004500  55.8347370
  41.0759290   8.5648120  54.5259190  37.0750090  11.9601110  60.0123120
  36.6381080  12.1401910  60.8447270  37.6427770  12.7175730  59.8704840
  52.7112270  11.4618110  64.3000430  52.1114260  11.5210670  63.5564350
  52.8406170  10.5223090  64.4297280  53.9513720   9.2035930  49.6370140
  53.1206680   9.2712580  50.1077370  54.1285550  10.0940050  49.3337000
  53.4070180   5.9483410  52.1404340  54.1689090   6.5180060  52.2464030
  53.4224550   5.3810610  52.9112650  36.9074520   4.4721340  56.3712000
  36.2523360   4.2032980  55.7271700  37.7452470   4.3625820  55.9213980
  54.4130150   6.8033510  56.9846270  54.7838980   6.0200830  56.5782240
  55.0532080   7.4922610  56.8063570  51.3963910   8.1870090  62.3976590
  50.5823750   8.6167250  62.6602380  51.8038110   8.7988500  61.7845640
  53.4589350   6.2417780  49.2976860  53.7338190   7.1496660  49.1696080
  53.2700090   6.1780310  50.2338850  53.3554690   4.1786770  54.2906290
  52.9798290   3.4114700  53.8587580  52.6257810   4.5609470  54.7781220
  37.9450450   4.8573910  60.9115340  38.3123490   4.7701310  61.7911360
  37.3761270   4.0940460  60.8122200  52.7454310   3.3258290  63.9245810
  52.5140400   3.0971040  63.0243760  53.0058860   4.2457840  63.8790700
  37.4966450   1.7683000  64.8173760  36.6022500   1.7349760  65.1567470
  38.0364000   1.9669790  65.5825010  52.6305650   2.4044260  57.5913530
  53.1543130   1.9106910  56.9603700  53.2165070   2.5394620  58.3361100
  52.8095370   2.4884130  61.1133080  51.8598080   2.4547670  61.2278070
  52.9908380   3.3984240  60.8782850  51.4539960  12.9388690  55.9244860
  52.0499030  12.6173260  55.2479280  51.7118110  12.4660510  56.7158130
  39.3602530   9.3706600  66.0735490  39.3172160   8.9999510  66.9549950
  39.4913540  10.3084170  66.2137310  43.0608560  10.9266190  61.6745210
  42.8199920  11.1940750  60.7875730  44.0011200  11.0971920  61.7296070
  54.3212720  12.9460570  62.4755850  53.8271000  13.3429440  61.7582980
  53.7126010  12.3209780  62.8693130  39.1990560  12.3168850  63.1933270
  38.6050880  12.1853550  63.9323310  39.1914400  11.4806990  62.7275370
  52.0052170  13.5883990  59.7542590  51.5455140  14.3399800  59.3800610
  51.3764630  12.8690460  59.6957390  38.8302790   9.6827230  62.1441310
  38.1036850   9.0632520  62.0767260  38.8911940  10.0767840  61.2739390
  42.4347890  11.8972230  58.9290720  42.9512910  11.2859590  58.4038980
  43.0845270  12.4001010  59.4201730  45.1743390  12.7880720  59.7559700
  45.4621200  12.5335020  58.8792710  45.6866610  12.2358080  60.3465270
  37.1132790  13.0001620  55.3538070  36.9454830  12.3672300  56.0519960
  36.2467300  13.2061020  55.0032260  38.7195490  11.6934850  52.7988210
  38.1943110  12.0742880  52.0950170  38.6440070  12.3185620  53.5197920
  45.2415750  13.7096820  67.1227900  46.1683060  13.4741090  67.1663860
  45.2266180  14.5368820  66.6413930  53.4760810  13.2522390  54.1202150
  53.6513000  12.5660130  53.4763070  52.7782380  13.7769440  53.7278820
  41.3188460  13.6417230  51.6737460  42.0507280  13.3576510  51.1261350
  41.5782130  13.4030510  52.5636840  40.4803250   9.7581960  51.6783790
  39.8512130  10.2267060  52.2269620  40.5951080   8.9131180  52.1129980
  51.8093310  12.9366680  66.9468940  52.6018630  12.4415910  66.7394900
  52.1026460  13.6156820  67.5544550  47.9352970   3.8087620  37.8284990
  47.8547020   2.8942230  37.5576700  47.5217390   4.3054690  37.1224700
  46.0671010   5.5866640  39.7094260  45.2913110   5.1067080  39.9992830
  46.7183940   4.9072290  39.5350420  40.0836840   5.8986450  40.5870020
  39.2521720   5.6435160  40.9866530  40.6917820   5.9697220  41.3227940
  50.0878440   9.9926830  38.4893390  49.6259970   9.2214070  38.8180560
  50.9003990  10.0192900  38.9945840  40.0638100   9.9326540  40.7828040
  40.3666140   9.0424280  40.6038260  40.8081690  10.4896760  40.5550290
  36.4561800   3.4593990  40.2552110  37.0277910   2.6916190  40.2555750
  36.4563340   3.7582750  39.3458720  46.3141750  12.2784840  38.1097380
  45.6953190  12.7342340  37.5391820  47.1693530  12.4336300  37.7087080
  45.5080000   8.2623830  39.7164420  45.4388280   7.3213770  39.5553550
  46.2699860   8.3525240  40.2886990  47.1805100   7.1624080  35.5029290
  46.5622370   7.6273530  34.9392010  47.6928350   7.8551560  35.9198800
  42.0436860   6.6899950  42.1812890  41.7106240   7.3168870  42.8233960
  42.2203540   7.2161830  41.4014560  41.2555960   8.6580750  43.9962070
  41.8729960   9.3331830  43.7146520  40.3949080   9.0668730  43.9049570
  36.5488300   7.8480610  32.8768920  36.1716280   8.3367710  32.1453820
  36.8061370   8.5205890  33.5075450  52.1733550  10.1220160  41.9116710
  51.4897070  10.7919270  41.9033380  52.7127840  10.3200810  41.1461570
  49.7092290  11.9664290  40.6261890  49.7219450  11.5626580  39.7584150
  49.1567510  12.7411580  40.5223320  51.0037710   8.6880510  35.7152060
  50.8934040   7.7454840  35.8401480  51.0005960   9.0496150  36.6014820
  49.1077730   6.8694130  41.9544500  49.5246520   6.6554240  41.1197960
  49.8317550   7.1266920  42.5253120  46.5457990   4.3145830  35.0714550
  45.6187270   4.2483210  35.3003020  46.6982810   5.2525960  34.9569790
  53.0539830   5.2681350  42.0460740  52.2258460   5.3374440  41.5710870
  53.6490310   5.8535660  41.5776570  50.5755280   5.8766130  35.5749800
  49.9567700   5.5385680  34.9276100  50.5579730   5.2325890  36.2828990
  42.1514630   4.8410570  37.8534280  41.7471630   4.1287820  37.3580180
  42.2377750   4.4963810  38.7422320  42.6196330   8.5278130  40.0173490
  42.3224620   7.9223600  39.3381270  43.5696150   8.5655440  39.9062850
  50.7081940  12.1010000  43.6796590  50.2312500  12.9082190  43.4869200
  50.0243730  11.4488330  43.8322800  41.7114760   8.2659820  46.6681290
  40.8143290   8.4899790  46.9154690  41.7367630   8.3894760  45.7192690
  48.7519980   5.1152940  32.5822550  49.1913260   4.2775370  32.4360370
  49.4648400   5.7482340  32.6686690  40.5385980   5.1373140  45.2438660
  40.3993750   6.0095940  45.6126060  39.6567340   4.7945950  45.0986600
  46.8615360  10.0549010  36.5503790  47.3011270  10.7973340  36.1359180
  46.8002250  10.2975580  37.4742750  42.3366330  11.0794840  47.4523810
  42.3081760  11.4837790  46.5852240  42.1731300  10.1505200  47.2895410
  38.8519260   3.7355550  35.3540930  38.7316860   4.4617640  34.7422200
  38.5420150   2.9658460  34.8768840  54.2881150  11.8621940  48.7487980
  54.7640870  12.3404830  49.4277060  54.9088310  11.7939430  48.0233480
  36.4904630   6.9070690  41.1609570  36.5685050   7.0419460  40.2165290
  37.1046310   6.1986580  41.3537690  37.7352260   8.6070880  37.5715750
  37.3280340   8.7485470  36.7169350  38.6265270   8.3231040  37.3686960
  53.6914400   9.0534790  45.9087990  53.8177460   8.8146670  44.9905170
  53.7335780   8.2219330  46.3810070  47.5531140  12.7562790  44.4782800
  48.0675810  12.6670800  45.2805230  46.7100220  13.1022490  44.7710710
  49.5285540  13.0418130  33.9066800  49.3686680  12.7521070  34.8048630
  49.3632250  12.2658260  33.3712030  42.0073920  12.8216660  35.6838420
  41.8316400  11.9052200  35.4706220  41.1529660  13.1803950  35.9236220
  49.2311670  10.5505690  32.4664800  48.5376830  10.5482980  31.8067080
  49.9734530  10.1265010  32.0358970  48.7961600  12.1768400  36.5413290
  49.2518550  11.3957780  36.8551910  49.1354120  12.8875220  37.0854470
  36.5464150   7.9484860  43.7004030  36.7095190   7.4790220  42.8823400
  37.0116600   7.4408420  44.3652870  47.7006950   2.6669840  47.5695370
  48.0260360   1.8333590  47.2297600  48.4887280   3.1898360  47.7173700
  41.1097140   2.2024190  36.4645850  40.8838060   1.9861360  37.3692470
  40.3289670   2.6352650  36.1191820  48.3394900   2.2087560  35.0636500
  47.7403790   2.9323360  34.8800120  48.8874510   2.1464340  34.2812950
  43.5496350   3.1009770  47.1306120  43.4539950   2.1604500  46.9806520
  44.3928330   3.3224840  46.7354190  47.5314910   3.4356850  41.1890560
  46.7996030   3.9443660  41.5380660  47.1339250   2.6186830  40.8879340
  43.0433950   3.4224270  31.9833110  42.4750850   2.9742520  31.3569020
  43.7522950   3.7817050  31.4498260  38.1203130   7.3236290  45.8599840
  37.7357920   6.6829960  46.4582800  38.4315320   8.0272410  46.4294570
  44.2700270   4.1712830  41.3408460  44.6370400   3.6971400  42.0869800
  44.0805330   5.0454400  41.6816800  42.0599640   3.2121470  43.6592670
  41.7556710   4.0913450  43.8843030  43.0146100   3.2721260  43.6950110
  40.5881430   7.4182460  34.2559520  39.8143690   6.8780080  34.0958240
  41.3176060   6.8989070  33.9177280  51.3469410   6.4147820  40.0485910
  52.0668530   6.9103110  39.6582020  51.1451230   5.7365710  39.4039780
  46.7288210   6.4856880  45.9354910  46.6625520   5.5652550  45.6812500
  46.0993350   6.5832320  46.6499550  40.6318830   7.0862840  37.8938330
  41.1497500   6.2831100  37.8395220  40.1802850   7.0241980  38.7355160
  45.5188330   8.3529120  33.1665630  45.8604030   9.0971350  32.6708950
  44.6901040   8.6660240  33.5290460  38.1163370   4.0524210  44.8064030
  37.7578310   4.7178060  45.3937370  37.8217930   3.2207760  45.1776650
  41.3176490   4.5108450  47.6903580  41.0176630   4.6565630  46.7931400
  42.0887730   3.9513740  47.5976970  46.6604940   9.3077450  45.6858710
  46.6749480   8.3758410  45.4677620  45.9530040   9.3937210  46.3248480
  51.7942010   3.4917270  31.9557320  51.7105730   3.9231490  31.1053760
  52.5136200   3.9515620  32.3884140  52.8716150   5.9484790  45.0327290
  52.1464340   6.5413570  44.8356680  53.3991610   5.9408330  44.2340660
  52.8229260  10.3459530  34.6839450  52.1805420   9.6915150  34.9583170
  52.4359920  10.7514620  33.9080120  48.4015740   7.6744960  38.5311140
  48.7539560   7.0773090  37.8712510  47.5178070   7.3489190  38.7019390
  44.4879020   8.4342650  35.9381550  45.1750150   8.9811860  36.3189140
  43.7011440   8.9783380  35.9731160  36.6271420   4.0515470  31.4298630
  37.4966270   4.3340270  31.7134550  36.1361740   4.8651340  31.3147440
  43.7906230   5.4388680  35.5506910  44.2469010   6.2493930  35.7767100
  43.4394440   5.1211820  36.3825400  46.0938840  10.9495020  42.7799210
  46.7381060  11.1554400  43.4572630  46.4568280  10.1883420  42.3270060
  47.3670920   8.9527370  41.4976660  48.0093150   8.2520530  41.6108830
  47.8920270   9.7325810  41.3173550  51.2126640   9.2375990  31.2215800
  50.9864220   8.5206430  31.8140440  50.8222840   8.9888430  30.3837550
  49.1408540   9.7522270  44.7012720  49.4764780  10.3388960  45.3790640
  48.2208880   9.6214980  44.9310510  36.9942670  13.2642850  31.9960260
  37.3540310  13.8632190  31.3417530  36.8535010  13.8102740  32.7695290
  50.7942890   7.1547930  32.8829960  50.5064590   7.6160620  33.6707840
  51.5895060   6.6945700  33.1514180  36.9784530  11.5297710  46.4702660
  37.0875650  10.5892450  46.3298050  36.3265090  11.7952460  45.8216390
  44.9697120   9.8013600  47.8700780  44.6493990   9.0822840  48.4146470
  44.2955480  10.4768670  47.9436840  43.0111290  10.6474050  32.8133930
  43.0021390  11.3803740  32.1978440  42.0909650  10.4005630  32.9060890
  38.6117930   5.8688940  33.5580690  38.0045880   6.6087840  33.5675990
  39.0867280   5.9588300  32.7318890  45.9970890  10.7102290  31.4759120
  46.0982870  10.5066280  30.5461100  45.0972630  10.4560570  31.6806900
  45.1452710   2.6879350  43.4575550  45.6437960   3.1625170  44.1227400
  45.2875660   1.7642870  43.6645580  44.6389000  13.2288610  36.1706790
  44.8930500  13.1910000  35.2486160  43.6901480  13.1021940  36.1635040
  50.6441580   4.1480490  37.7465300  49.7031720   4.1630720  37.9212990
  50.9585650   3.3616450  38.1925600  40.6223220   5.8300090  31.3069260
  41.3886490   5.7181450  31.8694690  40.6997910   5.1338060  30.6546030
  39.3169980   3.2625160  31.9902150  39.3973570   2.3152670  32.1019550
  40.2089730   3.5932040  32.0962810  52.6467160  11.3189340  39.4219560
  52.7714580  12.1420510  39.8943370  53.5132720  11.1080070  39.0743710
  40.1184690  13.4120550  39.0936690  40.8547170  12.8636010  39.3645260
  40.5025610  14.2776560  38.9542680  37.0030170   9.4794120  34.9678200
  36.0769950   9.7215260  34.9583610  37.4686600  10.3068380  34.8462950
  39.1242970  12.5966620  48.2822270  39.9255700  12.9178670  48.6957670
  38.6094790  12.2362200  49.0042180  43.2287000  12.5850860  30.9162260
  44.0215610  12.8739690  30.4644050  42.7091350  12.1543030  30.2374740
  47.9607600   8.7046490  48.2297680  47.3545760   8.7278090  47.4893430
  47.6561710   7.9729530  48.7664930  49.3907970  12.4326780  46.8407090
  50.3429720  12.3484800  46.7907330  49.2436190  13.0968490  47.5140880
  52.2817170  11.8120990  32.3399000  51.9958680  11.3986130  31.5253180
  52.0836720  12.7408700  32.2199520  36.8440780   5.0840080  47.2258320
  37.3479800   4.5047360  47.7974550  36.1048200   5.3680310  47.7634690
  43.7464400   7.8054270  30.7804610  43.6415040   7.1906620  31.5065990
  43.5788620   7.2820160  29.9967620  43.8978720   6.4911070  46.7593840
  43.1324390   7.0596070  46.6748510  44.0794680   6.1987280  45.8662070
  46.9867130   6.8674300  31.3846600  46.4377230   7.3143600  32.0289340
  47.6086390   6.3623550  31.9084270  51.0402070   8.2216400  47.3168860
  51.7811540   8.5592160  46.8136320  50.2774750   8.3908460  46.7638630
  38.8763860   3.2269670  48.1208390  38.9169200   2.9283540  49.0293620
  39.7309360   3.6277280  47.9615910  42.6542250   5.8265220  33.2811900
  43.0758670   5.6605090  34.1243290  42.7793090   5.0165450  32.7867040
  45.1669890   4.8502830  30.5289000  45.6875550   4.1351850  30.1630150
  45.8138290   5.4888700  30.8289510  49.7147730   6.2731230  45.8524070
  50.1288750   6.4276310  46.7014490  48.7798730   6.3986450  46.0149850
  50.1869900   3.6127390  47.8563220  50.7690670   2.8579710  47.7683700
  50.3631670   4.1434830  47.0794700  44.4762960   6.2251710  43.8220000
  44.8951070   7.0684440  43.6496240  43.5571590   6.3623750  43.5926780
  46.8126860   3.9567890  45.2057840  46.9323070   3.3609030  45.9452680
  47.6720860   3.9937580  44.7859140  49.1514760   4.5105080  43.7820350
  48.6249980   5.0347700  43.1785490  49.4946100   5.1432470  44.4130080
  42.3270380  12.5304720  44.9377730  41.7891470  13.2550780  44.6186430
  42.5804340  12.0535060  44.1475070  45.1832590  13.7655930  45.1964380
  45.1091290  14.6691070  45.5036750  44.2811430  13.4467830  45.1686450
  45.7317920  12.9314440  32.8190740  46.6268710  13.2699410  32.8409500
  45.7635550  12.2093850  32.1915020  39.3714080   8.3041490  31.0477740
  39.8088950   8.8471160  31.7035320  39.8561810   7.4788440  31.0574080
  36.5859880  11.0930520  38.4998000  36.9162890  10.2251580  38.2676640
  37.0150880  11.2989040  39.3302960  41.1821800   9.4239530  36.1599970
  40.8817340   9.3004500  37.0603880  41.0759290   8.5648120  35.7515700
  37.0750090  11.9601110  41.2379630  36.6381080  12.1401910  42.0703780
  37.6427770  12.7175730  41.0961350  52.7112270  11.4618110  45.5256940
  52.1114260  11.5210670  44.7820860  52.8406170  10.5223090  45.6553790
  53.9513720   9.2035930  30.8626650  53.1206680   9.2712580  31.3333880
  54.1285550  10.0940050  30.5593510  53.4070180   5.9483410  33.3660850
  54.1689090   6.5180060  33.4720540  53.4224550   5.3810610  34.1369160
  36.9074520   4.4721340  37.5968510  36.2523360   4.2032980  36.9528210
  37.7452470   4.3625820  37.1470490  54.4130150   6.8033510  38.2102780
  54.7838980   6.0200830  37.8038750  55.0532080   7.4922610  38.0320080
  51.3963910   8.1870090  43.6233100  50.5823750   8.6167250  43.8858890
  51.8038110   8.7988500  43.0102150  53.4589350   6.2417780  30.5233370
  53.7338190   7.1496660  30.3952590  53.2700090   6.1780310  31.4595360
  53.3554690   4.1786770  35.5162800  52.9798290   3.4114700  35.0844090
  52.6257810   4.5609470  36.0037730  37.9450450   4.8573910  42.1371850
  38.3123490   4.7701310  43.0167870  37.3761270   4.0940460  42.0378710
  52.7454310   3.3258290  45.1502320  52.5140400   3.0971040  44.2500270
  53.0058860   4.2457840  45.1047210  37.4966450   1.7683000  46.0430270
  36.6022500   1.7349760  46.3823980  38.0364000   1.9669790  46.8081520
  52.6305650   2.4044260  38.8170040  53.1543130   1.9106910  38.1860210
  53.2165070   2.5394620  39.5617610  52.8095370   2.4884130  42.3389590
  51.8598080   2.4547670  42.4534580  52.9908380   3.3984240  42.1039360
  51.4539960  12.9388690  37.1501370  52.0499030  12.6173260  36.4735790
  51.7118110  12.4660510  37.9414640  39.3602530   9.3706600  47.2992000
  39.3172160   8.9999510  48.1806460  39.4913540  10.3084170  47.4393820
  43.0608560  10.9266190  42.9001720  42.8199920  11.1940750  42.0132240
  44.0011200  11.0971920  42.9552580  54.3212720  12.9460570  43.7012360
  53.8271000  13.3429440  42.9839490  53.7126010  12.3209780  44.0949640
  39.1990560  12.3168850  44.4189780  38.6050880  12.1853550  45.1579820
  39.1914400  11.4806990  43.9531880  52.0052170  13.5883990  40.9799100
  51.5455140  14.3399800  40.6057120  51.3764630  12.8690460  40.9213900
  38.8302790   9.6827230  43.3697820  38.1036850   9.0632520  43.3023770
  38.8911940  10.0767840  42.4995900  42.4347890  11.8972230  40.1547230
  42.9512910  11.2859590  39.6295490  43.0845270  12.4001010  40.6458240
  45.1743390  12.7880720  40.9816210  45.4621200  12.5335020  40.1049220
  45.6866610  12.2358080  41.5721780  37.1132790  13.0001620  36.5794580
  36.9454830  12.3672300  37.2776470  36.2467300  13.2061020  36.2288770
  38.7195490  11.6934850  34.0244720  38.1943110  12.0742880  33.3206680
  38.6440070  12.3185620  34.7454430  45.2415750  13.7096820  48.3484410
  46.1683060  13.4741090  48.3920370  45.2266180  14.5368820  47.8670440
  53.4760810  13.2522390  35.3458660  53.6513000  12.5660130  34.7019580
  52.7782380  13.7769440  34.9535330  41.3188460  13.6417230  32.8993970
  42.0507280  13.3576510  32.3517860  41.5782130  13.4030510  33.7893350
  40.4803250   9.7581960  32.9040300  39.8512130  10.2267060  33.4526130
  40.5951080   8.9131180  33.3386490  51.8093310  12.9366680  48.1725450
  52.6018630  12.4415910  47.9651410  52.1026460  13.6156820  48.7801060
  47.9352970   3.8087620  19.0541500  47.8547020   2.8942230  18.7833210
  47.5217390   4.3054690  18.3481210  46.0671010   5.5866640  20.9350770
  45.2913110   5.1067080  21.2249340  46.7183940   4.9072290  20.7606930
  40.0836840   5.8986450  21.8126530  39.2521720   5.6435160  22.2123040
  40.6917820   5.9697220  22.5484450  50.0878440   9.9926830  19.7149900
  49.6259970   9.2214070  20.0437070  50.9003990  10.0192900  20.2202350
  40.0638100   9.9326540  22.0084550  40.3666140   9.0424280  21.8294770
  40.8081690  10.4896760  21.7806800  36.4561800   3.4593990  21.4808620
  37.0277910   2.6916190  21.4812260  36.4563340   3.7582750  20.5715230
  46.3141750  12.2784840  19.3353890  45.6953190  12.7342340  18.7648330
  47.1693530  12.4336300  18.9343590  45.5080000   8.2623830  20.9420930
  45.4388280   7.3213770  20.7810060  46.2699860   8.3525240  21.5143500
  47.1805100   7.1624080  16.7285800  46.5622370   7.6273530  16.1648520
  47.6928350   7.8551560  17.1455310  42.0436860   6.6899950  23.4069400
  41.7106240   7.3168870  24.0490470  42.2203540   7.2161830  22.6271070
  41.2555960   8.6580750  25.2218580  41.8729960   9.3331830  24.9403030
  40.3949080   9.0668730  25.1306080  36.5488300   7.8480610  14.1025430
  36.1716280   8.3367710  13.3710330  36.8061370   8.5205890  14.7331960
  52.1733550  10.1220160  23.1373220  51.4897070  10.7919270  23.1289890
  52.7127840  10.3200810  22.3718080  49.7092290  11.9664290  21.8518400
  49.7219450  11.5626580  20.9840660  49.1567510  12.7411580  21.7479830
  51.0037710   8.6880510  16.9408570  50.8934040   7.7454840  17.0657990
  51.0005960   9.0496150  17.8271330  49.1077730   6.8694130  23.1801010
  49.5246520   6.6554240  22.3454470  49.8317550   7.1266920  23.7509630
  46.5457990   4.3145830  16.2971060  45.6187270   4.2483210  16.5259530
  46.6982810   5.2525960  16.1826300  53.0539830   5.2681350  23.2717250
  52.2258460   5.3374440  22.7967380  53.6490310   5.8535660  22.8033080
  50.5755280   5.8766130  16.8006310  49.9567700   5.5385680  16.1532610
  50.5579730   5.2325890  17.5085500  42.1514630   4.8410570  19.0790790
  41.7471630   4.1287820  18.5836690  42.2377750   4.4963810  19.9678830
  42.6196330   8.5278130  21.2430000  42.3224620   7.9223600  20.5637780
  43.5696150   8.5655440  21.1319360  50.7081940  12.1010000  24.9053100
  50.2312500  12.9082190  24.7125710  50.0243730  11.4488330  25.0579310
  41.7114760   8.2659820  27.8937800  40.8143290   8.4899790  28.1411200
  41.7367630   8.3894760  26.9449200  48.7519980   5.1152940  13.8079060
  49.1913260   4.2775370  13.6616880  49.4648400   5.7482340  13.8943200
  40.5385980   5.1373140  26.4695170  40.3993750   6.0095940  26.8382570
  39.6567340   4.7945950  26.3243110  46.8615360  10.0549010  17.7760300
  47.3011270  10.7973340  17.3615690  46.8002250  10.2975580  18.6999260
  42.3366330  11.0794840  28.6780320  42.3081760  11.4837790  27.8108750
  42.1731300  10.1505200  28.5151920  38.8519260   3.7355550  16.5797440
  38.7316860   4.4617640  15.9678710  38.5420150   2.9658460  16.1025350
  54.2881150  11.8621940  29.9744490  54.7640870  12.3404830  30.6533570
  54.9088310  11.7939430  29.2489990  36.4904630   6.9070690  22.3866080
  36.5685050   7.0419460  21.4421800  37.1046310   6.1986580  22.5794200
  37.7352260   8.6070880  18.7972260  37.3280340   8.7485470  17.9425860
  38.6265270   8.3231040  18.5943470  53.6914400   9.0534790  27.1344500
  53.8177460   8.8146670  26.2161680  53.7335780   8.2219330  27.6066580
  47.5531140  12.7562790  25.7039310  48.0675810  12.6670800  26.5061740
  46.7100220  13.1022490  25.9967220  49.5285540  13.0418130  15.1323310
  49.3686680  12.7521070  16.0305140  49.3632250  12.2658260  14.5968540
  42.0073920  12.8216660  16.9094930  41.8316400  11.9052200  16.6962730
  41.1529660  13.1803950  17.1492730  49.2311670  10.5505690  13.6921310
  48.5376830  10.5482980  13.0323590  49.9734530  10.1265010  13.2615480
  48.7961600  12.1768400  17.7669800  49.2518550  11.3957780  18.0808420
  49.1354120  12.8875220  18.3110980  36.5464150   7.9484860  24.9260540
  36.7095190   7.4790220  24.1079910  37.0116600   7.4408420  25.5909380
  47.7006950   2.6669840  28.7951880  48.0260360   1.8333590  28.4554110
  48.4887280   3.1898360  28.9430210  41.1097140   2.2024190  17.6902360
  40.8838060   1.9861360  18.5948980  40.3289670   2.6352650  17.3448330
  48.3394900   2.2087560  16.2893010  47.7403790   2.9323360  16.1056630
  48.8874510   2.1464340  15.5069460  43.5496350   3.1009770  28.3562630
  43.4539950   2.1604500  28.2063030  44.3928330   3.3224840  27.9610700
  47.5314910   3.4356850  22.4147070  46.7996030   3.9443660  22.7637170
  47.1339250   2.6186830  22.1135850  43.0433950   3.4224270  13.2089620
  42.4750850   2.9742520  12.5825530  43.7522950   3.7817050  12.6754770
  38.1203130   7.3236290  27.0856350  37.7357920   6.6829960  27.6839310
  38.4315320   8.0272410  27.6551080  44.2700270   4.1712830  22.5664970
  44.6370400   3.6971400  23.3126310  44.0805330   5.0454400  22.9073310
  42.0599640   3.2121470  24.8849180  41.7556710   4.0913450  25.1099540
  43.0146100   3.2721260  24.9206620  40.5881430   7.4182460  15.4816030
  39.8143690   6.8780080  15.3214750  41.3176060   6.8989070  15.1433790
  51.3469410   6.4147820  21.2742420  52.0668530   6.9103110  20.8838530
  51.1451230   5.7365710  20.6296290  46.7288210   6.4856880  27.1611420
  46.6625520   5.5652550  26.9069010  46.0993350   6.5832320  27.8756060
  40.6318830   7.0862840  19.1194840  41.1497500   6.2831100  19.0651730
  40.1802850   7.0241980  19.9611670  45.5188330   8.3529120  14.3922140
  45.8604030   9.0971350  13.8965460  44.6901040   8.6660240  14.7546970
  38.1163370   4.0524210  26.0320540  37.7578310   4.7178060  26.6193880
  37.8217930   3.2207760  26.4033160  41.3176490   4.5108450  28.9160090
  41.0176630   4.6565630  28.0187910  42.0887730   3.9513740  28.8233480
  46.6604940   9.3077450  26.9115220  46.6749480   8.3758410  26.6934130
  45.9530040   9.3937210  27.5504990  51.7942010   3.4917270  13.1813830
  51.7105730   3.9231490  12.3310270  52.5136200   3.9515620  13.6140650
  52.8716150   5.9484790  26.2583800  52.1464340   6.5413570  26.0613190
  53.3991610   5.9408330  25.4597170  52.8229260  10.3459530  15.9095960
  52.1805420   9.6915150  16.1839680  52.4359920  10.7514620  15.1336630
  48.4015740   7.6744960  19.7567650  48.7539560   7.0773090  19.0969020
  47.5178070   7.3489190  19.9275900  44.4879020   8.4342650  17.1638060
  45.1750150   8.9811860  17.5445650  43.7011440   8.9783380  17.1987670
  36.6271420   4.0515470  12.6555140  37.4966270   4.3340270  12.9391060
  36.1361740   4.8651340  12.5403950  43.7906230   5.4388680  16.7763420
  44.2469010   6.2493930  17.0023610  43.4394440   5.1211820  17.6081910
  46.0938840  10.9495020  24.0055720  46.7381060  11.1554400  24.6829140
  46.4568280  10.1883420  23.5526570  47.3670920   8.9527370  22.7233170
  48.0093150   8.2520530  22.8365340  47.8920270   9.7325810  22.5430060
  51.2126640   9.2375990  12.4472310  50.9864220   8.5206430  13.0396950
  50.8222840   8.9888430  11.6094060  49.1408540   9.7522270  25.9269230
  49.4764780  10.3388960  26.6047150  48.2208880   9.6214980  26.1567020
  36.9942670  13.2642850  13.2216770  37.3540310  13.8632190  12.5674040
  36.8535010  13.8102740  13.9951800  50.7942890   7.1547930  14.1086470
  50.5064590   7.6160620  14.8964350  51.5895060   6.6945700  14.3770690
  36.9784530  11.5297710  27.6959170  37.0875650  10.5892450  27.5554560
  36.3265090  11.7952460  27.0472900  44.9697120   9.8013600  29.0957290
  44.6493990   9.0822840  29.6402980  44.2955480  10.4768670  29.1693350
  43.0111290  10.6474050  14.0390440  43.0021390  11.3803740  13.4234950
  42.0909650  10.4005630  14.1317400  38.6117930   5.8688940  14.7837200
  38.0045880   6.6087840  14.7932500  39.0867280   5.9588300  13.9575400
  45.9970890  10.7102290  12.7015630  46.0982870  10.5066280  11.7717610
  45.0972630  10.4560570  12.9063410  45.1452710   2.6879350  24.6832060
  45.6437960   3.1625170  25.3483910  45.2875660   1.7642870  24.8902090
  44.6389000  13.2288610  17.3963300  44.8930500  13.1910000  16.4742670
  43.6901480  13.1021940  17.3891550  50.6441580   4.1480490  18.9721810
  49.7031720   4.1630720  19.1469500  50.9585650   3.3616450  19.4182110
  40.6223220   5.8300090  12.5325770  41.3886490   5.7181450  13.0951200
  40.6997910   5.1338060  11.8802540  39.3169980   3.2625160  13.2158660
  39.3973570   2.3152670  13.3276060  40.2089730   3.5932040  13.3219320
  52.6467160  11.3189340  20.6476070  52.7714580  12.1420510  21.1199880
  53.5132720  11.1080070  20.3000220  40.1184690  13.4120550  20.3193200
  40.8547170  12.8636010  20.5901770  40.5025610  14.2776560  20.1799190
  37.0030170   9.4794120  16.1934710  36.0769950   9.7215260  16.1840120
  37.4686600  10.3068380  16.0719460  39.1242970  12.5966620  29.5078780
  39.9255700  12.9178670  29.9214180  38.6094790  12.2362200  30.2298690
  43.2287000  12.5850860  12.1418770  44.0215610  12.8739690  11.6900560
  42.7091350  12.1543030  11.4631250  47.9607600   8.7046490  29.4554190
  47.3545760   8.7278090  28.7149940  47.6561710   7.9729530  29.9921440
  49.3907970  12.4326780  28.0663600  50.3429720  12.3484800  28.0163840
  49.2436190  13.0968490  28.7397390  52.2817170  11.8120990  13.5655510
  51.9958680  11.3986130  12.7509690  52.0836720  12.7408700  13.4456030
  36.8440780   5.0840080  28.4514830  37.3479800   4.5047360  29.0231060
  36.1048200   5.3680310  28.9891200  43.7464400   7.8054270  12.0061120
  43.6415040   7.1906620  12.7322500  43.5788620   7.2820160  11.2224130
  43.8978720   6.4911070  27.9850350  43.1324390   7.0596070  27.9005020
  44.0794680   6.1987280  27.0918580  46.9867130   6.8674300  12.6103110
  46.4377230   7.3143600  13.2545850  47.6086390   6.3623550  13.1340780
  51.0402070   8.2216400  28.5425370  51.7811540   8.5592160  28.0392830
  50.2774750   8.3908460  27.9895140  38.8763860   3.2269670  29.3464900
  38.9169200   2.9283540  30.2550130  39.7309360   3.6277280  29.1872420
  42.6542250   5.8265220  14.5068410  43.0758670   5.6605090  15.3499800
  42.7793090   5.0165450  14.0123550  45.1669890   4.8502830  11.7545510
  45.6875550   4.1351850  11.3886660  45.8138290   5.4888700  12.0546020
  49.7147730   6.2731230  27.0780580  50.1288750   6.4276310  27.9271000
  48.7798730   6.3986450  27.2406360  50.1869900   3.6127390  29.0819730
  50.7690670   2.8579710  28.9940210  50.3631670   4.1434830  28.3051210
  44.4762960   6.2251710  25.0476510  44.8951070   7.0684440  24.8752750
  43.5571590   6.3623750  24.8183290  46.8126860   3.9567890  26.4314350
  46.9323070   3.3609030  27.1709190  47.6720860   3.9937580  26.0115650
  49.1514760   4.5105080  25.0076860  48.6249980   5.0347700  24.4042000
  49.4946100   5.1432470  25.6386590  42.3270380  12.5304720  26.1634240
  41.7891470  13.2550780  25.8442940  42.5804340  12.0535060  25.3731580
  45.7317920  12.9314440  14.0447250  46.6268710  13.2699410  14.0666010
  45.7635550  12.2093850  13.4171530  39.3714080   8.3041490  12.2734250
  39.8088950   8.8471160  12.9291830  39.8561810   7.4788440  12.2830590
  36.5859880  11.0930520  19.7254510  36.9162890  10.2251580  19.4933150
  37.0150880  11.2989040  20.5559470  41.1821800   9.4239530  17.3856480
  40.8817340   9.3004500  18.2860390  41.0759290   8.5648120  16.9772210
  37.0750090  11.9601110  22.4636140  36.6381080  12.1401910  23.2960290
  37.6427770  12.7175730  22.3217860  52.7112270  11.4618110  26.7513450
  52.1114260  11.5210670  26.0077370  52.8406170  10.5223090  26.8810300
  53.9513720   9.2035930  12.0883160  53.1206680   9.2712580  12.5590390
  54.1285550  10.0940050  11.7850020  53.4070180   5.9483410  14.5917360
  54.1689090   6.5180060  14.6977050  53.4224550   5.3810610  15.3625670
  36.9074520   4.4721340  18.8225020  36.2523360   4.2032980  18.1784720
  37.7452470   4.3625820  18.3727000  54.4130150   6.8033510  19.4359290
  54.7838980   6.0200830  19.0295260  55.0532080   7.4922610  19.2576590
  51.3963910   8.1870090  24.8489610  50.5823750   8.6167250  25.1115400
  51.8038110   8.7988500  24.2358660  53.4589350   6.2417780  11.7489880
  53.7338190   7.1496660  11.6209100  53.2700090   6.1780310  12.6851870
  53.3554690   4.1786770  16.7419310  52.9798290   3.4114700  16.3100600
  52.6257810   4.5609470  17.2294240  37.9450450   4.8573910  23.3628360
  38.3123490   4.7701310  24.2424380  37.3761270   4.0940460  23.2635220
  52.7454310   3.3258290  26.3758830  52.5140400   3.0971040  25.4756780
  53.0058860   4.2457840  26.3303720  37.4966450   1.7683000  27.2686780
  36.6022500   1.7349760  27.6080490  38.0364000   1.9669790  28.0338030
  52.6305650   2.4044260  20.0426550  53.1543130   1.9106910  19.4116720
  53.2165070   2.5394620  20.7874120  52.8095370   2.4884130  23.5646100
  51.8598080   2.4547670  23.6791090  52.9908380   3.3984240  23.3295870
  51.4539960  12.9388690  18.3757880  52.0499030  12.6173260  17.6992300
  51.7118110  12.4660510  19.1671150  39.3602530   9.3706600  28.5248510
  39.3172160   8.9999510  29.4062970  39.4913540  10.3084170  28.6650330
  43.0608560  10.9266190  24.1258230  42.8199920  11.1940750  23.2388750
  44.0011200  11.0971920  24.1809090  54.3212720  12.9460570  24.9268870
  53.8271000  13.3429440  24.2096000  53.7126010  12.3209780  25.3206150
  39.1990560  12.3168850  25.6446290  38.6050880  12.1853550  26.3836330
  39.1914400  11.4806990  25.1788390  52.0052170  13.5883990  22.2055610
  51.5455140  14.3399800  21.8313630  51.3764630  12.8690460  22.1470410
  38.8302790   9.6827230  24.5954330  38.1036850   9.0632520  24.5280280
  38.8911940  10.0767840  23.7252410  42.4347890  11.8972230  21.3803740
  42.9512910  11.2859590  20.8552000  43.0845270  12.4001010  21.8714750
  45.1743390  12.7880720  22.2072720  45.4621200  12.5335020  21.3305730
  45.6866610  12.2358080  22.7978290  37.1132790  13.0001620  17.8051090
  36.9454830  12.3672300  18.5032980  36.2467300  13.2061020  17.4545280
  38.7195490  11.6934850  15.2501230  38.1943110  12.0742880  14.5463190
  38.6440070  12.3185620  15.9710940  45.2415750  13.7096820  29.5740920
  46.1683060  13.4741090  29.6176880  45.2266180  14.5368820  29.0926950
  53.4760810  13.2522390  16.5715170  53.6513000  12.5660130  15.9276090
  52.7782380  13.7769440  16.1791840  41.3188460  13.6417230  14.1250480
  42.0507280  13.3576510  13.5774370  41.5782130  13.4030510  15.0149860
  40.4803250   9.7581960  14.1296810  39.8512130  10.2267060  14.6782640
  40.5951080   8.9131180  14.5643000  51.8093310  12.9366680  29.3981960
  52.6018630  12.4415910  29.1907920  52.1026460  13.6156820  30.0057570
  46.0671010   5.5866640   2.1607280  45.2913110   5.1067080   2.4505850
  46.7183940   4.9072290   1.9863440  40.0836840   5.8986450   3.0383040
  39.2521720   5.6435160   3.4379550  40.6917820   5.9697220   3.7740960
  40.0638100   9.9326540   3.2341060  40.3666140   9.0424280   3.0551280
  40.8081690  10.4896760   3.0063310  36.4561800   3.4593990   2.7065130
  37.0277910   2.6916190   2.7068770  36.4563340   3.7582750   1.7971740
  45.5080000   8.2623830   2.1677440  45.4388280   7.3213770   2.0066570
  46.2699860   8.3525240   2.7400010  42.0436860   6.6899950   4.6325910
  41.7106240   7.3168870   5.2746980  42.2203540   7.2161830   3.8527580
  41.2555960   8.6580750   6.4475090  41.8729960   9.3331830   6.1659540
  40.3949080   9.0668730   6.3562590  52.1733550  10.1220160   4.3629730
  51.4897070  10.7919270   4.3546400  52.7127840  10.3200810   3.5974590
  49.7092290  11.9664290   3.0774910  49.7219450  11.5626580   2.2097170
  49.1567510  12.7411580   2.9736340  49.1077730   6.8694130   4.4057520
  49.5246520   6.6554240   3.5710980  49.8317550   7.1266920   4.9766140
  53.0539830   5.2681350   4.4973760  52.2258460   5.3374440   4.0223890
  53.6490310   5.8535660   4.0289590  42.6196330   8.5278130   2.4686510
  42.3224620   7.9223600   1.7894290  43.5696150   8.5655440   2.3575870
  50.7081940  12.1010000   6.1309610  50.2312500  12.9082190   5.9382220
  50.0243730  11.4488330   6.2835820  41.7114760   8.2659820   9.1194310
  40.8143290   8.4899790   9.3667710  41.7367630   8.3894760   8.1705710
  40.5385980   5.1373140   7.6951680  40.3993750   6.0095940   8.0639080
  39.6567340   4.7945950   7.5499620  42.3366330  11.0794840   9.9036830
  42.3081760  11.4837790   9.0365260  42.1731300  10.1505200   9.7408430
  54.2881150  11.8621940  11.2001000  54.7640870  12.3404830  11.8790080
  54.9088310  11.7939430  10.4746500  36.4904630   6.9070690   3.6122590
  36.5685050   7.0419460   2.6678310  37.1046310   6.1986580   3.8050710
  53.6914400   9.0534790   8.3601010  53.8177460   8.8146670   7.4418190
  53.7335780   8.2219330   8.8323090  47.5531140  12.7562790   6.9295820
  48.0675810  12.6670800   7.7318250  46.7100220  13.1022490   7.2223730
  36.5464150   7.9484860   6.1517050  36.7095190   7.4790220   5.3336420
  37.0116600   7.4408420   6.8165890  47.7006950   2.6669840  10.0208390
  48.0260360   1.8333590   9.6810620  48.4887280   3.1898360  10.1686720
  43.5496350   3.1009770   9.5819140  43.4539950   2.1604500   9.4319540
  44.3928330   3.3224840   9.1867210  47.5314910   3.4356850   3.6403580
  46.7996030   3.9443660   3.9893680  47.1339250   2.6186830   3.3392360
  38.1203130   7.3236290   8.3112860  37.7357920   6.6829960   8.9095820
  38.4315320   8.0272410   8.8807590  44.2700270   4.1712830   3.7921480
  44.6370400   3.6971400   4.5382820  44.0805330   5.0454400   4.1329820
  42.0599640   3.2121470   6.1105690  41.7556710   4.0913450   6.3356050
  43.0146100   3.2721260   6.1463130  51.3469410   6.4147820   2.4998930
  52.0668530   6.9103110   2.1095040  51.1451230   5.7365710   1.8552800
  46.7288210   6.4856880   8.3867930  46.6625520   5.5652550   8.1325520
  46.0993350   6.5832320   9.1012570  38.1163370   4.0524210   7.2577050
  37.7578310   4.7178060   7.8450390  37.8217930   3.2207760   7.6289670
  41.3176490   4.5108450  10.1416600  41.0176630   4.6565630   9.2444420
  42.0887730   3.9513740  10.0489990  46.6604940   9.3077450   8.1371730
  46.6749480   8.3758410   7.9190640  45.9530040   9.3937210   8.7761500
  52.8716150   5.9484790   7.4840310  52.1464340   6.5413570   7.2869700
  53.3991610   5.9408330   6.6853680  46.0938840  10.9495020   5.2312230
  46.7381060  11.1554400   5.9085650  46.4568280  10.1883420   4.7783080
  47.3670920   8.9527370   3.9489680  48.0093150   8.2520530   4.0621850
  47.8920270   9.7325810   3.7686570  49.1408540   9.7522270   7.1525740
  49.4764780  10.3388960   7.8303660  48.2208880   9.6214980   7.3823530
  36.9784530  11.5297710   8.9215680  37.0875650  10.5892450   8.7811070
  36.3265090  11.7952460   8.2729410  44.9697120   9.8013600  10.3213800
  44.6493990   9.0822840  10.8659490  44.2955480  10.4768670  10.3949860
  45.1452710   2.6879350   5.9088570  45.6437960   3.1625170   6.5740420
  45.2875660   1.7642870   6.1158600  39.1242970  12.5966620  10.7335290
  39.9255700  12.9178670  11.1470690  38.6094790  12.2362200  11.4555200
  47.9607600   8.7046490  10.6810700  47.3545760   8.7278090   9.9406450
  47.6561710   7.9729530  11.2177950  49.3907970  12.4326780   9.2920110
  50.3429720  12.3484800   9.2420350  49.2436190  13.0968490   9.9653900
  36.8440780   5.0840080   9.6771340  37.3479800   4.5047360  10.2487570
  36.1048200   5.3680310  10.2147710  43.8978720   6.4911070   9.2106860
  43.1324390   7.0596070   9.1261530  44.0794680   6.1987280   8.3175090
  51.0402070   8.2216400   9.7681880  51.7811540   8.5592160   9.2649340
  50.2774750   8.3908460   9.2151650  38.8763860   3.2269670  10.5721410
  38.9169200   2.9283540  11.4806640  39.7309360   3.6277280  10.4128930
  49.7147730   6.2731230   8.3037090  50.1288750   6.4276310   9.1527510
  48.7798730   6.3986450   8.4662870  50.1869900   3.6127390  10.3076240
  50.7690670   2.8579710  10.2196720  50.3631670   4.1434830   9.5307720
  44.4762960   6.2251710   6.2733020  44.8951070   7.0684440   6.1009260
  43.5571590   6.3623750   6.0439800  46.8126860   3.9567890   7.6570860
  46.9323070   3.3609030   8.3965700  47.6720860   3.9937580   7.2372160
  49.1514760   4.5105080   6.2333370  48.6249980   5.0347700   5.6298510
  49.4946100   5.1432470   6.8643100  42.3270380  12.5304720   7.3890750
  41.7891470  13.2550780   7.0699450  42.5804340  12.0535060   6.5988090
  45.1832590  13.7655930   7.6477400  45.1091290  14.6691070   7.9549770
  44.2811430  13.4467830   7.6199470  37.0750090  11.9601110   3.6892650
  36.6381080  12.1401910   4.5216800  37.6427770  12.7175730   3.5474370
  52.7112270  11.4618110   7.9769960  52.1114260  11.5210670   7.2333880
  52.8406170  10.5223090   8.1066810  51.3963910   8.1870090   6.0746120
  50.5823750   8.6167250   6.3371910  51.8038110   8.7988500   5.4615170
  37.9450450   4.8573910   4.5884870  38.3123490   4.7701310   5.4680890
  37.3761270   4.0940460   4.4891730  52.7454310   3.3258290   7.6015340
  52.5140400   3.0971040   6.7013290  53.0058860   4.2457840   7.5560230
  37.4966450   1.7683000   8.4943290  36.6022500   1.7349760   8.8337000
  38.0364000   1.9669790   9.2594540  52.8095370   2.4884130   4.7902610
  51.8598080   2.4547670   4.9047600  52.9908380   3.3984240   4.5552380
  39.3602530   9.3706600   9.7505020  39.3172160   8.9999510  10.6319480
  39.4913540  10.3084170   9.8906840  43.0608560  10.9266190   5.3514740
  42.8199920  11.1940750   4.4645260  44.0011200  11.0971920   5.4065600
  54.3212720  12.9460570   6.1525380  53.8271000  13.3429440   5.4352510
  53.7126010  12.3209780   6.5462660  39.1990560  12.3168850   6.8702800
  38.6050880  12.1853550   7.6092840  39.1914400  11.4806990   6.4044900
  52.0052170  13.5883990   3.4312120  51.5455140  14.3399800   3.0570140
  51.3764630  12.8690460   3.3726920  38.8302790   9.6827230   5.8210840
  38.1036850   9.0632520   5.7536790  38.8911940  10.0767840   4.9508920
  42.4347890  11.8972230   2.6060250  42.9512910  11.2859590   2.0808510
  43.0845270  12.4001010   3.0971260  45.1743390  12.7880720   3.4329230
  45.4621200  12.5335020   2.5562240  45.6866610  12.2358080   4.0234800
  45.2415750  13.7096820  10.7997430  46.1683060  13.4741090  10.8433390
  45.2266180  14.5368820  10.3183460  51.8093310  12.9366680  10.6238470
  52.6018630  12.4415910  10.4164430  52.1026460  13.6156820  11.2314080
  29.1609480  60.1318090  75.3771970  29.0803530  59.2172700  75.1063680
  28.7473900  60.6285160  74.6711680  19.7185300  57.1818810  71.9199390
  18.8302000  57.5234780  71.8179270  20.0026490  56.9819130  71.0280220
  21.8946690  55.7650310  72.9537770  22.0013440  56.6654040  73.2606530
  20.9839050  55.7168280  72.6632420  31.5465800  54.8875120  74.4248670
  32.3675420  54.3971690  74.4674150  31.5799880  55.4772780  75.1780510
  25.3833740  52.5727470  75.8841410  25.6908720  52.0174360  75.1676910
  24.4534440  52.7071930  75.7014400  27.7714500  60.6376300  72.6201530
  26.8443780  60.5713680  72.8490000  27.9239320  61.5756430  72.5056770
  27.7583580  56.9093300  69.6168690  26.8187250  57.0707260  69.7021150
  28.0766840  57.6278980  69.0704680  31.8011790  62.1996600  73.1236780
  31.1824210  61.8616150  72.4763080  31.7836240  61.5556360  73.8315970
  23.3771140  61.1641040  75.4021260  22.9728140  60.4518290  74.9067160
  23.4634260  60.8194280  76.2909300  29.9776490  61.4383410  70.1309530
  30.4169770  60.6005840  69.9847350  30.6904910  62.0712810  70.2173670
  33.5593630  52.6926220  68.4450570  33.2466290  52.7853050  69.3449640
  34.3206100  53.2707250  68.3948000  20.0775770  60.0586020  72.9027910
  19.9573370  60.7848110  72.2909180  19.7676660  59.2888930  72.4255820
  22.5439430  53.4021090  76.2851580  22.1007580  54.1830630  75.9536100
  23.1024420  53.7250980  76.9922520  25.6598250  53.0231790  71.1657410
  25.0352430  53.0191660  71.8910720  25.5728370  52.1562750  70.7693380
  22.3353650  58.5254660  74.0132830  22.1094570  58.3091830  74.9179450
  21.5546180  58.9583120  73.6678800  29.5651410  58.5318030  72.6123480
  28.9660300  59.2553830  72.4287100  30.1131020  58.4694810  71.8299930
  28.1716280  57.1681570  74.6426760  28.5645850  57.4853770  73.8295450
  28.5333130  56.2893450  74.7571280  17.3950680  57.7002490  68.0759680
  17.3125350  58.6433250  68.2174670  17.0433740  57.5577400  67.1972030
  21.0451190  56.3168010  76.1024240  20.7051240  56.7943240  76.8591290
  20.2828510  55.8633130  75.7425340  25.2568960  57.4353600  70.1336790
  25.3781780  57.3940080  71.0822610  24.8717470  58.2977750  69.9783520
  24.2690460  59.7454740  69.5320090  23.7007360  59.2972990  68.9056000
  24.9779460  60.1047520  68.9985240  18.3597270  55.2386990  75.0188910
  18.0744190  54.8742660  75.8567530  18.2976130  54.5067450  74.4052050
  21.8137940  63.7412930  71.8046500  21.0400200  63.2010550  71.6445220
  22.5432570  63.2219540  71.4664260  28.0335860  54.1316250  71.7402280
  27.2200470  53.6329420  71.6647590  27.8397810  54.9714500  71.3238630
  30.7484250  58.5035900  70.0364440  31.6363870  58.8153130  69.8615780
  30.7189340  57.6308150  69.6445020  21.8575340  63.4093310  75.4425310
  22.3754010  62.6061570  75.3882200  21.4059360  63.3472450  76.2842140
  33.0198520  59.8147740  69.5044300  32.9362240  60.2461960  68.6540740
  33.7392710  60.2746090  69.9371120  17.8527930  60.3745940  68.9785610
  18.7222780  60.6570740  69.2621530  17.3618250  61.1881810  68.8634420
  25.0162740  61.7619150  73.0993890  25.4725520  62.5724400  73.3254080
  24.6650950  61.4442290  73.9312380  20.9174520  52.1056800  73.5716410
  20.7889150  52.0974700  74.5201330  20.0936540  52.4439890  73.2207420
  19.8374440  62.1919410  71.1067670  19.2302390  62.9318310  71.1162970
  20.3123790  62.2818770  70.2805870  32.7769260  55.3127170  71.5912120
  32.1482420  55.4172840  70.8770350  32.2821180  55.5323950  72.3806000
  24.7453290  57.5913120  73.0070000  24.0369440  58.0599460  73.4483610
  25.0297770  56.9335130  73.6415190  28.7768720  54.3163780  74.4465790
  28.6536500  54.3349910  73.4975300  29.7253280  54.3642720  74.5664190
  22.9488310  55.8998200  70.3820710  23.7978840  56.3368350  70.3160900
  22.5819580  56.2118460  71.2092770  31.8698090  60.4710960  75.2952280
  30.9288230  60.4861190  75.4699970  32.1842160  59.6846920  75.7412580
  21.8479730  62.1530560  68.8556240  22.6143000  62.0411920  69.4181670
  21.9254420  61.4568530  68.2033010  20.5426490  59.5855630  69.5389130
  20.6230080  58.6383140  69.6506530  21.4346240  59.9162510  69.6449790
  28.2123640  63.1904770  68.9333580  27.6633740  63.6374070  69.5776320
  28.8342900  62.6854020  69.4571250  23.8798760  62.1495690  70.8298880
  24.3015180  61.9835560  71.6730270  24.0049600  61.3395920  70.3354020
  26.3926400  61.1733300  68.0775980  26.9132060  60.4582320  67.7117130
  27.0394800  61.8119170  68.3776490  22.7757660  58.2228920  67.7757040
  22.5746720  57.3596280  68.1370380  22.6049710  58.1362280  66.8378640
  30.2545970  53.0337150  70.3043920  30.5348260  52.1905050  70.6603340
  29.4811700  53.2660260  70.8182670  21.5740460  55.3229540  67.7634920
  21.8766360  55.3296970  66.8554070  22.3135050  54.9727400  68.2602580
  24.7925390  54.2664160  68.7491120  24.4447390  53.5888150  68.1693570
  24.9938160  53.8053670  69.5634510  34.6326690  62.2713880  70.9147830
  35.3945600  62.8410530  71.0207520  34.6481060  61.7041080  71.6856140
  18.1331030  60.7951810  75.1455490  17.4779870  60.5263450  74.5015190
  18.9708980  60.6856290  74.6957470  34.6845860  62.5648250  68.0720350
  34.9594700  63.4727130  67.9439570  34.4956600  62.5010780  69.0082340
  31.0821470  55.5893100  69.3673980  31.5006350  55.4024080  68.5270640
  30.7757530  54.7372150  69.6776910  34.5811200  60.5017240  73.0649780
  34.2054800  59.7345170  72.6331070  33.8514320  60.8839940  73.5524710
  17.3469110  58.0050740  71.0880820  16.4433190  58.2680940  70.9132480
  17.8309730  58.2761910  70.3080780  33.8562160  58.7274730  76.3657020
  34.3799640  58.2337380  75.7347190  34.4421580  58.8625090  77.1104590
  19.8896320  57.0616280  68.9975200  20.5988020  56.6399500  68.5122480
  19.1736260  57.1291510  68.3658550  19.5370480  53.1155610  68.0377850
  20.2598610  53.6564550  68.3559070  19.8095000  52.8419030  67.1619390
  33.3462130  57.9848080  72.3049430  33.8421250  57.7518950  73.0898310
  33.1478200  57.1459920  71.8887070  34.7749290  56.6209030  74.8387110
  34.6648570  56.4665070  75.7769380  35.5356880  56.0929970  74.5962520
  35.6639560  54.4516950  68.0793250  36.5888870  54.3198130  67.8711540
  35.6415350  54.5309770  69.0329700  35.7378050  55.2227610  70.7049960
  34.9429550  55.1572730  71.2342870  35.9421330  56.1578250  70.6935310
  34.0336550  53.1839730  75.1657610  33.9724950  52.2400950  75.0188630
  34.8128580  53.2919820  75.7111070  18.9617320  53.1548870  71.6313420
  19.7196680  53.2677750  71.0577450  18.4994490  53.9918070  71.5856850
  25.5031130  55.2688140  74.6215730  24.6905640  54.8945030  74.2811610
  26.0072770  54.5133220  74.9236920  30.0056110  51.9330590  75.8598800
  30.6085480  52.5050800  76.3347320  29.2649100  52.4970030  75.6372700
  33.1490710  52.3352150  71.1339080  33.3441340  53.2335600  71.4006510
  32.3620580  52.1039230  71.6272030  21.3342470  53.6812920  70.1715390
  21.8635230  52.8942720  70.0423340  21.9670790  54.3604110  70.4050920
  23.5280310  53.4188060  73.2260780  22.8983050  52.7175370  73.3930910
  22.9885450  54.1792190  73.0093940  29.1609480  60.1318090  56.6028480
  29.0803530  59.2172700  56.3320190  28.7473900  60.6285160  55.8968190
  27.2927520  61.9097110  58.4837750  26.5169620  61.4297550  58.7736320
  27.9440450  61.2302760  58.3093910  21.3093350  62.2216920  59.3613510
  20.4778230  61.9665630  59.7610020  21.9174330  62.2927690  60.0971430
  19.7185300  57.1818810  53.1455900  18.8302000  57.5234780  53.0435780
  20.0026490  56.9819130  52.2536730  17.6818310  59.7824460  59.0295600
  18.2534420  59.0146660  59.0299240  17.6819850  60.0813220  58.1202210
  18.9243180  55.1908820  60.8164530  18.7446020  54.2934570  61.0967290
  18.5223260  55.7380690  61.4911480  27.7641680  57.3924680  58.7176840
  28.1406500  56.5196560  58.6050510  27.6661190  57.7283380  57.8267280
  21.8946690  55.7650310  54.1794280  22.0013440  56.6654040  54.4863040
  20.9839050  55.7168280  53.8888930  31.5465800  54.8875120  55.6505180
  32.3675420  54.3971690  55.6930660  31.5799880  55.4772780  56.4037020
  19.5429850  57.6869320  59.4246870  20.2239960  57.9507690  60.0434270
  19.2277900  56.8470190  59.7584880  23.7354420  58.7336680  58.5119460
  24.2432640  59.2317650  59.1524480  24.2667660  57.9571880  58.3358820
  35.8365350  56.9041870  62.2148810  35.1317520  57.2923580  61.6963920
  36.1023270  57.5992160  62.8169740  22.0190520  53.3735240  62.7782880
  22.0208960  53.8907630  61.9728780  21.1894830  52.8965420  62.7552810
  23.2693370  63.0130420  60.9556380  22.9362750  63.6399340  61.5977450
  23.4460050  63.5392300  60.1758050  31.7827280  56.8275500  58.4232720
  31.0782850  57.1160390  59.0035830  32.1439440  57.6375610  58.0632280
  21.7005850  55.0845200  60.7853330  22.0422660  55.9287250  60.4907200
  20.7621660  55.2328940  60.9018670  34.8514200  56.2730290  58.8141930
  33.9039110  56.3069270  58.9457360  35.1764190  57.0869240  59.1991290
  25.3833740  52.5727470  57.1097920  25.6908720  52.0174360  56.3933420
  24.4534440  52.7071930  56.9270910  30.3334240  63.1924600  60.7287990
  30.7503030  62.9784710  59.8941450  31.0574060  63.4497390  61.2996610
  27.7714500  60.6376300  53.8458040  26.8443780  60.5713680  54.0746510
  27.9239320  61.5756430  53.7313280  27.7583580  56.9093300  50.8425200
  26.8187250  57.0707260  50.9277660  28.0766840  57.6278980  50.2961190
  34.2796340  61.5911820  60.8204230  33.4514970  61.6604910  60.3454360
  34.8746820  62.1766130  60.3520060  31.8011790  62.1996600  54.3493290
  31.1824210  61.8616150  53.7019590  31.7836240  61.5556360  55.0572480
  31.2438350  58.3781140  61.7659100  30.8309530  59.2034850  62.0199090
  30.5114300  57.7926180  61.5735460  23.3771140  61.1641040  56.6277770
  22.9728140  60.4518290  56.1323670  23.4634260  60.8194280  57.5165810
  22.0899760  57.9384250  60.4076810  22.6414350  58.0479590  59.6330060
  22.6043270  58.3121850  61.1232040  29.9776490  61.4383410  51.3566040
  30.4169770  60.6005840  51.2103860  30.6904910  62.0712810  51.4430180
  21.7642490  61.4603610  64.0182150  21.6250260  62.3326410  64.3869550
  20.8823850  61.1176420  63.8730090  33.5593630  52.6926220  49.6707080
  33.2466290  52.7853050  50.5706150  34.3206100  53.2707250  49.6204510
  20.0775770  60.0586020  54.1284420  19.9573370  60.7848110  53.5165690
  19.7676660  59.2888930  53.6512330  17.7161140  63.2301160  59.9353060
  17.7941560  63.3649930  58.9908780  18.3302820  62.5217050  60.1281180
  34.7694920  57.4297720  65.6481220  34.1539190  57.9377390  65.1196680
  34.4491340  56.5296050  65.5907160  22.5439430  53.4021090  57.5108090
  22.1007580  54.1830630  57.1792610  23.1024420  53.7250980  58.2179030
  26.8309240  56.2689610  63.1143410  26.3688610  56.4772630  63.9263350
  26.4287350  55.4548960  62.8114080  31.8313750  57.4898560  64.2440070
  30.9807340  57.1904310  64.5649140  31.6715540  57.7340570  63.3323890
  28.9263460  58.9900310  66.3438860  29.2516870  58.1564060  66.0041090
  29.7143790  59.5128830  66.4917190  25.6598250  53.0231790  52.3913920
  25.0352430  53.0191660  53.1167230  25.5728370  52.1562750  51.9949890
  24.5815330  53.9468420  59.3697690  24.8787660  54.8531250  59.2889710
  25.1300890  53.4587200  58.7557260  22.3353650  58.5254660  55.2389340
  22.1094570  58.3091830  56.1435960  21.5546180  58.9583120  54.8935310
  29.5651410  58.5318030  53.8379990  28.9660300  59.2553830  53.6543610
  30.1131020  58.4694810  53.0556440  24.7752860  59.4240240  65.9049610
  24.6796460  58.4834970  65.7550010  25.6184840  59.6455310  65.5097680
  28.1716280  57.1681570  55.8683270  28.5645850  57.4853770  55.0551960
  28.5333130  56.2893450  55.9827790  19.9063400  55.8353910  64.0583390
  19.5126790  56.6829120  64.2656170  19.2181800  55.1980280  64.2492030
  26.4808450  55.9188880  67.1280130  25.7906770  55.7261080  67.7626220
  27.2240750  56.2023520  67.6604430  17.2080450  53.7582370  58.0913470
  16.9193500  54.3285230  58.8038450  17.9526210  53.2786820  58.4544700
  17.3950680  57.7002490  49.3016190  17.3125350  58.6433250  49.4431180
  17.0433740  57.5577400  48.4228540  28.7571420  59.7587320  59.9634050
  28.0252540  60.2674130  60.3124150  28.3595760  58.9417300  59.6622830
  25.1948810  56.4341520  58.3686540  25.1984870  55.9931470  57.5191080
  26.0899930  56.7558850  58.4758360  21.0451190  56.3168010  57.3280750
  20.7051240  56.7943240  58.0847800  20.2828510  55.8633130  56.9681850
  25.2568960  57.4353600  51.3593300  25.3781780  57.3940080  52.3079120
  24.8717470  58.2977750  51.2040030  29.2197330  55.2121000  59.3756990
  29.2370070  55.6629650  60.2198840  28.9712910  54.3126640  59.5890430
  24.2690460  59.7454740  50.7576600  23.7007360  59.2972990  50.1312510
  24.9779460  60.1047520  50.2241750  32.6468080  52.6253180  65.2143370
  32.9713850  51.8942840  65.7401350  32.6824590  52.3066820  64.3124360
  25.4956780  60.4943300  60.1151950  25.8626910  60.0201870  60.8613290
  25.3061840  61.3684870  60.4560290  18.3597270  55.2386990  56.2445420
  18.0744190  54.8742660  57.0824040  18.2976130  54.5067450  55.6308560
  23.2856150  59.5351940  62.4336160  22.9813220  60.4143920  62.6586520
  24.2402610  59.5951730  62.4693600  21.8137940  63.7412930  53.0303010
  21.0400200  63.2010550  52.8701730  22.5432570  63.2219540  52.6920770
  32.5725920  62.7378290  58.8229400  33.2925040  63.2333580  58.4325510
  32.3707740  62.0596180  58.1783270  28.0335860  54.1316250  52.9658790
  27.2200470  53.6329420  52.8904100  27.8397810  54.9714500  52.5495140
  27.9544720  62.8087350  64.7098400  27.8882030  61.8883020  64.4555990
  27.3249860  62.9062790  65.4243040  30.7484250  58.5035900  51.2620950
  31.6363870  58.8153130  51.0872290  30.7189340  57.6308150  50.8701530
  21.8575340  63.4093310  56.6681820  22.3754010  62.6061570  56.6138710
  21.4059360  63.3472450  57.5098650  19.3419880  60.3754680  63.5807520
  18.9834820  61.0408530  64.1680860  19.0474440  59.5438230  63.9520140
  22.5433000  60.8338920  66.4647070  22.2433140  60.9796100  65.5674890
  23.3144240  60.2744210  66.3720460  33.0198520  59.8147740  50.7300810
  32.9362240  60.2461960  49.8797250  33.7392710  60.2746090  51.1627630
  34.0972660  62.2715260  63.8070780  33.3720850  62.8644040  63.6100170
  34.6248120  62.2638800  63.0084150  17.8527930  60.3745940  50.2042120
  18.7222780  60.6570740  50.4878040  17.3618250  61.1881810  50.0890930
  25.0162740  61.7619150  54.3250400  25.4725520  62.5724400  54.5510590
  24.6650950  61.4442290  55.1568890  20.9174520  52.1056800  54.7972920
  20.7889150  52.0974700  55.7457840  20.0936540  52.4439890  54.4463930
  17.9168450  53.8647920  64.2579620  17.2026970  54.0644840  64.8632230
  18.3363490  53.0887490  64.6294420  19.8374440  62.1919410  52.3324180
  19.2302390  62.9318310  52.3419480  20.3123790  62.2818770  51.5062380
  29.4107230  56.3570230  62.0081070  29.7788050  55.5365440  62.3360640
  28.5505430  56.4172120  62.4236720  32.7769260  55.3127170  52.8168630
  32.1482420  55.4172840  52.1026860  32.2821180  55.5323950  53.6062510
  24.7453290  57.5913120  54.2326510  24.0369440  58.0599460  54.6740120
  25.0297770  56.9335130  54.8671700  26.3709220  59.0109820  62.2319040
  26.8694470  59.4855640  62.8970890  26.5132170  58.0873340  62.4389070
  28.7768720  54.3163780  55.6722300  28.6536500  54.3349910  54.7231810
  29.7253280  54.3642720  55.7920700  22.9488310  55.8998200  51.6077220
  23.7978840  56.3368350  51.5417410  22.5819580  56.2118460  52.4349280
  33.5776080  55.2277780  63.0747430  33.0749680  55.9683180  63.4141240
  34.3932740  55.6161780  62.7584220  31.8698090  60.4710960  56.5208790
  30.9288230  60.4861190  56.6956480  32.1842160  59.6846920  56.9669090
  21.8479730  62.1530560  50.0812750  22.6143000  62.0411920  50.6438180
  21.9254420  61.4568530  49.4289520  20.5426490  59.5855630  50.7645640
  20.6230080  58.6383140  50.8763040  21.4346240  59.9162510  50.8706300
  18.0697290  61.4070550  66.0001810  18.5736310  60.8277830  66.5718040
  17.3304710  61.6910780  66.5378180  25.1235230  62.8141540  65.5337330
  24.3580900  63.3826540  65.4492000  25.3051190  62.5217750  64.6405560
  28.2123640  63.1904770  50.1590090  27.6633740  63.6374070  50.8032830
  28.8342900  62.6854020  50.6827760  20.1020370  59.5500140  66.8951880
  20.1425710  59.2514010  67.8037110  20.9565870  59.9507750  66.7359400
  23.8798760  62.1495690  52.0555390  24.3015180  61.9835560  52.8986780
  24.0049600  61.3395920  51.5610530  22.0426180  58.1292240  64.8626370
  21.5122640  57.6383190  64.2349710  22.7114250  58.5576440  64.3284300
  26.3926400  61.1733300  49.3032490  26.9132060  60.4582320  48.9373640
  27.0394800  61.8119170  49.6033000  30.9404240  62.5961700  64.6267560
  31.3545260  62.7506780  65.4757980  30.0055240  62.7216920  64.7893340
  31.4126410  59.9357860  66.6306710  31.9947180  59.1810180  66.5427190
  31.5888180  60.4665300  65.8538190  22.5298480  55.0954610  64.9423660
  22.4355350  54.4775360  64.2174530  21.9495870  55.8220900  64.7153570
  25.2959920  53.6527850  61.9751050  24.8477220  53.6752110  61.1296600
  24.6625120  53.2546870  62.5721350  25.7019470  62.5482180  62.5963490
  26.1207580  63.3914910  62.4239730  24.7828100  62.6854220  62.3670270
  28.0383370  60.2798360  63.9801330  28.1579580  59.6839500  64.7196170
  28.8977370  60.3168050  63.5602630  30.3771270  60.8335550  62.5563840
  29.8506490  61.3578170  61.9528980  30.7202610  61.4662940  63.1873570
  22.7757660  58.2228920  49.0013550  22.5746720  57.3596280  49.3626890
  22.6049710  58.1362280  48.0635150  24.8052140  56.8219710  65.2377150
  25.3951830  56.5135560  65.9254970  23.9872380  56.3499460  65.3937050
  29.6245570  56.4385520  65.4710170  28.9361090  55.7767060  65.4060160
  30.3451590  55.9923790  65.9158630  30.2545970  53.0337150  51.5300430
  30.5348260  52.1905050  51.8859850  29.4811700  53.2660260  52.0439180
  21.5740460  55.3229540  48.9891430  21.8766360  55.3296970  48.0810580
  22.3135050  54.9727400  49.4859090  24.7925390  54.2664160  49.9747630
  24.4447390  53.5888150  49.3950080  24.9938160  53.8053670  50.7891020
  34.6326690  62.2713880  52.1404340  35.3945600  62.8410530  52.2464030
  34.6481060  61.7041080  52.9112650  18.1331030  60.7951810  56.3712000
  17.4779870  60.5263450  55.7271700  18.9708980  60.6856290  55.9213980
  34.6845860  62.5648250  49.2976860  34.9594700  63.4727130  49.1696080
  34.4956600  62.5010780  50.2338850  31.0821470  55.5893100  50.5930490
  31.5006350  55.4024080  49.7527150  30.7757530  54.7372150  50.9033420
  34.5811200  60.5017240  54.2906290  34.2054800  59.7345170  53.8587580
  33.8514320  60.8839940  54.7781220  19.1706960  61.1804380  60.9115340
  19.5380000  61.0931780  61.7911360  18.6017780  60.4170930  60.8122200
  33.9710820  59.6488760  63.9245810  33.7396910  59.4201510  63.0243760
  34.2315370  60.5688310  63.8790700  18.7222960  58.0913470  64.8173760
  17.8279010  58.0580230  65.1567470  19.2620510  58.2900260  65.5825010
  32.4098890  54.8745190  66.7025510  33.2869070  54.8828590  67.0859510
  32.4219730  54.1376030  66.0917860  17.3469110  58.0050740  52.3137330
  16.4433190  58.2680940  52.1388990  17.8309730  58.2761910  51.5337290
  33.8562160  58.7274730  57.5913530  34.3799640  58.2337380  56.9603700
  34.4421580  58.8625090  58.3361100  34.0351880  58.8114600  61.1133080
  33.0854590  58.7778140  61.2278070  34.2164890  59.7214710  60.8782850
  19.8896320  57.0616280  50.2231710  20.5988020  56.6399500  49.7378990
  19.1736260  57.1291510  49.5915060  19.5370480  53.1155610  49.2634360
  20.2598610  53.6564550  49.5815580  19.8095000  52.8419030  48.3875900
  33.3462130  57.9848080  53.5305940  33.8421250  57.7518950  54.3154820
  33.1478200  57.1459920  53.1143580  19.2262670  52.3661800  59.1656980
  19.8738860  51.8159180  58.7252140  19.6464510  52.6204950  59.9872790
  34.7749290  56.6209030  56.0643620  34.6648570  56.4665070  57.0025890
  35.5356880  56.0929970  55.8219030  33.1215010  52.5603160  62.5226620
  33.7587230  53.1737300  62.8885810  33.2689900  52.5963820  61.5775850
  35.6639560  54.4516950  49.3049760  36.5888870  54.3198130  49.0968050
  35.6415350  54.5309770  50.2586210  35.7378050  55.2227610  51.9306470
  34.9429550  55.1572730  52.4599380  35.9421330  56.1578250  51.9191820
  18.9794670  52.5217470  61.9082300  18.6309490  52.9781290  62.6740480
  18.6482370  51.6274600  61.9904730  26.4919490  53.7129350  65.4301720
  26.4308380  54.3051180  66.1797130  27.4319870  53.6055310  65.2851980
  29.1294050  53.3699410  65.0694010  29.7434460  53.6878700  64.4075090
  29.6743610  52.8848000  65.6889870  19.6515310  52.0493670  65.1833070
  20.1998300  51.8681720  64.4199180  19.7170620  51.2587780  65.7189380
  29.8702090  51.9331550  61.3963300  28.9961930  52.2666660  61.1936230
  29.7612840  51.4604730  62.2215170  30.7774070  54.1402420  62.7805020
  30.4487430  53.3254180  62.4006750  31.7256370  54.0972230  62.6570710
  27.6176910  52.8501390  60.3356210  26.8348700  53.3246890  60.6152970
  27.3239840  51.9456220  60.2269390  32.1697980  53.5524490  58.3805300
  32.6106070  53.4969590  57.5326900  31.9005570  54.4682500  58.4515480
  34.0336550  53.1839730  56.3914120  33.9724950  52.2400950  56.2445140
  34.8128580  53.2919820  56.9367580  18.9617320  53.1548870  52.8569930
  19.7196680  53.2677750  52.2833960  18.4994490  53.9918070  52.8113360
  25.5031130  55.2688140  55.8472240  24.6905640  54.8945030  55.5068120
  26.0072770  54.5133220  56.1493430  30.0056110  51.9330590  57.0855310
  30.6085480  52.5050800  57.5603830  29.2649100  52.4970030  56.8629210
  33.1490710  52.3352150  52.3595590  33.3441340  53.2335600  52.6263020
  32.3620580  52.1039230  52.8528540  21.3342470  53.6812920  51.3971900
  21.8635230  52.8942720  51.2679850  21.9670790  54.3604110  51.6307430
  23.5280310  53.4188060  54.4517290  22.8983050  52.7175370  54.6187420
  22.9885450  54.1792190  54.2350450  23.6535870  52.6972040  66.8869780
  23.3720140  53.2005640  66.1230600  24.0355570  51.8993790  66.5211910
  30.2551330  52.1125620  67.4650250  30.1416780  52.4320230  68.3601770
  31.0721070  52.5138130  67.1687530  29.1609480  60.1318090  37.8284990
  29.0803530  59.2172700  37.5576700  28.7473900  60.6285160  37.1224700
  27.2927520  61.9097110  39.7094260  26.5169620  61.4297550  39.9992830
  27.9440450  61.2302760  39.5350420  21.3093350  62.2216920  40.5870020
  20.4778230  61.9665630  40.9866530  21.9174330  62.2927690  41.3227940
  19.7185300  57.1818810  34.3712410  18.8302000  57.5234780  34.2692290
  20.0026490  56.9819130  33.4793240  17.6818310  59.7824460  40.2552110
  18.2534420  59.0146660  40.2555750  17.6819850  60.0813220  39.3458720
  18.9243180  55.1908820  42.0421040  18.7446020  54.2934570  42.3223800
  18.5223260  55.7380690  42.7167990  27.7641680  57.3924680  39.9433350
  28.1406500  56.5196560  39.8307020  27.6661190  57.7283380  39.0523790
  21.8946690  55.7650310  35.4050790  22.0013440  56.6654040  35.7119550
  20.9839050  55.7168280  35.1145440  31.5465800  54.8875120  36.8761690
  32.3675420  54.3971690  36.9187170  31.5799880  55.4772780  37.6293530
  19.5429850  57.6869320  40.6503380  20.2239960  57.9507690  41.2690780
  19.2277900  56.8470190  40.9841390  23.7354420  58.7336680  39.7375970
  24.2432640  59.2317650  40.3780990  24.2667660  57.9571880  39.5615330
  35.8365350  56.9041870  43.4405320  35.1317520  57.2923580  42.9220430
  36.1023270  57.5992160  44.0426250  22.0190520  53.3735240  44.0039390
  22.0208960  53.8907630  43.1985290  21.1894830  52.8965420  43.9809320
  23.2693370  63.0130420  42.1812890  22.9362750  63.6399340  42.8233960
  23.4460050  63.5392300  41.4014560  31.7827280  56.8275500  39.6489230
  31.0782850  57.1160390  40.2292340  32.1439440  57.6375610  39.2888790
  21.7005850  55.0845200  42.0109840  22.0422660  55.9287250  41.7163710
  20.7621660  55.2328940  42.1275180  34.8514200  56.2730290  40.0398440
  33.9039110  56.3069270  40.1713870  35.1764190  57.0869240  40.4247800
  25.3833740  52.5727470  38.3354430  25.6908720  52.0174360  37.6189930
  24.4534440  52.7071930  38.1527420  30.3334240  63.1924600  41.9544500
  30.7503030  62.9784710  41.1197960  31.0574060  63.4497390  42.5253120
  27.7714500  60.6376300  35.0714550  26.8443780  60.5713680  35.3003020
  27.9239320  61.5756430  34.9569790  27.7583580  56.9093300  32.0681710
  26.8187250  57.0707260  32.1534170  28.0766840  57.6278980  31.5217700
  34.2796340  61.5911820  42.0460740  33.4514970  61.6604910  41.5710870
  34.8746820  62.1766130  41.5776570  31.8011790  62.1996600  35.5749800
  31.1824210  61.8616150  34.9276100  31.7836240  61.5556360  36.2828990
  31.2438350  58.3781140  42.9915610  30.8309530  59.2034850  43.2455600
  30.5114300  57.7926180  42.7991970  23.3771140  61.1641040  37.8534280
  22.9728140  60.4518290  37.3580180  23.4634260  60.8194280  38.7422320
  22.0899760  57.9384250  41.6333320  22.6414350  58.0479590  40.8586570
  22.6043270  58.3121850  42.3488550  29.9776490  61.4383410  32.5822550
  30.4169770  60.6005840  32.4360370  30.6904910  62.0712810  32.6686690
  21.7642490  61.4603610  45.2438660  21.6250260  62.3326410  45.6126060
  20.8823850  61.1176420  45.0986600  33.5593630  52.6926220  30.8963590
  33.2466290  52.7853050  31.7962660  34.3206100  53.2707250  30.8461020
  20.0775770  60.0586020  35.3540930  19.9573370  60.7848110  34.7422200
  19.7676660  59.2888930  34.8768840  17.7161140  63.2301160  41.1609570
  17.7941560  63.3649930  40.2165290  18.3302820  62.5217050  41.3537690
  34.7694920  57.4297720  46.8737730  34.1539190  57.9377390  46.3453190
  34.4491340  56.5296050  46.8163670  22.5439430  53.4021090  38.7364600
  22.1007580  54.1830630  38.4049120  23.1024420  53.7250980  39.4435540
  26.8309240  56.2689610  44.3399920  26.3688610  56.4772630  45.1519860
  26.4287350  55.4548960  44.0370590  31.8313750  57.4898560  45.4696580
  30.9807340  57.1904310  45.7905650  31.6715540  57.7340570  44.5580400
  28.9263460  58.9900310  47.5695370  29.2516870  58.1564060  47.2297600
  29.7143790  59.5128830  47.7173700  25.6598250  53.0231790  33.6170430
  25.0352430  53.0191660  34.3423740  25.5728370  52.1562750  33.2206400
  24.5815330  53.9468420  40.5954200  24.8787660  54.8531250  40.5146220
  25.1300890  53.4587200  39.9813770  22.3353650  58.5254660  36.4645850
  22.1094570  58.3091830  37.3692470  21.5546180  58.9583120  36.1191820
  29.5651410  58.5318030  35.0636500  28.9660300  59.2553830  34.8800120
  30.1131020  58.4694810  34.2812950  24.7752860  59.4240240  47.1306120
  24.6796460  58.4834970  46.9806520  25.6184840  59.6455310  46.7354190
  28.1716280  57.1681570  37.0939780  28.5645850  57.4853770  36.2808470
  28.5333130  56.2893450  37.2084300  19.9063400  55.8353910  45.2839900
  19.5126790  56.6829120  45.4912680  19.2181800  55.1980280  45.4748540
  26.4808450  55.9188880  48.3536640  25.7906770  55.7261080  48.9882730
  27.2240750  56.2023520  48.8860940  17.2080450  53.7582370  39.3169980
  16.9193500  54.3285230  40.0294960  17.9526210  53.2786820  39.6801210
  17.3950680  57.7002490  30.5272700  17.3125350  58.6433250  30.6687690
  17.0433740  57.5577400  29.6485050  28.7571420  59.7587320  41.1890560
  28.0252540  60.2674130  41.5380660  28.3595760  58.9417300  40.8879340
  25.1948810  56.4341520  39.5943050  25.1984870  55.9931470  38.7447590
  26.0899930  56.7558850  39.7014870  21.0451190  56.3168010  38.5537260
  20.7051240  56.7943240  39.3104310  20.2828510  55.8633130  38.1938360
  25.2568960  57.4353600  32.5849810  25.3781780  57.3940080  33.5335630
  24.8717470  58.2977750  32.4296540  29.2197330  55.2121000  40.6013500
  29.2370070  55.6629650  41.4455350  28.9712910  54.3126640  40.8146940
  24.2690460  59.7454740  31.9833110  23.7007360  59.2972990  31.3569020
  24.9779460  60.1047520  31.4498260  32.6468080  52.6253180  46.4399880
  32.9713850  51.8942840  46.9657860  32.6824590  52.3066820  45.5380870
  25.4956780  60.4943300  41.3408460  25.8626910  60.0201870  42.0869800
  25.3061840  61.3684870  41.6816800  18.3597270  55.2386990  37.4701930
  18.0744190  54.8742660  38.3080550  18.2976130  54.5067450  36.8565070
  23.2856150  59.5351940  43.6592670  22.9813220  60.4143920  43.8843030
  24.2402610  59.5951730  43.6950110  21.8137940  63.7412930  34.2559520
  21.0400200  63.2010550  34.0958240  22.5432570  63.2219540  33.9177280
  32.5725920  62.7378290  40.0485910  33.2925040  63.2333580  39.6582020
  32.3707740  62.0596180  39.4039780  28.0335860  54.1316250  34.1915300
  27.2200470  53.6329420  34.1160610  27.8397810  54.9714500  33.7751650
  27.9544720  62.8087350  45.9354910  27.8882030  61.8883020  45.6812500
  27.3249860  62.9062790  46.6499550  30.7484250  58.5035900  32.4877460
  31.6363870  58.8153130  32.3128800  30.7189340  57.6308150  32.0958040
  21.8575340  63.4093310  37.8938330  22.3754010  62.6061570  37.8395220
  21.4059360  63.3472450  38.7355160  19.3419880  60.3754680  44.8064030
  18.9834820  61.0408530  45.3937370  19.0474440  59.5438230  45.1776650
  22.5433000  60.8338920  47.6903580  22.2433140  60.9796100  46.7931400
  23.3144240  60.2744210  47.5976970  33.0198520  59.8147740  31.9557320
  32.9362240  60.2461960  31.1053760  33.7392710  60.2746090  32.3884140
  34.0972660  62.2715260  45.0327290  33.3720850  62.8644040  44.8356680
  34.6248120  62.2638800  44.2340660  17.8527930  60.3745940  31.4298630
  18.7222780  60.6570740  31.7134550  17.3618250  61.1881810  31.3147440
  25.0162740  61.7619150  35.5506910  25.4725520  62.5724400  35.7767100
  24.6650950  61.4442290  36.3825400  20.9174520  52.1056800  36.0229430
  20.7889150  52.0974700  36.9714350  20.0936540  52.4439890  35.6720440
  17.9168450  53.8647920  45.4836130  17.2026970  54.0644840  46.0888740
  18.3363490  53.0887490  45.8550930  19.8374440  62.1919410  33.5580690
  19.2302390  62.9318310  33.5675990  20.3123790  62.2818770  32.7318890
  29.4107230  56.3570230  43.2337580  29.7788050  55.5365440  43.5617150
  28.5505430  56.4172120  43.6493230  32.7769260  55.3127170  34.0425140
  32.1482420  55.4172840  33.3283370  32.2821180  55.5323950  34.8319020
  24.7453290  57.5913120  35.4583020  24.0369440  58.0599460  35.8996630
  25.0297770  56.9335130  36.0928210  26.3709220  59.0109820  43.4575550
  26.8694470  59.4855640  44.1227400  26.5132170  58.0873340  43.6645580
  28.7768720  54.3163780  36.8978810  28.6536500  54.3349910  35.9488320
  29.7253280  54.3642720  37.0177210  22.9488310  55.8998200  32.8333730
  23.7978840  56.3368350  32.7673920  22.5819580  56.2118460  33.6605790
  33.5776080  55.2277780  44.3003940  33.0749680  55.9683180  44.6397750
  34.3932740  55.6161780  43.9840730  31.8698090  60.4710960  37.7465300
  30.9288230  60.4861190  37.9212990  32.1842160  59.6846920  38.1925600
  21.8479730  62.1530560  31.3069260  22.6143000  62.0411920  31.8694690
  21.9254420  61.4568530  30.6546030  20.5426490  59.5855630  31.9902150
  20.6230080  58.6383140  32.1019550  21.4346240  59.9162510  32.0962810
  18.0697290  61.4070550  47.2258320  18.5736310  60.8277830  47.7974550
  17.3304710  61.6910780  47.7634690  25.1235230  62.8141540  46.7593840
  24.3580900  63.3826540  46.6748510  25.3051190  62.5217750  45.8662070
  28.2123640  63.1904770  31.3846600  27.6633740  63.6374070  32.0289340
  28.8342900  62.6854020  31.9084270  20.1020370  59.5500140  48.1208390
  20.1425710  59.2514010  49.0293620  20.9565870  59.9507750  47.9615910
  23.8798760  62.1495690  33.2811900  24.3015180  61.9835560  34.1243290
  24.0049600  61.3395920  32.7867040  22.0426180  58.1292240  46.0882880
  21.5122640  57.6383190  45.4606220  22.7114250  58.5576440  45.5540810
  26.3926400  61.1733300  30.5289000  26.9132060  60.4582320  30.1630150
  27.0394800  61.8119170  30.8289510  30.9404240  62.5961700  45.8524070
  31.3545260  62.7506780  46.7014490  30.0055240  62.7216920  46.0149850
  31.4126410  59.9357860  47.8563220  31.9947180  59.1810180  47.7683700
  31.5888180  60.4665300  47.0794700  22.5298480  55.0954610  46.1680170
  22.4355350  54.4775360  45.4431040  21.9495870  55.8220900  45.9410080
  25.2959920  53.6527850  43.2007560  24.8477220  53.6752110  42.3553110
  24.6625120  53.2546870  43.7977860  25.7019470  62.5482180  43.8220000
  26.1207580  63.3914910  43.6496240  24.7828100  62.6854220  43.5926780
  28.0383370  60.2798360  45.2057840  28.1579580  59.6839500  45.9452680
  28.8977370  60.3168050  44.7859140  30.3771270  60.8335550  43.7820350
  29.8506490  61.3578170  43.1785490  30.7202610  61.4662940  44.4130080
  22.7757660  58.2228920  30.2270060  22.5746720  57.3596280  30.5883400
  22.6049710  58.1362280  29.2891660  24.8052140  56.8219710  46.4633660
  25.3951830  56.5135560  47.1511480  23.9872380  56.3499460  46.6193560
  29.6245570  56.4385520  46.6966680  28.9361090  55.7767060  46.6316670
  30.3451590  55.9923790  47.1415140  30.2545970  53.0337150  32.7556940
  30.5348260  52.1905050  33.1116360  29.4811700  53.2660260  33.2695690
  21.5740460  55.3229540  30.2147940  21.8766360  55.3296970  29.3067090
  22.3135050  54.9727400  30.7115600  24.7925390  54.2664160  31.2004140
  24.4447390  53.5888150  30.6206590  24.9938160  53.8053670  32.0147530
  34.6326690  62.2713880  33.3660850  35.3945600  62.8410530  33.4720540
  34.6481060  61.7041080  34.1369160  18.1331030  60.7951810  37.5968510
  17.4779870  60.5263450  36.9528210  18.9708980  60.6856290  37.1470490
  34.6845860  62.5648250  30.5233370  34.9594700  63.4727130  30.3952590
  34.4956600  62.5010780  31.4595360  31.0821470  55.5893100  31.8187000
  31.5006350  55.4024080  30.9783660  30.7757530  54.7372150  32.1289930
  34.5811200  60.5017240  35.5162800  34.2054800  59.7345170  35.0844090
  33.8514320  60.8839940  36.0037730  19.1706960  61.1804380  42.1371850
  19.5380000  61.0931780  43.0167870  18.6017780  60.4170930  42.0378710
  33.9710820  59.6488760  45.1502320  33.7396910  59.4201510  44.2500270
  34.2315370  60.5688310  45.1047210  18.7222960  58.0913470  46.0430270
  17.8279010  58.0580230  46.3823980  19.2620510  58.2900260  46.8081520
  32.4098890  54.8745190  47.9282020  33.2869070  54.8828590  48.3116020
  32.4219730  54.1376030  47.3174370  17.3469110  58.0050740  33.5393840
  16.4433190  58.2680940  33.3645500  17.8309730  58.2761910  32.7593800
  33.8562160  58.7274730  38.8170040  34.3799640  58.2337380  38.1860210
  34.4421580  58.8625090  39.5617610  34.0351880  58.8114600  42.3389590
  33.0854590  58.7778140  42.4534580  34.2164890  59.7214710  42.1039360
  19.8896320  57.0616280  31.4488220  20.5988020  56.6399500  30.9635500
  19.1736260  57.1291510  30.8171570  19.5370480  53.1155610  30.4890870
  20.2598610  53.6564550  30.8072090  19.8095000  52.8419030  29.6132410
  33.3462130  57.9848080  34.7562450  33.8421250  57.7518950  35.5411330
  33.1478200  57.1459920  34.3400090  19.2262670  52.3661800  40.3913490
  19.8738860  51.8159180  39.9508650  19.6464510  52.6204950  41.2129300
  34.7749290  56.6209030  37.2900130  34.6648570  56.4665070  38.2282400
  35.5356880  56.0929970  37.0475540  33.1215010  52.5603160  43.7483130
  33.7587230  53.1737300  44.1142320  33.2689900  52.5963820  42.8032360
  35.6639560  54.4516950  30.5306270  36.5888870  54.3198130  30.3224560
  35.6415350  54.5309770  31.4842720  35.7378050  55.2227610  33.1562980
  34.9429550  55.1572730  33.6855890  35.9421330  56.1578250  33.1448330
  18.9794670  52.5217470  43.1338810  18.6309490  52.9781290  43.8996990
  18.6482370  51.6274600  43.2161240  26.4919490  53.7129350  46.6558230
  26.4308380  54.3051180  47.4053640  27.4319870  53.6055310  46.5108490
  29.1294050  53.3699410  46.2950520  29.7434460  53.6878700  45.6331600
  29.6743610  52.8848000  46.9146380  19.6515310  52.0493670  46.4089580
  20.1998300  51.8681720  45.6455690  19.7170620  51.2587780  46.9445890
  29.8702090  51.9331550  42.6219810  28.9961930  52.2666660  42.4192740
  29.7612840  51.4604730  43.4471680  30.7774070  54.1402420  44.0061530
  30.4487430  53.3254180  43.6263260  31.7256370  54.0972230  43.8827220
  27.6176910  52.8501390  41.5612720  26.8348700  53.3246890  41.8409480
  27.3239840  51.9456220  41.4525900  32.1697980  53.5524490  39.6061810
  32.6106070  53.4969590  38.7583410  31.9005570  54.4682500  39.6771990
  18.9617320  53.1548870  34.0826440  19.7196680  53.2677750  33.5090470
  18.4994490  53.9918070  34.0369870  25.5031130  55.2688140  37.0728750
  24.6905640  54.8945030  36.7324630  26.0072770  54.5133220  37.3749940
  30.0056110  51.9330590  38.3111820  30.6085480  52.5050800  38.7860340
  29.2649100  52.4970030  38.0885720  33.1490710  52.3352150  33.5852100
  33.3441340  53.2335600  33.8519530  32.3620580  52.1039230  34.0785050
  21.3342470  53.6812920  32.6228410  21.8635230  52.8942720  32.4936360
  21.9670790  54.3604110  32.8563940  23.5280310  53.4188060  35.6773800
  22.8983050  52.7175370  35.8443930  22.9885450  54.1792190  35.4606960
  23.6535870  52.6972040  48.1126290  23.3720140  53.2005640  47.3487110
  24.0355570  51.8993790  47.7468420  30.2551330  52.1125620  48.6906760
  30.1416780  52.4320230  49.5858280  31.0721070  52.5138130  48.3944040
  29.1609480  60.1318090  19.0541500  29.0803530  59.2172700  18.7833210
  28.7473900  60.6285160  18.3481210  27.2927520  61.9097110  20.9350770
  26.5169620  61.4297550  21.2249340  27.9440450  61.2302760  20.7606930
  21.3093350  62.2216920  21.8126530  20.4778230  61.9665630  22.2123040
  21.9174330  62.2927690  22.5484450  19.7185300  57.1818810  15.5968920
  18.8302000  57.5234780  15.4948800  20.0026490  56.9819130  14.7049750
  17.6818310  59.7824460  21.4808620  18.2534420  59.0146660  21.4812260
  17.6819850  60.0813220  20.5715230  18.9243180  55.1908820  23.2677550
  18.7446020  54.2934570  23.5480310  18.5223260  55.7380690  23.9424500
  27.7641680  57.3924680  21.1689860  28.1406500  56.5196560  21.0563530
  27.6661190  57.7283380  20.2780300  21.8946690  55.7650310  16.6307300
  22.0013440  56.6654040  16.9376060  20.9839050  55.7168280  16.3401950
  31.5465800  54.8875120  18.1018200  32.3675420  54.3971690  18.1443680
  31.5799880  55.4772780  18.8550040  19.5429850  57.6869320  21.8759890
  20.2239960  57.9507690  22.4947290  19.2277900  56.8470190  22.2097900
  23.7354420  58.7336680  20.9632480  24.2432640  59.2317650  21.6037500
  24.2667660  57.9571880  20.7871840  35.8365350  56.9041870  24.6661830
  35.1317520  57.2923580  24.1476940  36.1023270  57.5992160  25.2682760
  22.0190520  53.3735240  25.2295900  22.0208960  53.8907630  24.4241800
  21.1894830  52.8965420  25.2065830  23.2693370  63.0130420  23.4069400
  22.9362750  63.6399340  24.0490470  23.4460050  63.5392300  22.6271070
  31.7827280  56.8275500  20.8745740  31.0782850  57.1160390  21.4548850
  32.1439440  57.6375610  20.5145300  21.7005850  55.0845200  23.2366350
  22.0422660  55.9287250  22.9420220  20.7621660  55.2328940  23.3531690
  34.8514200  56.2730290  21.2654950  33.9039110  56.3069270  21.3970380
  35.1764190  57.0869240  21.6504310  25.3833740  52.5727470  19.5610940
  25.6908720  52.0174360  18.8446440  24.4534440  52.7071930  19.3783930
  30.3334240  63.1924600  23.1801010  30.7503030  62.9784710  22.3454470
  31.0574060  63.4497390  23.7509630  27.7714500  60.6376300  16.2971060
  26.8443780  60.5713680  16.5259530  27.9239320  61.5756430  16.1826300
  27.7583580  56.9093300  13.2938220  26.8187250  57.0707260  13.3790680
  28.0766840  57.6278980  12.7474210  34.2796340  61.5911820  23.2717250
  33.4514970  61.6604910  22.7967380  34.8746820  62.1766130  22.8033080
  31.8011790  62.1996600  16.8006310  31.1824210  61.8616150  16.1532610
  31.7836240  61.5556360  17.5085500  31.2438350  58.3781140  24.2172120
  30.8309530  59.2034850  24.4712110  30.5114300  57.7926180  24.0248480
  23.3771140  61.1641040  19.0790790  22.9728140  60.4518290  18.5836690
  23.4634260  60.8194280  19.9678830  22.0899760  57.9384250  22.8589830
  22.6414350  58.0479590  22.0843080  22.6043270  58.3121850  23.5745060
  29.9776490  61.4383410  13.8079060  30.4169770  60.6005840  13.6616880
  30.6904910  62.0712810  13.8943200  21.7642490  61.4603610  26.4695170
  21.6250260  62.3326410  26.8382570  20.8823850  61.1176420  26.3243110
  33.5593630  52.6926220  12.1220100  33.2466290  52.7853050  13.0219170
  34.3206100  53.2707250  12.0717530  20.0775770  60.0586020  16.5797440
  19.9573370  60.7848110  15.9678710  19.7676660  59.2888930  16.1025350
  17.7161140  63.2301160  22.3866080  17.7941560  63.3649930  21.4421800
  18.3302820  62.5217050  22.5794200  34.7694920  57.4297720  28.0994240
  34.1539190  57.9377390  27.5709700  34.4491340  56.5296050  28.0420180
  22.5439430  53.4021090  19.9621110  22.1007580  54.1830630  19.6305630
  23.1024420  53.7250980  20.6692050  26.8309240  56.2689610  25.5656430
  26.3688610  56.4772630  26.3776370  26.4287350  55.4548960  25.2627100
  31.8313750  57.4898560  26.6953090  30.9807340  57.1904310  27.0162160
  31.6715540  57.7340570  25.7836910  28.9263460  58.9900310  28.7951880
  29.2516870  58.1564060  28.4554110  29.7143790  59.5128830  28.9430210
  25.6598250  53.0231790  14.8426940  25.0352430  53.0191660  15.5680250
  25.5728370  52.1562750  14.4462910  24.5815330  53.9468420  21.8210710
  24.8787660  54.8531250  21.7402730  25.1300890  53.4587200  21.2070280
  22.3353650  58.5254660  17.6902360  22.1094570  58.3091830  18.5948980
  21.5546180  58.9583120  17.3448330  29.5651410  58.5318030  16.2893010
  28.9660300  59.2553830  16.1056630  30.1131020  58.4694810  15.5069460
  24.7752860  59.4240240  28.3562630  24.6796460  58.4834970  28.2063030
  25.6184840  59.6455310  27.9610700  28.1716280  57.1681570  18.3196290
  28.5645850  57.4853770  17.5064980  28.5333130  56.2893450  18.4340810
  19.9063400  55.8353910  26.5096410  19.5126790  56.6829120  26.7169190
  19.2181800  55.1980280  26.7005050  26.4808450  55.9188880  29.5793150
  25.7906770  55.7261080  30.2139240  27.2240750  56.2023520  30.1117450
  17.2080450  53.7582370  20.5426490  16.9193500  54.3285230  21.2551470
  17.9526210  53.2786820  20.9057720  17.3950680  57.7002490  11.7529210
  17.3125350  58.6433250  11.8944200  17.0433740  57.5577400  10.8741560
  28.7571420  59.7587320  22.4147070  28.0252540  60.2674130  22.7637170
  28.3595760  58.9417300  22.1135850  25.1948810  56.4341520  20.8199560
  25.1984870  55.9931470  19.9704100  26.0899930  56.7558850  20.9271380
  21.0451190  56.3168010  19.7793770  20.7051240  56.7943240  20.5360820
  20.2828510  55.8633130  19.4194870  25.2568960  57.4353600  13.8106320
  25.3781780  57.3940080  14.7592140  24.8717470  58.2977750  13.6553050
  29.2197330  55.2121000  21.8270010  29.2370070  55.6629650  22.6711860
  28.9712910  54.3126640  22.0403450  24.2690460  59.7454740  13.2089620
  23.7007360  59.2972990  12.5825530  24.9779460  60.1047520  12.6754770
  32.6468080  52.6253180  27.6656390  32.9713850  51.8942840  28.1914370
  32.6824590  52.3066820  26.7637380  25.4956780  60.4943300  22.5664970
  25.8626910  60.0201870  23.3126310  25.3061840  61.3684870  22.9073310
  18.3597270  55.2386990  18.6958440  18.0744190  54.8742660  19.5337060
  18.2976130  54.5067450  18.0821580  23.2856150  59.5351940  24.8849180
  22.9813220  60.4143920  25.1099540  24.2402610  59.5951730  24.9206620
  21.8137940  63.7412930  15.4816030  21.0400200  63.2010550  15.3214750
  22.5432570  63.2219540  15.1433790  32.5725920  62.7378290  21.2742420
  33.2925040  63.2333580  20.8838530  32.3707740  62.0596180  20.6296290
  28.0335860  54.1316250  15.4171810  27.2200470  53.6329420  15.3417120
  27.8397810  54.9714500  15.0008160  27.9544720  62.8087350  27.1611420
  27.8882030  61.8883020  26.9069010  27.3249860  62.9062790  27.8756060
  30.7484250  58.5035900  13.7133970  31.6363870  58.8153130  13.5385310
  30.7189340  57.6308150  13.3214550  21.8575340  63.4093310  19.1194840
  22.3754010  62.6061570  19.0651730  21.4059360  63.3472450  19.9611670
  19.3419880  60.3754680  26.0320540  18.9834820  61.0408530  26.6193880
  19.0474440  59.5438230  26.4033160  22.5433000  60.8338920  28.9160090
  22.2433140  60.9796100  28.0187910  23.3144240  60.2744210  28.8233480
  33.0198520  59.8147740  13.1813830  32.9362240  60.2461960  12.3310270
  33.7392710  60.2746090  13.6140650  34.0972660  62.2715260  26.2583800
  33.3720850  62.8644040  26.0613190  34.6248120  62.2638800  25.4597170
  17.8527930  60.3745940  12.6555140  18.7222780  60.6570740  12.9391060
  17.3618250  61.1881810  12.5403950  25.0162740  61.7619150  16.7763420
  25.4725520  62.5724400  17.0023610  24.6650950  61.4442290  17.6081910
  20.9174520  52.1056800  17.2485940  20.7889150  52.0974700  18.1970860
  20.0936540  52.4439890  16.8976950  17.9168450  53.8647920  26.7092640
  17.2026970  54.0644840  27.3145250  18.3363490  53.0887490  27.0807440
  19.8374440  62.1919410  14.7837200  19.2302390  62.9318310  14.7932500
  20.3123790  62.2818770  13.9575400  29.4107230  56.3570230  24.4594090
  29.7788050  55.5365440  24.7873660  28.5505430  56.4172120  24.8749740
  32.7769260  55.3127170  15.2681650  32.1482420  55.4172840  14.5539880
  32.2821180  55.5323950  16.0575530  24.7453290  57.5913120  16.6839530
  24.0369440  58.0599460  17.1253140  25.0297770  56.9335130  17.3184720
  26.3709220  59.0109820  24.6832060  26.8694470  59.4855640  25.3483910
  26.5132170  58.0873340  24.8902090  28.7768720  54.3163780  18.1235320
  28.6536500  54.3349910  17.1744830  29.7253280  54.3642720  18.2433720
  22.9488310  55.8998200  14.0590240  23.7978840  56.3368350  13.9930430
  22.5819580  56.2118460  14.8862300  33.5776080  55.2277780  25.5260450
  33.0749680  55.9683180  25.8654260  34.3932740  55.6161780  25.2097240
  31.8698090  60.4710960  18.9721810  30.9288230  60.4861190  19.1469500
  32.1842160  59.6846920  19.4182110  21.8479730  62.1530560  12.5325770
  22.6143000  62.0411920  13.0951200  21.9254420  61.4568530  11.8802540
  20.5426490  59.5855630  13.2158660  20.6230080  58.6383140  13.3276060
  21.4346240  59.9162510  13.3219320  18.0697290  61.4070550  28.4514830
  18.5736310  60.8277830  29.0231060  17.3304710  61.6910780  28.9891200
  25.1235230  62.8141540  27.9850350  24.3580900  63.3826540  27.9005020
  25.3051190  62.5217750  27.0918580  28.2123640  63.1904770  12.6103110
  27.6633740  63.6374070  13.2545850  28.8342900  62.6854020  13.1340780
  20.1020370  59.5500140  29.3464900  20.1425710  59.2514010  30.2550130
  20.9565870  59.9507750  29.1872420  23.8798760  62.1495690  14.5068410
  24.3015180  61.9835560  15.3499800  24.0049600  61.3395920  14.0123550
  22.0426180  58.1292240  27.3139390  21.5122640  57.6383190  26.6862730
  22.7114250  58.5576440  26.7797320  26.3926400  61.1733300  11.7545510
  26.9132060  60.4582320  11.3886660  27.0394800  61.8119170  12.0546020
  30.9404240  62.5961700  27.0780580  31.3545260  62.7506780  27.9271000
  30.0055240  62.7216920  27.2406360  31.4126410  59.9357860  29.0819730
  31.9947180  59.1810180  28.9940210  31.5888180  60.4665300  28.3051210
  22.5298480  55.0954610  27.3936680  22.4355350  54.4775360  26.6687550
  21.9495870  55.8220900  27.1666590  25.2959920  53.6527850  24.4264070
  24.8477220  53.6752110  23.5809620  24.6625120  53.2546870  25.0234370
  25.7019470  62.5482180  25.0476510  26.1207580  63.3914910  24.8752750
  24.7828100  62.6854220  24.8183290  28.0383370  60.2798360  26.4314350
  28.1579580  59.6839500  27.1709190  28.8977370  60.3168050  26.0115650
  30.3771270  60.8335550  25.0076860  29.8506490  61.3578170  24.4042000
  30.7202610  61.4662940  25.6386590  22.7757660  58.2228920  11.4526570
  22.5746720  57.3596280  11.8139910  22.6049710  58.1362280  10.5148170
  24.8052140  56.8219710  27.6890170  25.3951830  56.5135560  28.3767990
  23.9872380  56.3499460  27.8450070  29.6245570  56.4385520  27.9223190
  28.9361090  55.7767060  27.8573180  30.3451590  55.9923790  28.3671650
  30.2545970  53.0337150  13.9813450  30.5348260  52.1905050  14.3372870
  29.4811700  53.2660260  14.4952200  21.5740460  55.3229540  11.4404450
  21.8766360  55.3296970  10.5323600  22.3135050  54.9727400  11.9372110
  24.7925390  54.2664160  12.4260650  24.4447390  53.5888150  11.8463100
  24.9938160  53.8053670  13.2404040  34.6326690  62.2713880  14.5917360
  35.3945600  62.8410530  14.6977050  34.6481060  61.7041080  15.3625670
  18.1331030  60.7951810  18.8225020  17.4779870  60.5263450  18.1784720
  18.9708980  60.6856290  18.3727000  34.6845860  62.5648250  11.7489880
  34.9594700  63.4727130  11.6209100  34.4956600  62.5010780  12.6851870
  31.0821470  55.5893100  13.0443510  31.5006350  55.4024080  12.2040170
  30.7757530  54.7372150  13.3546440  34.5811200  60.5017240  16.7419310
  34.2054800  59.7345170  16.3100600  33.8514320  60.8839940  17.2294240
  19.1706960  61.1804380  23.3628360  19.5380000  61.0931780  24.2424380
  18.6017780  60.4170930  23.2635220  33.9710820  59.6488760  26.3758830
  33.7396910  59.4201510  25.4756780  34.2315370  60.5688310  26.3303720
  18.7222960  58.0913470  27.2686780  17.8279010  58.0580230  27.6080490
  19.2620510  58.2900260  28.0338030  32.4098890  54.8745190  29.1538530
  33.2869070  54.8828590  29.5372530  32.4219730  54.1376030  28.5430880
  17.3469110  58.0050740  14.7650350  16.4433190  58.2680940  14.5902010
  17.8309730  58.2761910  13.9850310  33.8562160  58.7274730  20.0426550
  34.3799640  58.2337380  19.4116720  34.4421580  58.8625090  20.7874120
  34.0351880  58.8114600  23.5646100  33.0854590  58.7778140  23.6791090
  34.2164890  59.7214710  23.3295870  19.8896320  57.0616280  12.6744730
  20.5988020  56.6399500  12.1892010  19.1736260  57.1291510  12.0428080
  19.5370480  53.1155610  11.7147380  20.2598610  53.6564550  12.0328600
  19.8095000  52.8419030  10.8388920  33.3462130  57.9848080  15.9818960
  33.8421250  57.7518950  16.7667840  33.1478200  57.1459920  15.5656600
  19.2262670  52.3661800  21.6170000  19.8738860  51.8159180  21.1765160
  19.6464510  52.6204950  22.4385810  34.7749290  56.6209030  18.5156640
  34.6648570  56.4665070  19.4538910  35.5356880  56.0929970  18.2732050
  33.1215010  52.5603160  24.9739640  33.7587230  53.1737300  25.3398830
  33.2689900  52.5963820  24.0288870  35.6639560  54.4516950  11.7562780
  36.5888870  54.3198130  11.5481070  35.6415350  54.5309770  12.7099230
  35.7378050  55.2227610  14.3819490  34.9429550  55.1572730  14.9112400
  35.9421330  56.1578250  14.3704840  18.9794670  52.5217470  24.3595320
  18.6309490  52.9781290  25.1253500  18.6482370  51.6274600  24.4417750
  26.4919490  53.7129350  27.8814740  26.4308380  54.3051180  28.6310150
  27.4319870  53.6055310  27.7365000  29.1294050  53.3699410  27.5207030
  29.7434460  53.6878700  26.8588110  29.6743610  52.8848000  28.1402890
  19.6515310  52.0493670  27.6346090  20.1998300  51.8681720  26.8712200
  19.7170620  51.2587780  28.1702400  29.8702090  51.9331550  23.8476320
  28.9961930  52.2666660  23.6449250  29.7612840  51.4604730  24.6728190
  30.7774070  54.1402420  25.2318040  30.4487430  53.3254180  24.8519770
  31.7256370  54.0972230  25.1083730  27.6176910  52.8501390  22.7869230
  26.8348700  53.3246890  23.0665990  27.3239840  51.9456220  22.6782410
  32.1697980  53.5524490  20.8318320  32.6106070  53.4969590  19.9839920
  31.9005570  54.4682500  20.9028500  34.0336550  53.1839730  18.8427140
  33.9724950  52.2400950  18.6958160  34.8128580  53.2919820  19.3880600
  18.9617320  53.1548870  15.3082950  19.7196680  53.2677750  14.7346980
  18.4994490  53.9918070  15.2626380  25.5031130  55.2688140  18.2985260
  24.6905640  54.8945030  17.9581140  26.0072770  54.5133220  18.6006450
  30.0056110  51.9330590  19.5368330  30.6085480  52.5050800  20.0116850
  29.2649100  52.4970030  19.3142230  33.1490710  52.3352150  14.8108610
  33.3441340  53.2335600  15.0776040  32.3620580  52.1039230  15.3041560
  21.3342470  53.6812920  13.8484920  21.8635230  52.8942720  13.7192870
  21.9670790  54.3604110  14.0820450  23.5280310  53.4188060  16.9030310
  22.8983050  52.7175370  17.0700440  22.9885450  54.1792190  16.6863470
  23.6535870  52.6972040  29.3382800  23.3720140  53.2005640  28.5743620
  24.0355570  51.8993790  28.9724930  30.2551330  52.1125620  29.9163270
  30.1416780  52.4320230  30.8114790  31.0721070  52.5138130  29.6200550
  27.2927520  61.9097110   2.1607280  26.5169620  61.4297550   2.4505850
  27.9440450  61.2302760   1.9863440  21.3093350  62.2216920   3.0383040
  20.4778230  61.9665630   3.4379550  21.9174330  62.2927690   3.7740960
  17.6818310  59.7824460   2.7065130  18.2534420  59.0146660   2.7068770
  17.6819850  60.0813220   1.7971740  18.9243180  55.1908820   4.4934060
  18.7446020  54.2934570   4.7736820  18.5223260  55.7380690   5.1681010
  19.5429850  57.6869320   3.1016400  20.2239960  57.9507690   3.7203800
  19.2277900  56.8470190   3.4354410  23.7354420  58.7336680   2.1888990
  24.2432640  59.2317650   2.8294010  24.2667660  57.9571880   2.0128350
  35.8365350  56.9041870   5.8918340  35.1317520  57.2923580   5.3733450
  36.1023270  57.5992160   6.4939270  22.0190520  53.3735240   6.4552410
  22.0208960  53.8907630   5.6498310  21.1894830  52.8965420   6.4322340
  23.2693370  63.0130420   4.6325910  22.9362750  63.6399340   5.2746980
  23.4460050  63.5392300   3.8527580  31.7827280  56.8275500   2.1002250
  31.0782850  57.1160390   2.6805360  32.1439440  57.6375610   1.7401810
  21.7005850  55.0845200   4.4622860  22.0422660  55.9287250   4.1676730
  20.7621660  55.2328940   4.5788200  34.8514200  56.2730290   2.4911460
  33.9039110  56.3069270   2.6226890  35.1764190  57.0869240   2.8760820
  30.3334240  63.1924600   4.4057520  30.7503030  62.9784710   3.5710980
  31.0574060  63.4497390   4.9766140  34.2796340  61.5911820   4.4973760
  33.4514970  61.6604910   4.0223890  34.8746820  62.1766130   4.0289590
  31.2438350  58.3781140   5.4428630  30.8309530  59.2034850   5.6968620
  30.5114300  57.7926180   5.2504990  22.0899760  57.9384250   4.0846340
  22.6414350  58.0479590   3.3099590  22.6043270  58.3121850   4.8001570
  21.7642490  61.4603610   7.6951680  21.6250260  62.3326410   8.0639080
  20.8823850  61.1176420   7.5499620  17.7161140  63.2301160   3.6122590
  17.7941560  63.3649930   2.6678310  18.3302820  62.5217050   3.8050710
  34.7694920  57.4297720   9.3250750  34.1539190  57.9377390   8.7966210
  34.4491340  56.5296050   9.2676690  26.8309240  56.2689610   6.7912940
  26.3688610  56.4772630   7.6032880  26.4287350  55.4548960   6.4883610
  31.8313750  57.4898560   7.9209600  30.9807340  57.1904310   8.2418670
  31.6715540  57.7340570   7.0093420  28.9263460  58.9900310  10.0208390
  29.2516870  58.1564060   9.6810620  29.7143790  59.5128830  10.1686720
  24.5815330  53.9468420   3.0467220  24.8787660  54.8531250   2.9659240
  25.1300890  53.4587200   2.4326790  24.7752860  59.4240240   9.5819140
  24.6796460  58.4834970   9.4319540  25.6184840  59.6455310   9.1867210
  19.9063400  55.8353910   7.7352920  19.5126790  56.6829120   7.9425700
  19.2181800  55.1980280   7.9261560  26.4808450  55.9188880  10.8049660
  25.7906770  55.7261080  11.4395750  27.2240750  56.2023520  11.3373960
  17.2080450  53.7582370   1.7683000  16.9193500  54.3285230   2.4807980
  17.9526210  53.2786820   2.1314230  28.7571420  59.7587320   3.6403580
  28.0252540  60.2674130   3.9893680  28.3595760  58.9417300   3.3392360
  29.2197330  55.2121000   3.0526520  29.2370070  55.6629650   3.8968370
  28.9712910  54.3126640   3.2659960  32.6468080  52.6253180   8.8912900
  32.9713850  51.8942840   9.4170880  32.6824590  52.3066820   7.9893890
  25.4956780  60.4943300   3.7921480  25.8626910  60.0201870   4.5382820
  25.3061840  61.3684870   4.1329820  23.2856150  59.5351940   6.1105690
  22.9813220  60.4143920   6.3356050  24.2402610  59.5951730   6.1463130
  32.5725920  62.7378290   2.4998930  33.2925040  63.2333580   2.1095040
  32.3707740  62.0596180   1.8552800  27.9544720  62.8087350   8.3867930
  27.8882030  61.8883020   8.1325520  27.3249860  62.9062790   9.1012570
  19.3419880  60.3754680   7.2577050  18.9834820  61.0408530   7.8450390
  19.0474440  59.5438230   7.6289670  22.5433000  60.8338920  10.1416600
  22.2433140  60.9796100   9.2444420  23.3144240  60.2744210  10.0489990
  34.0972660  62.2715260   7.4840310  33.3720850  62.8644040   7.2869700
  34.6248120  62.2638800   6.6853680  17.9168450  53.8647920   7.9349150
  17.2026970  54.0644840   8.5401760  18.3363490  53.0887490   8.3063950
  29.4107230  56.3570230   5.6850600  29.7788050  55.5365440   6.0130170
  28.5505430  56.4172120   6.1006250  26.3709220  59.0109820   5.9088570
  26.8694470  59.4855640   6.5740420  26.5132170  58.0873340   6.1158600
  33.5776080  55.2277780   6.7516960  33.0749680  55.9683180   7.0910770
  34.3932740  55.6161780   6.4353750  18.0697290  61.4070550   9.6771340
  18.5736310  60.8277830  10.2487570  17.3304710  61.6910780  10.2147710
  25.1235230  62.8141540   9.2106860  24.3580900  63.3826540   9.1261530
  25.3051190  62.5217750   8.3175090  20.1020370  59.5500140  10.5721410
  20.1425710  59.2514010  11.4806640  20.9565870  59.9507750  10.4128930
  22.0426180  58.1292240   8.5395900  21.5122640  57.6383190   7.9119240
  22.7114250  58.5576440   8.0053830  30.9404240  62.5961700   8.3037090
  31.3545260  62.7506780   9.1527510  30.0055240  62.7216920   8.4662870
  31.4126410  59.9357860  10.3076240  31.9947180  59.1810180  10.2196720
  31.5888180  60.4665300   9.5307720  22.5298480  55.0954610   8.6193190
  22.4355350  54.4775360   7.8944060  21.9495870  55.8220900   8.3923100
  25.2959920  53.6527850   5.6520580  24.8477220  53.6752110   4.8066130
  24.6625120  53.2546870   6.2490880  25.7019470  62.5482180   6.2733020
  26.1207580  63.3914910   6.1009260  24.7828100  62.6854220   6.0439800
  28.0383370  60.2798360   7.6570860  28.1579580  59.6839500   8.3965700
  28.8977370  60.3168050   7.2372160  30.3771270  60.8335550   6.2333370
  29.8506490  61.3578170   5.6298510  30.7202610  61.4662940   6.8643100
  24.8052140  56.8219710   8.9146680  25.3951830  56.5135560   9.6024500
  23.9872380  56.3499460   9.0706580  29.6245570  56.4385520   9.1479700
  28.9361090  55.7767060   9.0829690  30.3451590  55.9923790   9.5928160
  19.1706960  61.1804380   4.5884870  19.5380000  61.0931780   5.4680890
  18.6017780  60.4170930   4.4891730  33.9710820  59.6488760   7.6015340
  33.7396910  59.4201510   6.7013290  34.2315370  60.5688310   7.5560230
  18.7222960  58.0913470   8.4943290  17.8279010  58.0580230   8.8337000
  19.2620510  58.2900260   9.2594540  32.4098890  54.8745190  10.3795040
  33.2869070  54.8828590  10.7629040  32.4219730  54.1376030   9.7687390
  34.0351880  58.8114600   4.7902610  33.0854590  58.7778140   4.9047600
  34.2164890  59.7214710   4.5552380  19.2262670  52.3661800   2.8426510
  19.8738860  51.8159180   2.4021670  19.6464510  52.6204950   3.6642320
  33.1215010  52.5603160   6.1996150  33.7587230  53.1737300   6.5655340
  33.2689900  52.5963820   5.2545380  18.9794670  52.5217470   5.5851830
  18.6309490  52.9781290   6.3510010  18.6482370  51.6274600   5.6674260
  26.4919490  53.7129350   9.1071250  26.4308380  54.3051180   9.8566660
  27.4319870  53.6055310   8.9621510  29.1294050  53.3699410   8.7463540
  29.7434460  53.6878700   8.0844620  29.6743610  52.8848000   9.3659400
  19.6515310  52.0493670   8.8602600  20.1998300  51.8681720   8.0968710
  19.7170620  51.2587780   9.3958910  29.8702090  51.9331550   5.0732830
  28.9961930  52.2666660   4.8705760  29.7612840  51.4604730   5.8984700
  30.7774070  54.1402420   6.4574550  30.4487430  53.3254180   6.0776280
  31.7256370  54.0972230   6.3340240  27.6176910  52.8501390   4.0125740
  26.8348700  53.3246890   4.2922500  27.3239840  51.9456220   3.9038920
  23.6535870  52.6972040  10.5639310  23.3720140  53.2005640   9.8000130
  24.0355570  51.8993790  10.1981440  30.2551330  52.1125620  11.1419780
  30.1416780  52.4320230  12.0371300  31.0721070  52.5138130  10.8457060
  29.1609480  41.3574600  75.3771970  29.0803530  40.4429210  75.1063680
  28.7473900  41.8541670  74.6711680  31.3134950  47.5413810  76.0380370
  30.8516480  46.7701050  76.3667540  32.1260500  47.5679880  76.5432820
  19.7185300  38.4075320  71.9199390  18.8302000  38.7491290  71.8179270
  20.0026490  38.2075640  71.0280220  27.5398260  49.8271820  75.6584360
  26.9209700  50.2829320  75.0878800  28.3950040  49.9823280  75.2574060
  21.8946690  36.9906820  72.9537770  22.0013440  37.8910550  73.2606530
  20.9839050  36.9424790  72.6632420  31.5465800  36.1131630  74.4248670
  32.3675420  35.6228200  74.4674150  31.5799880  36.7029290  75.1780510
  28.4061610  44.7111060  73.0516270  27.7878880  45.1760510  72.4878990
  28.9184860  45.4038540  73.4685780  17.7744810  45.3967590  70.4255900
  17.3972790  45.8854690  69.6940800  18.0317880  46.0692870  71.0562430
  25.3833740  33.7983980  75.8841410  25.6908720  33.2430870  75.1676910
  24.4534440  33.9328440  75.7014400  32.2294220  46.2367490  73.2639040
  32.1190550  45.2941820  73.3888460  32.2262470  46.5983130  74.1501800
  27.7714500  41.8632810  72.6201530  26.8443780  41.7970190  72.8490000
  27.9239320  42.8012940  72.5056770  27.7583580  38.1349810  69.6168690
  26.8187250  38.2963770  69.7021150  28.0766840  38.8535490  69.0704680
  31.8011790  43.4253110  73.1236780  31.1824210  43.0872660  72.4763080
  31.7836240  42.7812870  73.8315970  23.3771140  42.3897550  75.4021260
  22.9728140  41.6774800  74.9067160  23.4634260  42.0450790  76.2909300
  29.9776490  42.6639920  70.1309530  30.4169770  41.8262350  69.9847350
  30.6904910  43.2969320  70.2173670  28.0871870  47.6035990  74.0990770
  28.5267780  48.3460320  73.6846160  28.0258760  47.8462560  75.0229730
  33.5593630  33.9182730  68.4450570  33.2466290  34.0109560  69.3449640
  34.3206100  34.4963760  68.3948000  20.0775770  41.2842530  72.9027910
  19.9573370  42.0104620  72.2909180  19.7676660  40.5145440  72.4255820
  18.9608770  46.1557860  75.1202730  18.5536850  46.2972450  74.2656330
  19.8521780  45.8718020  74.9173940  30.7542050  50.5905110  71.4553780
  30.5943190  50.3008050  72.3535610  30.5888760  49.8145240  70.9199010
  23.2330430  50.3703640  73.2325400  23.0572910  49.4539180  73.0193200
  22.3786170  50.7290930  73.4723200  30.4568180  48.0992670  70.0151780
  29.7633340  48.0969960  69.3554060  31.1991040  47.6751990  69.5845950
  30.0218110  49.7255380  74.0900270  30.4775060  48.9444760  74.4038890
  30.3610630  50.4362200  74.6341450  22.5439430  34.6277600  76.2851580
  22.1007580  35.4087140  75.9536100  23.1024420  34.9507490  76.9922520
  25.6598250  34.2488300  71.1657410  25.0352430  34.2448170  71.8910720
  25.5728370  33.3819260  70.7693380  22.3353650  39.7511170  74.0132830
  22.1094570  39.5348340  74.9179450  21.5546180  40.1839630  73.6678800
  29.5651410  39.7574540  72.6123480  28.9660300  40.4810340  72.4287100
  30.1131020  39.6951320  71.8299930  28.1716280  38.3938080  74.6426760
  28.5645850  38.7110280  73.8295450  28.5333130  37.5149960  74.7571280
  17.3950680  38.9259000  68.0759680  17.3125350  39.8689760  68.2174670
  17.0433740  38.7833910  67.1972030  21.0451190  37.5424520  76.1024240
  20.7051240  38.0199750  76.8591290  20.2828510  37.0889640  75.7425340
  25.2568960  38.6610110  70.1336790  25.3781780  38.6196590  71.0822610
  24.8717470  39.5234260  69.9783520  24.2690460  40.9711250  69.5320090
  23.7007360  40.5229500  68.9056000  24.9779460  41.3304030  68.9985240
  18.3597270  36.4643500  75.0188910  18.0744190  36.0999170  75.8567530
  18.2976130  35.7323960  74.4052050  21.8137940  44.9669440  71.8046500
  21.0400200  44.4267060  71.6445220  22.5432570  44.4476050  71.4664260
  28.0335860  35.3572760  71.7402280  27.2200470  34.8585930  71.6647590
  27.8397810  36.1971010  71.3238630  30.7484250  39.7292410  70.0364440
  31.6363870  40.0409640  69.8615780  30.7189340  38.8564660  69.6445020
  21.8575340  44.6349820  75.4425310  22.3754010  43.8318080  75.3882200
  21.4059360  44.5728960  76.2842140  26.7444840  45.9016100  70.7152610
  27.0860540  46.6458330  70.2195930  25.9157550  46.2147220  71.0777440
  33.0198520  41.0404250  69.5044300  32.9362240  41.4718470  68.6540740
  33.7392710  41.5002600  69.9371120  34.0485770  47.8946510  72.2326430
  33.4061930  47.2402130  72.5070150  33.6616430  48.3001600  71.4567100
  29.6272250  45.2231940  76.0798120  29.9796070  44.6260070  75.4199490
  28.7434580  44.8976170  76.2506370  25.7135530  45.9829630  73.4868530
  26.4006660  46.5298840  73.8676120  24.9267950  46.5270360  73.5218140
  17.8527930  41.6002450  68.9785610  18.7222780  41.8827250  69.2621530
  17.3618250  42.4138320  68.8634420  25.0162740  42.9875660  73.0993890
  25.4725520  43.7980910  73.3254080  24.6650950  42.6698800  73.9312380
  20.9174520  33.3313310  73.5716410  20.7889150  33.3231210  74.5201330
  20.0936540  33.6696400  73.2207420  32.4383150  46.7862970  68.7702780
  32.2120730  46.0693410  69.3627420  32.0479350  46.5375410  67.9324530
  18.2199180  50.8129830  69.5447240  18.5796820  51.4119170  68.8904510
  18.0791520  51.3589720  70.3182270  32.0199400  44.7034910  70.4316940
  31.7321100  45.1647600  71.2194820  32.8151570  44.2432680  70.7001160
  24.2367800  48.1961030  70.3620910  24.2277900  48.9290720  69.7465420
  23.3166160  47.9492610  70.4547870  19.8374440  43.4175920  71.1067670
  19.2302390  44.1574820  71.1162970  20.3123790  43.5075280  70.2805870
  32.7769260  36.5383680  71.5912120  32.1482420  36.6429350  70.8770350
  32.2821180  36.7580460  72.3806000  27.2227400  48.2589270  69.0246100
  27.3239380  48.0553260  68.0948080  26.3229140  48.0047550  69.2293880
  24.7453290  38.8169630  73.0070000  24.0369440  39.2855970  73.4483610
  25.0297770  38.1591640  73.6415190  28.7768720  35.5420290  74.4465790
  28.6536500  35.5606420  73.4975300  29.7253280  35.5899230  74.5664190
  25.8645510  50.7775590  73.7193770  26.1187010  50.7396980  72.7973140
  24.9157990  50.6508920  73.7122020  22.9488310  37.1254710  70.3820710
  23.7978840  37.5624860  70.3160900  22.5819580  37.4374970  71.2092770
  31.8698090  41.6967470  75.2952280  30.9288230  41.7117700  75.4699970
  32.1842160  40.9103430  75.7412580  21.8479730  43.3787070  68.8556240
  22.6143000  43.2668430  69.4181670  21.9254420  42.6825040  68.2033010
  20.5426490  40.8112140  69.5389130  20.6230080  39.8639650  69.6506530
  21.4346240  41.1419020  69.6449790  21.3441200  50.9607530  76.6423670
  22.0803680  50.4122990  76.9132240  21.7282120  51.8263540  76.5029660
  18.2286680  47.0281100  72.5165180  17.3026460  47.2702240  72.5070590
  18.6943110  47.8555360  72.3949930  24.4543510  50.1337840  68.4649240
  25.2472120  50.4226670  68.0131030  23.9347860  49.7030010  67.7861720
  33.5073680  49.3607970  69.8885980  33.2215190  48.9473110  69.0740160
  33.3093230  50.2895680  69.7686500  24.9720910  45.3541250  68.3291590
  24.8671550  44.7393600  69.0552970  24.8045130  44.8307140  67.5454600
  28.2123640  44.4161280  68.9333580  27.6633740  44.8630580  69.5776320
  28.8342900  43.9110530  69.4571250  23.8798760  43.3752200  70.8298880
  24.3015180  43.2092070  71.6730270  24.0049600  42.5652430  70.3354020
  26.3926400  42.3989810  68.0775980  26.9132060  41.6838830  67.7117130
  27.0394800  43.0375680  68.3776490  22.7757660  39.4485430  67.7757040
  22.5746720  38.5852790  68.1370380  22.6049710  39.3618790  66.8378640
  30.2545970  34.2593660  70.3043920  30.5348260  33.4161560  70.6603340
  29.4811700  34.4916770  70.8182670  21.5740460  36.5486050  67.7634920
  21.8766360  36.5553480  66.8554070  22.3135050  36.1983910  68.2602580
  24.7925390  35.4920670  68.7491120  24.4447390  34.8144660  68.1693570
  24.9938160  35.0310180  69.5634510  26.9574430  50.4801420  70.3677720
  27.8525220  50.8186390  70.3896480  26.9892060  49.7580830  69.7402000
  20.5970590  45.8528470  68.5964720  21.0345460  46.3958140  69.2522300
  21.0818320  45.0275420  68.6061060  17.8116390  48.6417500  76.0484980
  18.1419400  47.7738560  75.8163620  18.2407390  48.8476020  76.8789940
  22.4078310  46.9726510  73.7086950  22.1073850  46.8491480  74.6090860
  22.3015800  46.1135100  73.3002680  35.1770230  46.7522910  68.4113630
  34.3463190  46.8199560  68.8820860  35.3542060  47.6427030  68.1080490
  34.6326690  43.4970390  70.9147830  35.3945600  44.0667040  71.0207520
  34.6481060  42.9297590  71.6856140  18.1331030  42.0208320  75.1455490
  17.4779870  41.7519960  74.5015190  18.9708980  41.9112800  74.6957470
  35.6386660  44.3520490  75.7589760  36.0095490  43.5687810  75.3525730
  36.2788590  45.0409590  75.5807060  34.6845860  43.7904760  68.0720350
  34.9594700  44.6983640  67.9439570  34.4956600  43.7267290  69.0082340
  31.0821470  36.8149610  69.3673980  31.5006350  36.6280590  68.5270640
  30.7757530  35.9628660  69.6776910  34.5811200  41.7273750  73.0649780
  34.2054800  40.9601680  72.6331070  33.8514320  42.1096450  73.5524710
  17.3469110  39.2307250  71.0880820  16.4433190  39.4937450  70.9132480
  17.8309730  39.5018420  70.3080780  33.8562160  39.9531240  76.3657020
  34.3799640  39.4593890  75.7347190  34.4421580  40.0881600  77.1104590
  19.8896320  38.2872790  68.9975200  20.5988020  37.8656010  68.5122480
  19.1736260  38.3548020  68.3658550  19.5370480  34.3412120  68.0377850
  20.2598610  34.8821060  68.3559070  19.8095000  34.0675540  67.1619390
  33.3462130  39.2104590  72.3049430  33.8421250  38.9775460  73.0898310
  33.1478200  38.3716430  71.8887070  34.7749290  37.8465540  74.8387110
  34.6648570  37.6921580  75.7769380  35.5356880  37.3186480  74.5962520
  35.6639560  35.6773460  68.0793250  36.5888870  35.5454640  67.8711540
  35.6415350  35.7566280  69.0329700  35.7378050  36.4484120  70.7049960
  34.9429550  36.3829240  71.2342870  35.9421330  37.3834760  70.6935310
  32.6796470  50.4875670  74.6988350  33.2755540  50.1660240  74.0222770
  32.9374620  50.0147490  75.4901620  34.0336550  34.4096240  75.1657610
  33.9724950  33.4657460  75.0188630  34.8128580  34.5176330  75.7111070
  18.3389300  50.5488600  74.1281560  18.1711340  49.9159280  74.8263450
  17.4723810  50.7548000  73.7775750  18.9617320  34.3805380  71.6313420
  19.7196680  34.4934260  71.0577450  18.4994490  35.2174580  71.5856850
  25.5031130  36.4944650  74.6215730  24.6905640  36.1201540  74.2811610
  26.0072770  35.7389730  74.9236920  30.0056110  33.1587100  75.8598800
  30.6085480  33.7307310  76.3347320  29.2649100  33.7226540  75.6372700
  33.1490710  33.5608660  71.1339080  33.3441340  34.4592110  71.4006510
  32.3620580  33.3295740  71.6272030  19.9452000  49.2421830  71.5731700
  19.4199620  49.6229860  70.8693660  19.8696580  49.8672600  72.2941410
  21.3342470  34.9069430  70.1715390  21.8635230  34.1199230  70.0423340
  21.9670790  35.5860620  70.4050920  23.5280310  34.6444570  73.2260780
  22.8983050  33.9431880  73.3930910  22.9885450  35.4048700  73.0093940
  34.7017320  50.8009370  72.8945640  34.8769510  50.1147110  72.2506560
  34.0038890  51.3256420  72.5022310  22.5444970  51.1904210  70.4480950
  23.2763790  50.9063490  69.9004840  22.8038640  50.9517490  71.3380330
  21.7059760  47.3068940  70.4527280  21.0768640  47.7754040  71.0013110
  21.8207590  46.4618160  70.8873470  29.1609480  41.3574600  56.6028480
  29.0803530  40.4429210  56.3320190  28.7473900  41.8541670  55.8968190
  27.2927520  43.1353620  58.4837750  26.5169620  42.6554060  58.7736320
  27.9440450  42.4559270  58.3093910  21.3093350  43.4473430  59.3613510
  20.4778230  43.1922140  59.7610020  21.9174330  43.5184200  60.0971430
  31.3134950  47.5413810  57.2636880  30.8516480  46.7701050  57.5924050
  32.1260500  47.5679880  57.7689330  21.2894610  47.4813520  59.5571530
  21.5922650  46.5911260  59.3781750  22.0338200  48.0383740  59.3293780
  19.7185300  38.4075320  53.1455900  18.8302000  38.7491290  53.0435780
  20.0026490  38.2075640  52.2536730  17.6818310  41.0080970  59.0295600
  18.2534420  40.2403170  59.0299240  17.6819850  41.3069730  58.1202210
  27.5398260  49.8271820  56.8840870  26.9209700  50.2829320  56.3135310
  28.3950040  49.9823280  56.4830570  26.7336510  45.8110810  58.4907910
  26.6644790  44.8700750  58.3297040  27.4956370  45.9012220  59.0630480
  18.9243180  36.4165330  60.8164530  18.7446020  35.5191080  61.0967290
  18.5223260  36.9637200  61.4911480  27.7641680  38.6181190  58.7176840
  28.1406500  37.7453070  58.6050510  27.6661190  38.9539890  57.8267280
  21.8946690  36.9906820  54.1794280  22.0013440  37.8910550  54.4863040
  20.9839050  36.9424790  53.8888930  19.5429850  38.9125830  59.4246870
  20.2239960  39.1764200  60.0434270  19.2277900  38.0726700  59.7584880
  23.7354420  39.9593190  58.5119460  24.2432640  40.4574160  59.1524480
  24.2667660  39.1828390  58.3358820  35.8365350  38.1298380  62.2148810
  35.1317520  38.5180090  61.6963920  36.1023270  38.8248670  62.8169740
  22.0190520  34.5991750  62.7782880  22.0208960  35.1164140  61.9728780
  21.1894830  34.1221930  62.7552810  28.4061610  44.7111060  54.2772780
  27.7878880  45.1760510  53.7135500  28.9184860  45.4038540  54.6942290
  23.2693370  44.2386930  60.9556380  22.9362750  44.8655850  61.5977450
  23.4460050  44.7648810  60.1758050  21.7005850  36.3101710  60.7853330
  22.0422660  37.1543760  60.4907200  20.7621660  36.4585450  60.9018670
  22.4812470  46.2067730  62.7705560  23.0986470  46.8818810  62.4890010
  21.6205590  46.6155710  62.6793060  17.7744810  45.3967590  51.6512410
  17.3972790  45.8854690  50.9197310  18.0317880  46.0692870  52.2818940
  33.3990060  47.6707140  60.6860200  32.7153580  48.3406250  60.6776870
  33.9384350  47.8687790  59.9205060  25.3833740  33.7983980  57.1097920
  25.6908720  33.2430870  56.3933420  24.4534440  33.9328440  56.9270910
  30.9348800  49.5151270  59.4005380  30.9475960  49.1113560  58.5327640
  30.3824020  50.2898560  59.2966810  32.2294220  46.2367490  54.4895550
  32.1190550  45.2941820  54.6144970  32.2262470  46.5983130  55.3758310
  30.3334240  44.4181110  60.7287990  30.7503030  44.2041220  59.8941450
  31.0574060  44.6753900  61.2996610  27.7714500  41.8632810  53.8458040
  26.8443780  41.7970190  54.0746510  27.9239320  42.8012940  53.7313280
  34.2796340  42.8168330  60.8204230  33.4514970  42.8861420  60.3454360
  34.8746820  43.4022640  60.3520060  31.8011790  43.4253110  54.3493290
  31.1824210  43.0872660  53.7019590  31.7836240  42.7812870  55.0572480
  31.2438350  39.6037650  61.7659100  30.8309530  40.4291360  62.0199090
  30.5114300  39.0182690  61.5735460  23.3771140  42.3897550  56.6277770
  22.9728140  41.6774800  56.1323670  23.4634260  42.0450790  57.5165810
  23.8452840  46.0765110  58.7916980  23.5481130  45.4710580  58.1124760
  24.7952660  46.1142420  58.6806340  22.0899760  39.1640760  60.4076810
  22.6414350  39.2736100  59.6330060  22.6043270  39.5378360  61.1232040
  31.9338450  49.6496980  62.4540080  31.4569010  50.4569170  62.2612690
  31.2500240  48.9975310  62.6066290  22.9371270  45.8146800  65.4424780
  22.0399800  46.0386770  65.6898180  22.9624140  45.9381740  64.4936180
  29.9776490  42.6639920  51.3566040  30.4169770  41.8262350  51.2103860
  30.6904910  43.2969320  51.4430180  21.7642490  42.6860120  64.0182150
  21.6250260  43.5582920  64.3869550  20.8823850  42.3432930  63.8730090
  28.0871870  47.6035990  55.3247280  28.5267780  48.3460320  54.9102670
  28.0258760  47.8462560  56.2486240  23.5622840  48.6281820  66.2267300
  23.5338270  49.0324770  65.3595730  23.3987810  47.6992180  66.0638900
  20.0775770  41.2842530  54.1284420  19.9573370  42.0104620  53.5165690
  19.7676660  40.5145440  53.6512330  35.5137660  49.4108920  67.5231470
  35.9897380  49.8891810  68.2020550  36.1344820  49.3426410  66.7976970
  17.7161140  44.4557670  59.9353060  17.7941560  44.5906440  58.9908780
  18.3302820  43.7473560  60.1281180  18.9608770  46.1557860  56.3459240
  18.5536850  46.2972450  55.4912840  19.8521780  45.8718020  56.1430450
  34.9170910  46.6021770  64.6831480  35.0433970  46.3633650  63.7648660
  34.9592290  45.7706310  65.1553560  28.7787650  50.3049770  63.2526290
  29.2932320  50.2157780  64.0548720  27.9356730  50.6509470  63.5454200
  30.7542050  50.5905110  52.6810290  30.5943190  50.3008050  53.5792120
  30.5888760  49.8145240  52.1455520  23.2330430  50.3703640  54.4581910
  23.0572910  49.4539180  54.2449710  22.3786170  50.7290930  54.6979710
  30.4568180  48.0992670  51.2408290  29.7633340  48.0969960  50.5810570
  31.1991040  47.6751990  50.8102460  30.0218110  49.7255380  55.3156780
  30.4775060  48.9444760  55.6295400  30.3610630  50.4362200  55.8597960
  34.7694920  38.6554230  65.6481220  34.1539190  39.1633900  65.1196680
  34.4491340  37.7552560  65.5907160  17.7720660  45.4971840  62.4747520
  17.9351700  45.0277200  61.6566890  18.2373110  44.9895400  63.1396360
  22.5439430  34.6277600  57.5108090  22.1007580  35.4087140  57.1792610
  23.1024420  34.9507490  58.2179030  26.8309240  37.4946120  63.1143410
  26.3688610  37.7029140  63.9263350  26.4287350  36.6805470  62.8114080
  31.8313750  38.7155070  64.2440070  30.9807340  38.4160820  64.5649140
  31.6715540  38.9597080  63.3323890  28.9263460  40.2156820  66.3438860
  29.2516870  39.3820570  66.0041090  29.7143790  40.7385340  66.4917190
  24.5815330  35.1724930  59.3697690  24.8787660  36.0787760  59.2889710
  25.1300890  34.6843710  58.7557260  22.3353650  39.7511170  55.2389340
  22.1094570  39.5348340  56.1435960  21.5546180  40.1839630  54.8935310
  29.5651410  39.7574540  53.8379990  28.9660300  40.4810340  53.6543610
  30.1131020  39.6951320  53.0556440  24.7752860  40.6496750  65.9049610
  24.6796460  39.7091480  65.7550010  25.6184840  40.8711820  65.5097680
  28.1716280  38.3938080  55.8683270  28.5645850  38.7110280  55.0551960
  28.5333130  37.5149960  55.9827790  19.9063400  37.0610420  64.0583390
  19.5126790  37.9085630  64.2656170  19.2181800  36.4236790  64.2492030
  26.4808450  37.1445390  67.1280130  25.7906770  36.9517590  67.7626220
  27.2240750  37.4280030  67.6604430  17.2080450  34.9838880  58.0913470
  16.9193500  35.5541740  58.8038450  17.9526210  34.5043330  58.4544700
  17.3950680  38.9259000  49.3016190  17.3125350  39.8689760  49.4431180
  17.0433740  38.7833910  48.4228540  28.7571420  40.9843830  59.9634050
  28.0252540  41.4930640  60.3124150  28.3595760  40.1673810  59.6622830
  25.1948810  37.6598030  58.3686540  25.1984870  37.2187980  57.5191080
  26.0899930  37.9815360  58.4758360  21.0451190  37.5424520  57.3280750
  20.7051240  38.0199750  58.0847800  20.2828510  37.0889640  56.9681850
  32.6468080  33.8509690  65.2143370  32.9713850  33.1199350  65.7401350
  32.6824590  33.5323330  64.3124360  19.3459640  44.8723270  64.6343330
  18.9614430  44.2316940  65.2326290  19.6571830  45.5759390  65.2038060
  25.4956780  41.7199810  60.1151950  25.8626910  41.2458380  60.8613290
  25.3061840  42.5941380  60.4560290  18.3597270  36.4643500  56.2445420
  18.0744190  36.0999170  57.0824040  18.2976130  35.7323960  55.6308560
  23.2856150  40.7608450  62.4336160  22.9813220  41.6400430  62.6586520
  24.2402610  40.8208240  62.4693600  21.8137940  44.9669440  53.0303010
  21.0400200  44.4267060  52.8701730  22.5432570  44.4476050  52.6920770
  32.5725920  43.9634800  58.8229400  33.2925040  44.4590090  58.4325510
  32.3707740  43.2852690  58.1783270  27.9544720  44.0343860  64.7098400
  27.8882030  43.1139530  64.4555990  27.3249860  44.1319300  65.4243040
  21.8575340  44.6349820  56.6681820  22.3754010  43.8318080  56.6138710
  21.4059360  44.5728960  57.5098650  26.7444840  45.9016100  51.9409120
  27.0860540  46.6458330  51.4452440  25.9157550  46.2147220  52.3033950
  19.3419880  41.6011190  63.5807520  18.9834820  42.2665040  64.1680860
  19.0474440  40.7694740  63.9520140  22.5433000  42.0595430  66.4647070
  22.2433140  42.2052610  65.5674890  23.3144240  41.5000720  66.3720460
  27.8861450  46.8564430  64.4602200  27.9005990  45.9245390  64.2421110
  27.1786550  46.9424190  65.0991970  34.0972660  43.4971770  63.8070780
  33.3720850  44.0900550  63.6100170  34.6248120  43.4895310  63.0084150
  34.0485770  47.8946510  53.4582940  33.4061930  47.2402130  53.7326660
  33.6616430  48.3001600  52.6823610  29.6272250  45.2231940  57.3054630
  29.9796070  44.6260070  56.6456000  28.7434580  44.8976170  57.4762880
  25.7135530  45.9829630  54.7125040  26.4006660  46.5298840  55.0932630
  24.9267950  46.5270360  54.7474650  17.8527930  41.6002450  50.2042120
  18.7222780  41.8827250  50.4878040  17.3618250  42.4138320  50.0890930
  25.0162740  42.9875660  54.3250400  25.4725520  43.7980910  54.5510590
  24.6650950  42.6698800  55.1568890  27.3195350  48.4982000  61.5542700
  27.9637570  48.7041380  62.2316120  27.6824790  47.7370400  61.1013550
  20.9174520  33.3313310  54.7972920  20.7889150  33.3231210  55.7457840
  20.0936540  33.6696400  54.4463930  28.5927430  46.5014350  60.2720150
  29.2349660  45.8007510  60.3852320  29.1176780  47.2812790  60.0917040
  30.3665050  47.3009250  63.4756210  30.7021290  47.8875940  64.1534130
  29.4465390  47.1701960  63.7054000  18.2199180  50.8129830  50.7703750
  18.5796820  51.4119170  50.1161020  18.0791520  51.3589720  51.5438780
  17.9168450  35.0904430  64.2579620  17.2026970  35.2901350  64.8632230
  18.3363490  34.3144000  64.6294420  32.0199400  44.7034910  51.6573450
  31.7321100  45.1647600  52.4451330  32.8151570  44.2432680  51.9257670
  18.2041040  49.0784690  65.2446150  18.3132160  48.1379430  65.1041540
  17.5521600  49.3439440  64.5959880  26.1953630  47.3500580  66.6444270
  25.8750500  46.6309820  67.1889960  25.5211990  48.0255650  66.7180330
  24.2367800  48.1961030  51.5877420  24.2277900  48.9290720  50.9721930
  23.3166160  47.9492610  51.6804380  19.8374440  43.4175920  52.3324180
  19.2302390  44.1574820  52.3419480  20.3123790  43.5075280  51.5062380
  29.4107230  37.5826740  62.0081070  29.7788050  36.7621950  62.3360640
  28.5505430  37.6428630  62.4236720  27.2227400  48.2589270  50.2502610
  27.3239380  48.0553260  49.3204590  26.3229140  48.0047550  50.4550390
  24.7453290  38.8169630  54.2326510  24.0369440  39.2855970  54.6740120
  25.0297770  38.1591640  54.8671700  26.3709220  40.2366330  62.2319040
  26.8694470  40.7112150  62.8970890  26.5132170  39.3129850  62.4389070
  28.7768720  35.5420290  55.6722300  28.6536500  35.5606420  54.7231810
  29.7253280  35.5899230  55.7920700  25.8645510  50.7775590  54.9450280
  26.1187010  50.7396980  54.0229650  24.9157990  50.6508920  54.9378530
  33.5776080  36.4534290  63.0747430  33.0749680  37.1939690  63.4141240
  34.3932740  36.8418290  62.7584220  31.8698090  41.6967470  56.5208790
  30.9288230  41.7117700  56.6956480  32.1842160  40.9103430  56.9669090
  21.8479730  43.3787070  50.0812750  22.6143000  43.2668430  50.6438180
  21.9254420  42.6825040  49.4289520  20.5426490  40.8112140  50.7645640
  20.6230080  39.8639650  50.8763040  21.4346240  41.1419020  50.8706300
  33.8723670  48.8676320  58.1963050  33.9971090  49.6907490  58.6686860
  34.7389230  48.6567050  57.8487200  21.3441200  50.9607530  57.8680180
  22.0803680  50.4122990  58.1388750  21.7282120  51.8263540  57.7286170
  18.2286680  47.0281100  53.7421690  17.3026460  47.2702240  53.7327100
  18.6943110  47.8555360  53.6206440  20.3499480  50.1453600  67.0565760
  21.1512210  50.4665650  67.4701160  19.8351300  49.7849180  67.7785670
  24.4543510  50.1337840  49.6905750  25.2472120  50.4226670  49.2387540
  23.9347860  49.7030010  49.0118230  29.1864110  46.2533470  67.0041170
  28.5802270  46.2765070  66.2636920  28.8818220  45.5216510  67.5408420
  30.6164480  49.9813760  65.6150580  31.5686230  49.8971780  65.5650820
  30.4692700  50.6455470  66.2884370  33.5073680  49.3607970  51.1142490
  33.2215190  48.9473110  50.2996670  33.3093230  50.2895680  50.9943010
  18.0697290  42.6327060  66.0001810  18.5736310  42.0534340  66.5718040
  17.3304710  42.9167290  66.5378180  24.9720910  45.3541250  49.5548100
  24.8671550  44.7393600  50.2809480  24.8045130  44.8307140  48.7711110
  25.1235230  44.0398050  65.5337330  24.3580900  44.6083050  65.4492000
  25.3051190  43.7474260  64.6405560  28.2123640  44.4161280  50.1590090
  27.6633740  44.8630580  50.8032830  28.8342900  43.9110530  50.6827760
  32.2658580  45.7703380  66.0912350  33.0068050  46.1079140  65.5879810
  31.5031260  45.9395440  65.5382120  20.1020370  40.7756650  66.8951880
  20.1425710  40.4770520  67.8037110  20.9565870  41.1764260  66.7359400
  23.8798760  43.3752200  52.0555390  24.3015180  43.2092070  52.8986780
  24.0049600  42.5652430  51.5610530  22.0426180  39.3548750  64.8626370
  21.5122640  38.8639700  64.2349710  22.7114250  39.7832950  64.3284300
  30.9404240  43.8218210  64.6267560  31.3545260  43.9763290  65.4757980
  30.0055240  43.9473430  64.7893340  31.4126410  41.1614370  66.6306710
  31.9947180  40.4066690  66.5427190  31.5888180  41.6921810  65.8538190
  22.5298480  36.3211120  64.9423660  22.4355350  35.7031870  64.2174530
  21.9495870  37.0477410  64.7153570  25.2959920  34.8784360  61.9751050
  24.8477220  34.9008620  61.1296600  24.6625120  34.4803380  62.5721350
  25.7019470  43.7738690  62.5963490  26.1207580  44.6171420  62.4239730
  24.7828100  43.9110730  62.3670270  28.0383370  41.5054870  63.9801330
  28.1579580  40.9096010  64.7196170  28.8977370  41.5424560  63.5602630
  30.3771270  42.0592060  62.5563840  29.8506490  42.5834680  61.9528980
  30.7202610  42.6919450  63.1873570  22.7757660  39.4485430  49.0013550
  22.5746720  38.5852790  49.3626890  22.6049710  39.3618790  48.0635150
  23.5526890  50.0791700  63.7121220  23.0147980  50.8037760  63.3929920
  23.8060850  49.6022040  62.9218560  24.8052140  38.0476220  65.2377150
  25.3951830  37.7392070  65.9254970  23.9872380  37.5755970  65.3937050
  29.6245570  37.6642030  65.4710170  28.9361090  37.0023570  65.4060160
  30.3451590  37.2180300  65.9158630  21.5740460  36.5486050  48.9891430
  21.8766360  36.5553480  48.0810580  22.3135050  36.1983910  49.4859090
  26.4089100  51.3142910  63.9707870  26.3347800  52.2178050  64.2780240
  25.5067940  50.9954810  63.9429940  26.9574430  50.4801420  51.5934230
  27.8525220  50.8186390  51.6152990  26.9892060  49.7580830  50.9658510
  20.5970590  45.8528470  49.8221230  21.0345460  46.3958140  50.4778810
  21.0818320  45.0275420  49.8317570  17.8116390  48.6417500  57.2741490
  18.1419400  47.7738560  57.0420130  18.2407390  48.8476020  58.1046450
  22.4078310  46.9726510  54.9343460  22.1073850  46.8491480  55.8347370
  22.3015800  46.1135100  54.5259190  18.3006600  49.5088090  60.0123120
  17.8637590  49.6888890  60.8447270  18.8684280  50.2662710  59.8704840
  33.9368780  49.0105090  64.3000430  33.3370770  49.0697650  63.5564350
  34.0662680  48.0710070  64.4297280  18.1331030  42.0208320  56.3712000
  17.4779870  41.7519960  55.7271700  18.9708980  41.9112800  55.9213980
  35.6386660  44.3520490  56.9846270  36.0095490  43.5687810  56.5782240
  36.2788590  45.0409590  56.8063570  32.6220420  45.7357070  62.3976590
  31.8080260  46.1654230  62.6602380  33.0294620  46.3475480  61.7845640
  19.1706960  42.4060890  60.9115340  19.5380000  42.3188290  61.7911360
  18.6017780  41.6427440  60.8122200  33.9710820  40.8745270  63.9245810
  33.7396910  40.6458020  63.0243760  34.2315370  41.7944820  63.8790700
  18.7222960  39.3169980  64.8173760  17.8279010  39.2836740  65.1567470
  19.2620510  39.5156770  65.5825010  32.4098890  36.1001700  66.7025510
  33.2869070  36.1085100  67.0859510  32.4219730  35.3632540  66.0917860
  17.3469110  39.2307250  52.3137330  16.4433190  39.4937450  52.1388990
  17.8309730  39.5018420  51.5337290  34.0351880  40.0371110  61.1133080
  33.0854590  40.0034650  61.2278070  34.2164890  40.9471220  60.8782850
  19.8896320  38.2872790  50.2231710  20.5988020  37.8656010  49.7378990
  19.1736260  38.3548020  49.5915060  19.2262670  33.5918310  59.1656980
  19.8738860  33.0415690  58.7252140  19.6464510  33.8461460  59.9872790
  33.1215010  33.7859670  62.5226620  33.7587230  34.3993810  62.8885810
  33.2689900  33.8220330  61.5775850  32.6796470  50.4875670  55.9244860
  33.2755540  50.1660240  55.2479280  32.9374620  50.0147490  56.7158130
  18.9794670  33.7473980  61.9082300  18.6309490  34.2037800  62.6740480
  18.6482370  32.8531110  61.9904730  20.5859040  46.9193580  66.0735490
  20.5428670  46.5486490  66.9549950  20.7170050  47.8571150  66.2137310
  24.2865070  48.4753170  61.6745210  24.0456430  48.7427730  60.7875730
  25.2267710  48.6458900  61.7296070  26.4919490  34.9385860  65.4301720
  26.4308380  35.5307690  66.1797130  27.4319870  34.8311820  65.2851980
  29.1294050  34.5955920  65.0694010  29.7434460  34.9135210  64.4075090
  29.6743610  34.1104510  65.6889870  35.5469230  50.4947550  62.4755850
  35.0527510  50.8916420  61.7582980  34.9382520  49.8696760  62.8693130
  19.6515310  33.2750180  65.1833070  20.1998300  33.0938230  64.4199180
  19.7170620  32.4844290  65.7189380  20.4247070  49.8655830  63.1933270
  19.8307390  49.7340530  63.9323310  20.4170910  49.0293970  62.7275370
  29.8702090  33.1588060  61.3963300  28.9961930  33.4923170  61.1936230
  29.7612840  32.6861240  62.2215170  30.7774070  35.3658930  62.7805020
  30.4487430  34.5510690  62.4006750  31.7256370  35.3228740  62.6570710
  33.2308680  51.1370970  59.7542590  32.7711650  51.8886780  59.3800610
  32.6021140  50.4177440  59.6957390  20.0559300  47.2314210  62.1441310
  19.3293360  46.6119500  62.0767260  20.1168450  47.6254820  61.2739390
  23.6604400  49.4459210  58.9290720  24.1769420  48.8346570  58.4038980
  24.3101780  49.9487990  59.4201730  26.3999900  50.3367700  59.7559700
  26.6877710  50.0822000  58.8792710  26.9123120  49.7845060  60.3465270
  27.6176910  34.0757900  60.3356210  26.8348700  34.5503400  60.6152970
  27.3239840  33.1712730  60.2269390  18.3389300  50.5488600  55.3538070
  18.1711340  49.9159280  56.0519960  17.4723810  50.7548000  55.0032260
  18.9617320  34.3805380  52.8569930  19.7196680  34.4934260  52.2833960
  18.4994490  35.2174580  52.8113360  25.5031130  36.4944650  55.8472240
  24.6905640  36.1201540  55.5068120  26.0072770  35.7389730  56.1493430
  19.9452000  49.2421830  52.7988210  19.4199620  49.6229860  52.0950170
  19.8696580  49.8672600  53.5197920  21.3342470  34.9069430  51.3971900
  21.8635230  34.1199230  51.2679850  21.9670790  35.5860620  51.6307430
  23.5280310  34.6444570  54.4517290  22.8983050  33.9431880  54.6187420
  22.9885450  35.4048700  54.2350450  26.4672260  51.2583800  67.1227900
  27.3939570  51.0228070  67.1663860  26.4522690  52.0855800  66.6413930
  34.7017320  50.8009370  54.1202150  34.8769510  50.1147110  53.4763070
  34.0038890  51.3256420  53.7278820  23.6535870  33.9228550  66.8869780
  23.3720140  34.4262150  66.1230600  24.0355570  33.1250300  66.5211910
  22.5444970  51.1904210  51.6737460  23.2763790  50.9063490  51.1261350
  22.8038640  50.9517490  52.5636840  21.7059760  47.3068940  51.6783790
  21.0768640  47.7754040  52.2269620  21.8207590  46.4618160  52.1129980
  30.2551330  33.3382130  67.4650250  30.1416780  33.6576740  68.3601770
  31.0721070  33.7394640  67.1687530  33.0349820  50.4853660  66.9468940
  33.8275140  49.9902890  66.7394900  33.3282970  51.1643800  67.5544550
  21.3093350  43.4473430  40.5870020  20.4778230  43.1922140  40.9866530
  21.9174330  43.5184200  41.3227940  21.2894610  47.4813520  40.7828040
  21.5922650  46.5911260  40.6038260  22.0338200  48.0383740  40.5550290
  17.6818310  41.0080970  40.2552110  18.2534420  40.2403170  40.2555750
  17.6819850  41.3069730  39.3458720  27.5398260  49.8271820  38.1097380
  26.9209700  50.2829320  37.5391820  28.3950040  49.9823280  37.7087080
  26.7336510  45.8110810  39.7164420  26.6644790  44.8700750  39.5553550
  27.4956370  45.9012220  40.2886990  19.5429850  38.9125830  40.6503380
  20.2239960  39.1764200  41.2690780  19.2277900  38.0726700  40.9841390
  28.4061610  44.7111060  35.5029290  27.7878880  45.1760510  34.9392010
  28.9184860  45.4038540  35.9198800  22.4812470  46.2067730  43.9962070
  23.0986470  46.8818810  43.7146520  21.6205590  46.6155710  43.9049570
  17.7744810  45.3967590  32.8768920  17.3972790  45.8854690  32.1453820
  18.0317880  46.0692870  33.5075450  23.8452840  46.0765110  40.0173490
  23.5481130  45.4710580  39.3381270  24.7952660  46.1142420  39.9062850
  31.9338450  49.6496980  43.6796590  31.4569010  50.4569170  43.4869200
  31.2500240  48.9975310  43.8322800  22.9371270  45.8146800  46.6681290
  22.0399800  46.0386770  46.9154690  22.9624140  45.9381740  45.7192690
  21.7642490  42.6860120  45.2438660  21.6250260  43.5582920  45.6126060
  20.8823850  42.3432930  45.0986600  28.0871870  47.6035990  36.5503790
  28.5267780  48.3460320  36.1359180  28.0258760  47.8462560  37.4742750
  23.5622840  48.6281820  47.4523810  23.5338270  49.0324770  46.5852240
  23.3987810  47.6992180  47.2895410  20.0775770  41.2842530  35.3540930
  19.9573370  42.0104620  34.7422200  19.7676660  40.5145440  34.8768840
  35.5137660  49.4108920  48.7487980  35.9897380  49.8891810  49.4277060
  36.1344820  49.3426410  48.0233480  17.7161140  44.4557670  41.1609570
  17.7941560  44.5906440  40.2165290  18.3302820  43.7473560  41.3537690
  18.9608770  46.1557860  37.5715750  18.5536850  46.2972450  36.7169350
  19.8521780  45.8718020  37.3686960  28.7787650  50.3049770  44.4782800
  29.2932320  50.2157780  45.2805230  27.9356730  50.6509470  44.7710710
  30.7542050  50.5905110  33.9066800  30.5943190  50.3008050  34.8048630
  30.5888760  49.8145240  33.3712030  23.2330430  50.3703640  35.6838420
  23.0572910  49.4539180  35.4706220  22.3786170  50.7290930  35.9236220
  30.4568180  48.0992670  32.4664800  29.7633340  48.0969960  31.8067080
  31.1991040  47.6751990  32.0358970  30.0218110  49.7255380  36.5413290
  30.4775060  48.9444760  36.8551910  30.3610630  50.4362200  37.0854470
  17.7720660  45.4971840  43.7004030  17.9351700  45.0277200  42.8823400
  18.2373110  44.9895400  44.3652870  17.3950680  38.9259000  30.5272700
  17.3125350  39.8689760  30.6687690  17.0433740  38.7833910  29.6485050
  19.3459640  44.8723270  45.8599840  18.9614430  44.2316940  46.4582800
  19.6571830  45.5759390  46.4294570  21.8137940  44.9669440  34.2559520
  21.0400200  44.4267060  34.0958240  22.5432570  44.4476050  33.9177280
  21.8575340  44.6349820  37.8938330  22.3754010  43.8318080  37.8395220
  21.4059360  44.5728960  38.7355160  26.7444840  45.9016100  33.1665630
  27.0860540  46.6458330  32.6708950  25.9157550  46.2147220  33.5290460
  19.3419880  41.6011190  44.8064030  18.9834820  42.2665040  45.3937370
  19.0474440  40.7694740  45.1776650  22.5433000  42.0595430  47.6903580
  22.2433140  42.2052610  46.7931400  23.3144240  41.5000720  47.5976970
  25.7135530  45.9829630  35.9381550  26.4006660  46.5298840  36.3189140
  24.9267950  46.5270360  35.9731160  17.8527930  41.6002450  31.4298630
  18.7222780  41.8827250  31.7134550  17.3618250  42.4138320  31.3147440
  27.3195350  48.4982000  42.7799210  27.9637570  48.7041380  43.4572630
  27.6824790  47.7370400  42.3270060  32.4383150  46.7862970  31.2215800
  32.2120730  46.0693410  31.8140440  32.0479350  46.5375410  30.3837550
  18.2199180  50.8129830  31.9960260  18.5796820  51.4119170  31.3417530
  18.0791520  51.3589720  32.7695290  32.0199400  44.7034910  32.8829960
  31.7321100  45.1647600  33.6707840  32.8151570  44.2432680  33.1514180
  18.2041040  49.0784690  46.4702660  18.3132160  48.1379430  46.3298050
  17.5521600  49.3439440  45.8216390  26.1953630  47.3500580  47.8700780
  25.8750500  46.6309820  48.4146470  25.5211990  48.0255650  47.9436840
  24.2367800  48.1961030  32.8133930  24.2277900  48.9290720  32.1978440
  23.3166160  47.9492610  32.9060890  19.8374440  43.4175920  33.5580690
  19.2302390  44.1574820  33.5675990  20.3123790  43.5075280  32.7318890
  27.2227400  48.2589270  31.4759120  27.3239380  48.0553260  30.5461100
  26.3229140  48.0047550  31.6806900  25.8645510  50.7775590  36.1706790
  26.1187010  50.7396980  35.2486160  24.9157990  50.6508920  36.1635040
  21.8479730  43.3787070  31.3069260  22.6143000  43.2668430  31.8694690
  21.9254420  42.6825040  30.6546030  20.5426490  40.8112140  31.9902150
  20.6230080  39.8639650  32.1019550  21.4346240  41.1419020  32.0962810
  21.3441200  50.9607530  39.0936690  22.0803680  50.4122990  39.3645260
  21.7282120  51.8263540  38.9542680  18.2286680  47.0281100  34.9678200
  17.3026460  47.2702240  34.9583610  18.6943110  47.8555360  34.8462950
  20.3499480  50.1453600  48.2822270  21.1512210  50.4665650  48.6957670
  19.8351300  49.7849180  49.0042180  24.4543510  50.1337840  30.9162260
  25.2472120  50.4226670  30.4644050  23.9347860  49.7030010  30.2374740
  30.6164480  49.9813760  46.8407090  31.5686230  49.8971780  46.7907330
  30.4692700  50.6455470  47.5140880  33.5073680  49.3607970  32.3399000
  33.2215190  48.9473110  31.5253180  33.3093230  50.2895680  32.2199520
  18.0697290  42.6327060  47.2258320  18.5736310  42.0534340  47.7974550
  17.3304710  42.9167290  47.7634690  24.9720910  45.3541250  30.7804610
  24.8671550  44.7393600  31.5065990  24.8045130  44.8307140  29.9967620
  28.2123640  44.4161280  31.3846600  27.6633740  44.8630580  32.0289340
  28.8342900  43.9110530  31.9084270  20.1020370  40.7756650  48.1208390
  20.1425710  40.4770520  49.0293620  20.9565870  41.1764260  47.9615910
  22.0426180  39.3548750  46.0882880  21.5122640  38.8639700  45.4606220
  22.7114250  39.7832950  45.5540810  26.3926400  42.3989810  30.5289000
  26.9132060  41.6838830  30.1630150  27.0394800  43.0375680  30.8289510
  22.7757660  39.4485430  30.2270060  22.5746720  38.5852790  30.5883400
  22.6049710  39.3618790  29.2891660  23.5526890  50.0791700  44.9377730
  23.0147980  50.8037760  44.6186430  23.8060850  49.6022040  44.1475070
  26.4089100  51.3142910  45.1964380  26.3347800  52.2178050  45.5036750
  25.5067940  50.9954810  45.1686450  26.9574430  50.4801420  32.8190740
  27.8525220  50.8186390  32.8409500  26.9892060  49.7580830  32.1915020
  20.5970590  45.8528470  31.0477740  21.0345460  46.3958140  31.7035320
  21.0818320  45.0275420  31.0574080  17.8116390  48.6417500  38.4998000
  18.1419400  47.7738560  38.2676640  18.2407390  48.8476020  39.3302960
  22.4078310  46.9726510  36.1599970  22.1073850  46.8491480  37.0603880
  22.3015800  46.1135100  35.7515700  18.3006600  49.5088090  41.2379630
  17.8637590  49.6888890  42.0703780  18.8684280  50.2662710  41.0961350
  35.1770230  46.7522910  30.8626650  34.3463190  46.8199560  31.3333880
  35.3542060  47.6427030  30.5593510  18.1331030  42.0208320  37.5968510
  17.4779870  41.7519960  36.9528210  18.9708980  41.9112800  37.1470490
  34.6845860  43.7904760  30.5233370  34.9594700  44.6983640  30.3952590
  34.4956600  43.7267290  31.4595360  19.1706960  42.4060890  42.1371850
  19.5380000  42.3188290  43.0167870  18.6017780  41.6427440  42.0378710
  18.7222960  39.3169980  46.0430270  17.8279010  39.2836740  46.3823980
  19.2620510  39.5156770  46.8081520  17.3469110  39.2307250  33.5393840
  16.4433190  39.4937450  33.3645500  17.8309730  39.5018420  32.7593800
  19.8896320  38.2872790  31.4488220  20.5988020  37.8656010  30.9635500
  19.1736260  38.3548020  30.8171570  19.5370480  34.3412120  30.4890870
  20.2598610  34.8821060  30.8072090  19.8095000  34.0675540  29.6132410
  20.5859040  46.9193580  47.2992000  20.5428670  46.5486490  48.1806460
  20.7170050  47.8571150  47.4393820  24.2865070  48.4753170  42.9001720
  24.0456430  48.7427730  42.0132240  25.2267710  48.6458900  42.9552580
  35.5469230  50.4947550  43.7012360  35.0527510  50.8916420  42.9839490
  34.9382520  49.8696760  44.0949640  20.4247070  49.8655830  44.4189780
  19.8307390  49.7340530  45.1579820  20.4170910  49.0293970  43.9531880
  33.2308680  51.1370970  40.9799100  32.7711650  51.8886780  40.6057120
  32.6021140  50.4177440  40.9213900  20.0559300  47.2314210  43.3697820
  19.3293360  46.6119500  43.3023770  20.1168450  47.6254820  42.4995900
  23.6604400  49.4459210  40.1547230  24.1769420  48.8346570  39.6295490
  24.3101780  49.9487990  40.6458240  26.3999900  50.3367700  40.9816210
  26.6877710  50.0822000  40.1049220  26.9123120  49.7845060  41.5721780
  18.3389300  50.5488600  36.5794580  18.1711340  49.9159280  37.2776470
  17.4723810  50.7548000  36.2288770  19.9452000  49.2421830  34.0244720
  19.4199620  49.6229860  33.3206680  19.8696580  49.8672600  34.7454430
  26.4672260  51.2583800  48.3484410  27.3939570  51.0228070  48.3920370
  26.4522690  52.0855800  47.8670440  22.5444970  51.1904210  32.8993970
  23.2763790  50.9063490  32.3517860  22.8038640  50.9517490  33.7893350
  21.7059760  47.3068940  32.9040300  21.0768640  47.7754040  33.4526130
  21.8207590  46.4618160  33.3386490  33.0349820  50.4853660  48.1725450
  33.8275140  49.9902890  47.9651410  33.3282970  51.1643800  48.7801060
  29.1609480  41.3574600  19.0541500  29.0803530  40.4429210  18.7833210
  28.7473900  41.8541670  18.3481210  27.2927520  43.1353620  20.9350770
  26.5169620  42.6554060  21.2249340  27.9440450  42.4559270  20.7606930
  21.3093350  43.4473430  21.8126530  20.4778230  43.1922140  22.2123040
  21.9174330  43.5184200  22.5484450  31.3134950  47.5413810  19.7149900
  30.8516480  46.7701050  20.0437070  32.1260500  47.5679880  20.2202350
  21.2894610  47.4813520  22.0084550  21.5922650  46.5911260  21.8294770
  22.0338200  48.0383740  21.7806800  19.7185300  38.4075320  15.5968920
  18.8302000  38.7491290  15.4948800  20.0026490  38.2075640  14.7049750
  17.6818310  41.0080970  21.4808620  18.2534420  40.2403170  21.4812260
  17.6819850  41.3069730  20.5715230  27.5398260  49.8271820  19.3353890
  26.9209700  50.2829320  18.7648330  28.3950040  49.9823280  18.9343590
  26.7336510  45.8110810  20.9420930  26.6644790  44.8700750  20.7810060
  27.4956370  45.9012220  21.5143500  18.9243180  36.4165330  23.2677550
  18.7446020  35.5191080  23.5480310  18.5223260  36.9637200  23.9424500
  21.8946690  36.9906820  16.6307300  22.0013440  37.8910550  16.9376060
  20.9839050  36.9424790  16.3401950  19.5429850  38.9125830  21.8759890
  20.2239960  39.1764200  22.4947290  19.2277900  38.0726700  22.2097900
  23.7354420  39.9593190  20.9632480  24.2432640  40.4574160  21.6037500
  24.2667660  39.1828390  20.7871840  28.4061610  44.7111060  16.7285800
  27.7878880  45.1760510  16.1648520  28.9184860  45.4038540  17.1455310
  23.2693370  44.2386930  23.4069400  22.9362750  44.8655850  24.0490470
  23.4460050  44.7648810  22.6271070  21.7005850  36.3101710  23.2366350
  22.0422660  37.1543760  22.9420220  20.7621660  36.4585450  23.3531690
  22.4812470  46.2067730  25.2218580  23.0986470  46.8818810  24.9403030
  21.6205590  46.6155710  25.1306080  17.7744810  45.3967590  14.1025430
  17.3972790  45.8854690  13.3710330  18.0317880  46.0692870  14.7331960
  33.3990060  47.6707140  23.1373220  32.7153580  48.3406250  23.1289890
  33.9384350  47.8687790  22.3718080  25.3833740  33.7983980  19.5610940
  25.6908720  33.2430870  18.8446440  24.4534440  33.9328440  19.3783930
  30.9348800  49.5151270  21.8518400  30.9475960  49.1113560  20.9840660
  30.3824020  50.2898560  21.7479830  32.2294220  46.2367490  16.9408570
  32.1190550  45.2941820  17.0657990  32.2262470  46.5983130  17.8271330
  30.3334240  44.4181110  23.1801010  30.7503030  44.2041220  22.3454470
  31.0574060  44.6753900  23.7509630  27.7714500  41.8632810  16.2971060
  26.8443780  41.7970190  16.5259530  27.9239320  42.8012940  16.1826300
  27.7583580  38.1349810  13.2938220  26.8187250  38.2963770  13.3790680
  28.0766840  38.8535490  12.7474210  34.2796340  42.8168330  23.2717250
  33.4514970  42.8861420  22.7967380  34.8746820  43.4022640  22.8033080
  31.8011790  43.4253110  16.8006310  31.1824210  43.0872660  16.1532610
  31.7836240  42.7812870  17.5085500  23.3771140  42.3897550  19.0790790
  22.9728140  41.6774800  18.5836690  23.4634260  42.0450790  19.9678830
  23.8452840  46.0765110  21.2430000  23.5481130  45.4710580  20.5637780
  24.7952660  46.1142420  21.1319360  22.0899760  39.1640760  22.8589830
  22.6414350  39.2736100  22.0843080  22.6043270  39.5378360  23.5745060
  31.9338450  49.6496980  24.9053100  31.4569010  50.4569170  24.7125710
  31.2500240  48.9975310  25.0579310  22.9371270  45.8146800  27.8937800
  22.0399800  46.0386770  28.1411200  22.9624140  45.9381740  26.9449200
  29.9776490  42.6639920  13.8079060  30.4169770  41.8262350  13.6616880
  30.6904910  43.2969320  13.8943200  21.7642490  42.6860120  26.4695170
  21.6250260  43.5582920  26.8382570  20.8823850  42.3432930  26.3243110
  28.0871870  47.6035990  17.7760300  28.5267780  48.3460320  17.3615690
  28.0258760  47.8462560  18.6999260  23.5622840  48.6281820  28.6780320
  23.5338270  49.0324770  27.8108750  23.3987810  47.6992180  28.5151920
  33.5593630  33.9182730  12.1220100  33.2466290  34.0109560  13.0219170
  34.3206100  34.4963760  12.0717530  20.0775770  41.2842530  16.5797440
  19.9573370  42.0104620  15.9678710  19.7676660  40.5145440  16.1025350
  35.5137660  49.4108920  29.9744490  35.9897380  49.8891810  30.6533570
  36.1344820  49.3426410  29.2489990  17.7161140  44.4557670  22.3866080
  17.7941560  44.5906440  21.4421800  18.3302820  43.7473560  22.5794200
  18.9608770  46.1557860  18.7972260  18.5536850  46.2972450  17.9425860
  19.8521780  45.8718020  18.5943470  34.9170910  46.6021770  27.1344500
  35.0433970  46.3633650  26.2161680  34.9592290  45.7706310  27.6066580
  28.7787650  50.3049770  25.7039310  29.2932320  50.2157780  26.5061740
  27.9356730  50.6509470  25.9967220  30.7542050  50.5905110  15.1323310
  30.5943190  50.3008050  16.0305140  30.5888760  49.8145240  14.5968540
  23.2330430  50.3703640  16.9094930  23.0572910  49.4539180  16.6962730
  22.3786170  50.7290930  17.1492730  30.4568180  48.0992670  13.6921310
  29.7633340  48.0969960  13.0323590  31.1991040  47.6751990  13.2615480
  30.0218110  49.7255380  17.7669800  30.4775060  48.9444760  18.0808420
  30.3610630  50.4362200  18.3110980  17.7720660  45.4971840  24.9260540
  17.9351700  45.0277200  24.1079910  18.2373110  44.9895400  25.5909380
  22.5439430  34.6277600  19.9621110  22.1007580  35.4087140  19.6305630
  23.1024420  34.9507490  20.6692050  25.6598250  34.2488300  14.8426940
  25.0352430  34.2448170  15.5680250  25.5728370  33.3819260  14.4462910
  24.5815330  35.1724930  21.8210710  24.8787660  36.0787760  21.7402730
  25.1300890  34.6843710  21.2070280  22.3353650  39.7511170  17.6902360
  22.1094570  39.5348340  18.5948980  21.5546180  40.1839630  17.3448330
  29.5651410  39.7574540  16.2893010  28.9660300  40.4810340  16.1056630
  30.1131020  39.6951320  15.5069460  24.7752860  40.6496750  28.3562630
  24.6796460  39.7091480  28.2063030  25.6184840  40.8711820  27.9610700
  28.1716280  38.3938080  18.3196290  28.5645850  38.7110280  17.5064980
  28.5333130  37.5149960  18.4340810  19.9063400  37.0610420  26.5096410
  19.5126790  37.9085630  26.7169190  19.2181800  36.4236790  26.7005050
  17.2080450  34.9838880  20.5426490  16.9193500  35.5541740  21.2551470
  17.9526210  34.5043330  20.9057720  17.3950680  38.9259000  11.7529210
  17.3125350  39.8689760  11.8944200  17.0433740  38.7833910  10.8741560
  25.1948810  37.6598030  20.8199560  25.1984870  37.2187980  19.9704100
  26.0899930  37.9815360  20.9271380  21.0451190  37.5424520  19.7793770
  20.7051240  38.0199750  20.5360820  20.2828510  37.0889640  19.4194870
  25.2568960  38.6610110  13.8106320  25.3781780  38.6196590  14.7592140
  24.8717470  39.5234260  13.6553050  24.2690460  40.9711250  13.2089620
  23.7007360  40.5229500  12.5825530  24.9779460  41.3304030  12.6754770
  19.3459640  44.8723270  27.0856350  18.9614430  44.2316940  27.6839310
  19.6571830  45.5759390  27.6551080  25.4956780  41.7199810  22.5664970
  25.8626910  41.2458380  23.3126310  25.3061840  42.5941380  22.9073310
  18.3597270  36.4643500  18.6958440  18.0744190  36.0999170  19.5337060
  18.2976130  35.7323960  18.0821580  23.2856150  40.7608450  24.8849180
  22.9813220  41.6400430  25.1099540  24.2402610  40.8208240  24.9206620
  21.8137940  44.9669440  15.4816030  21.0400200  44.4267060  15.3214750
  22.5432570  44.4476050  15.1433790  32.5725920  43.9634800  21.2742420
  33.2925040  44.4590090  20.8838530  32.3707740  43.2852690  20.6296290
  28.0335860  35.3572760  15.4171810  27.2200470  34.8585930  15.3417120
  27.8397810  36.1971010  15.0008160  27.9544720  44.0343860  27.1611420
  27.8882030  43.1139530  26.9069010  27.3249860  44.1319300  27.8756060
  30.7484250  39.7292410  13.7133970  31.6363870  40.0409640  13.5385310
  30.7189340  38.8564660  13.3214550  21.8575340  44.6349820  19.1194840
  22.3754010  43.8318080  19.0651730  21.4059360  44.5728960  19.9611670
  26.7444840  45.9016100  14.3922140  27.0860540  46.6458330  13.8965460
  25.9157550  46.2147220  14.7546970  19.3419880  41.6011190  26.0320540
  18.9834820  42.2665040  26.6193880  19.0474440  40.7694740  26.4033160
  22.5433000  42.0595430  28.9160090  22.2433140  42.2052610  28.0187910
  23.3144240  41.5000720  28.8233480  27.8861450  46.8564430  26.9115220
  27.9005990  45.9245390  26.6934130  27.1786550  46.9424190  27.5504990
  33.0198520  41.0404250  13.1813830  32.9362240  41.4718470  12.3310270
  33.7392710  41.5002600  13.6140650  34.0485770  47.8946510  15.9095960
  33.4061930  47.2402130  16.1839680  33.6616430  48.3001600  15.1336630
  29.6272250  45.2231940  19.7567650  29.9796070  44.6260070  19.0969020
  28.7434580  44.8976170  19.9275900  25.7135530  45.9829630  17.1638060
  26.4006660  46.5298840  17.5445650  24.9267950  46.5270360  17.1987670
  17.8527930  41.6002450  12.6555140  18.7222780  41.8827250  12.9391060
  17.3618250  42.4138320  12.5403950  25.0162740  42.9875660  16.7763420
  25.4725520  43.7980910  17.0023610  24.6650950  42.6698800  17.6081910
  27.3195350  48.4982000  24.0055720  27.9637570  48.7041380  24.6829140
  27.6824790  47.7370400  23.5526570  20.9174520  33.3313310  17.2485940
  20.7889150  33.3231210  18.1970860  20.0936540  33.6696400  16.8976950
  28.5927430  46.5014350  22.7233170  29.2349660  45.8007510  22.8365340
  29.1176780  47.2812790  22.5430060  32.4383150  46.7862970  12.4472310
  32.2120730  46.0693410  13.0396950  32.0479350  46.5375410  11.6094060
  30.3665050  47.3009250  25.9269230  30.7021290  47.8875940  26.6047150
  29.4465390  47.1701960  26.1567020  18.2199180  50.8129830  13.2216770
  18.5796820  51.4119170  12.5674040  18.0791520  51.3589720  13.9951800
  17.9168450  35.0904430  26.7092640  17.2026970  35.2901350  27.3145250
  18.3363490  34.3144000  27.0807440  32.0199400  44.7034910  14.1086470
  31.7321100  45.1647600  14.8964350  32.8151570  44.2432680  14.3770690
  18.2041040  49.0784690  27.6959170  18.3132160  48.1379430  27.5554560
  17.5521600  49.3439440  27.0472900  26.1953630  47.3500580  29.0957290
  25.8750500  46.6309820  29.6402980  25.5211990  48.0255650  29.1693350
  24.2367800  48.1961030  14.0390440  24.2277900  48.9290720  13.4234950
  23.3166160  47.9492610  14.1317400  19.8374440  43.4175920  14.7837200
  19.2302390  44.1574820  14.7932500  20.3123790  43.5075280  13.9575400
  32.7769260  36.5383680  15.2681650  32.1482420  36.6429350  14.5539880
  32.2821180  36.7580460  16.0575530  27.2227400  48.2589270  12.7015630
  27.3239380  48.0553260  11.7717610  26.3229140  48.0047550  12.9063410
  24.7453290  38.8169630  16.6839530  24.0369440  39.2855970  17.1253140
  25.0297770  38.1591640  17.3184720  28.7768720  35.5420290  18.1235320
  28.6536500  35.5606420  17.1744830  29.7253280  35.5899230  18.2433720
  25.8645510  50.7775590  17.3963300  26.1187010  50.7396980  16.4742670
  24.9157990  50.6508920  17.3891550  22.9488310  37.1254710  14.0590240
  23.7978840  37.5624860  13.9930430  22.5819580  37.4374970  14.8862300
  31.8698090  41.6967470  18.9721810  30.9288230  41.7117700  19.1469500
  32.1842160  40.9103430  19.4182110  21.8479730  43.3787070  12.5325770
  22.6143000  43.2668430  13.0951200  21.9254420  42.6825040  11.8802540
  20.5426490  40.8112140  13.2158660  20.6230080  39.8639650  13.3276060
  21.4346240  41.1419020  13.3219320  33.8723670  48.8676320  20.6476070
  33.9971090  49.6907490  21.1199880  34.7389230  48.6567050  20.3000220
  21.3441200  50.9607530  20.3193200  22.0803680  50.4122990  20.5901770
  21.7282120  51.8263540  20.1799190  18.2286680  47.0281100  16.1934710
  17.3026460  47.2702240  16.1840120  18.6943110  47.8555360  16.0719460
  20.3499480  50.1453600  29.5078780  21.1512210  50.4665650  29.9214180
  19.8351300  49.7849180  30.2298690  24.4543510  50.1337840  12.1418770
  25.2472120  50.4226670  11.6900560  23.9347860  49.7030010  11.4631250
  29.1864110  46.2533470  29.4554190  28.5802270  46.2765070  28.7149940
  28.8818220  45.5216510  29.9921440  30.6164480  49.9813760  28.0663600
  31.5686230  49.8971780  28.0163840  30.4692700  50.6455470  28.7397390
  33.5073680  49.3607970  13.5655510  33.2215190  48.9473110  12.7509690
  33.3093230  50.2895680  13.4456030  18.0697290  42.6327060  28.4514830
  18.5736310  42.0534340  29.0231060  17.3304710  42.9167290  28.9891200
  24.9720910  45.3541250  12.0061120  24.8671550  44.7393600  12.7322500
  24.8045130  44.8307140  11.2224130  25.1235230  44.0398050  27.9850350
  24.3580900  44.6083050  27.9005020  25.3051190  43.7474260  27.0918580
  28.2123640  44.4161280  12.6103110  27.6633740  44.8630580  13.2545850
  28.8342900  43.9110530  13.1340780  32.2658580  45.7703380  28.5425370
  33.0068050  46.1079140  28.0392830  31.5031260  45.9395440  27.9895140
  20.1020370  40.7756650  29.3464900  20.1425710  40.4770520  30.2550130
  20.9565870  41.1764260  29.1872420  23.8798760  43.3752200  14.5068410
  24.3015180  43.2092070  15.3499800  24.0049600  42.5652430  14.0123550
  22.0426180  39.3548750  27.3139390  21.5122640  38.8639700  26.6862730
  22.7114250  39.7832950  26.7797320  26.3926400  42.3989810  11.7545510
  26.9132060  41.6838830  11.3886660  27.0394800  43.0375680  12.0546020
  30.9404240  43.8218210  27.0780580  31.3545260  43.9763290  27.9271000
  30.0055240  43.9473430  27.2406360  22.5298480  36.3211120  27.3936680
  22.4355350  35.7031870  26.6687550  21.9495870  37.0477410  27.1666590
  25.7019470  43.7738690  25.0476510  26.1207580  44.6171420  24.8752750
  24.7828100  43.9110730  24.8183290  22.7757660  39.4485430  11.4526570
  22.5746720  38.5852790  11.8139910  22.6049710  39.3618790  10.5148170
  23.5526890  50.0791700  26.1634240  23.0147980  50.8037760  25.8442940
  23.8060850  49.6022040  25.3731580  30.2545970  34.2593660  13.9813450
  30.5348260  33.4161560  14.3372870  29.4811700  34.4916770  14.4952200
  21.5740460  36.5486050  11.4404450  21.8766360  36.5553480  10.5323600
  22.3135050  36.1983910  11.9372110  26.4089100  51.3142910  26.4220890
  26.3347800  52.2178050  26.7293260  25.5067940  50.9954810  26.3942960
  24.7925390  35.4920670  12.4260650  24.4447390  34.8144660  11.8463100
  24.9938160  35.0310180  13.2404040  26.9574430  50.4801420  14.0447250
  27.8525220  50.8186390  14.0666010  26.9892060  49.7580830  13.4171530
  20.5970590  45.8528470  12.2734250  21.0345460  46.3958140  12.9291830
  21.0818320  45.0275420  12.2830590  17.8116390  48.6417500  19.7254510
  18.1419400  47.7738560  19.4933150  18.2407390  48.8476020  20.5559470
  22.4078310  46.9726510  17.3856480  22.1073850  46.8491480  18.2860390
  22.3015800  46.1135100  16.9772210  18.3006600  49.5088090  22.4636140
  17.8637590  49.6888890  23.2960290  18.8684280  50.2662710  22.3217860
  33.9368780  49.0105090  26.7513450  33.3370770  49.0697650  26.0077370
  34.0662680  48.0710070  26.8810300  35.1770230  46.7522910  12.0883160
  34.3463190  46.8199560  12.5590390  35.3542060  47.6427030  11.7850020
  34.6326690  43.4970390  14.5917360  35.3945600  44.0667040  14.6977050
  34.6481060  42.9297590  15.3625670  18.1331030  42.0208320  18.8225020
  17.4779870  41.7519960  18.1784720  18.9708980  41.9112800  18.3727000
  35.6386660  44.3520490  19.4359290  36.0095490  43.5687810  19.0295260
  36.2788590  45.0409590  19.2576590  32.6220420  45.7357070  24.8489610
  31.8080260  46.1654230  25.1115400  33.0294620  46.3475480  24.2358660
  34.6845860  43.7904760  11.7489880  34.9594700  44.6983640  11.6209100
  34.4956600  43.7267290  12.6851870  31.0821470  36.8149610  13.0443510
  31.5006350  36.6280590  12.2040170  30.7757530  35.9628660  13.3546440
  34.5811200  41.7273750  16.7419310  34.2054800  40.9601680  16.3100600
  33.8514320  42.1096450  17.2294240  19.1706960  42.4060890  23.3628360
  19.5380000  42.3188290  24.2424380  18.6017780  41.6427440  23.2635220
  18.7222960  39.3169980  27.2686780  17.8279010  39.2836740  27.6080490
  19.2620510  39.5156770  28.0338030  17.3469110  39.2307250  14.7650350
  16.4433190  39.4937450  14.5902010  17.8309730  39.5018420  13.9850310
  19.8896320  38.2872790  12.6744730  20.5988020  37.8656010  12.1892010
  19.1736260  38.3548020  12.0428080  19.5370480  34.3412120  11.7147380
  20.2598610  34.8821060  12.0328600  19.8095000  34.0675540  10.8388920
  33.3462130  39.2104590  15.9818960  33.8421250  38.9775460  16.7667840
  33.1478200  38.3716430  15.5656600  19.2262670  33.5918310  21.6170000
  19.8738860  33.0415690  21.1765160  19.6464510  33.8461460  22.4385810
  35.6639560  35.6773460  11.7562780  36.5888870  35.5454640  11.5481070
  35.6415350  35.7566280  12.7099230  35.7378050  36.4484120  14.3819490
  34.9429550  36.3829240  14.9112400  35.9421330  37.3834760  14.3704840
  32.6796470  50.4875670  18.3757880  33.2755540  50.1660240  17.6992300
  32.9374620  50.0147490  19.1671150  20.5859040  46.9193580  28.5248510
  20.5428670  46.5486490  29.4062970  20.7170050  47.8571150  28.6650330
  24.2865070  48.4753170  24.1258230  24.0456430  48.7427730  23.2388750
  25.2267710  48.6458900  24.1809090  35.5469230  50.4947550  24.9268870
  35.0527510  50.8916420  24.2096000  34.9382520  49.8696760  25.3206150
  20.4247070  49.8655830  25.6446290  19.8307390  49.7340530  26.3836330
  20.4170910  49.0293970  25.1788390  33.2308680  51.1370970  22.2055610
  32.7711650  51.8886780  21.8313630  32.6021140  50.4177440  22.1470410
  20.0559300  47.2314210  24.5954330  19.3293360  46.6119500  24.5280280
  20.1168450  47.6254820  23.7252410  23.6604400  49.4459210  21.3803740
  24.1769420  48.8346570  20.8552000  24.3101780  49.9487990  21.8714750
  26.3999900  50.3367700  22.2072720  26.6877710  50.0822000  21.3305730
  26.9123120  49.7845060  22.7978290  27.6176910  34.0757900  22.7869230
  26.8348700  34.5503400  23.0665990  27.3239840  33.1712730  22.6782410
  18.3389300  50.5488600  17.8051090  18.1711340  49.9159280  18.5032980
  17.4723810  50.7548000  17.4545280  18.9617320  34.3805380  15.3082950
  19.7196680  34.4934260  14.7346980  18.4994490  35.2174580  15.2626380
  25.5031130  36.4944650  18.2985260  24.6905640  36.1201540  17.9581140
  26.0072770  35.7389730  18.6006450  33.1490710  33.5608660  14.8108610
  33.3441340  34.4592110  15.0776040  32.3620580  33.3295740  15.3041560
  19.9452000  49.2421830  15.2501230  19.4199620  49.6229860  14.5463190
  19.8696580  49.8672600  15.9710940  21.3342470  34.9069430  13.8484920
  21.8635230  34.1199230  13.7192870  21.9670790  35.5860620  14.0820450
  23.5280310  34.6444570  16.9030310  22.8983050  33.9431880  17.0700440
  22.9885450  35.4048700  16.6863470  26.4672260  51.2583800  29.5740920
  27.3939570  51.0228070  29.6176880  26.4522690  52.0855800  29.0926950
  34.7017320  50.8009370  16.5715170  34.8769510  50.1147110  15.9276090
  34.0038890  51.3256420  16.1791840  22.5444970  51.1904210  14.1250480
  23.2763790  50.9063490  13.5774370  22.8038640  50.9517490  15.0149860
  21.7059760  47.3068940  14.1296810  21.0768640  47.7754040  14.6782640
  21.8207590  46.4618160  14.5643000  33.0349820  50.4853660  29.3981960
  33.8275140  49.9902890  29.1907920  33.3282970  51.1643800  30.0057570
  27.2927520  43.1353620   2.1607280  26.5169620  42.6554060   2.4505850
  27.9440450  42.4559270   1.9863440  21.3093350  43.4473430   3.0383040
  20.4778230  43.1922140   3.4379550  21.9174330  43.5184200   3.7740960
  21.2894610  47.4813520   3.2341060  21.5922650  46.5911260   3.0551280
  22.0338200  48.0383740   3.0063310  17.6818310  41.0080970   2.7065130
  18.2534420  40.2403170   2.7068770  17.6819850  41.3069730   1.7971740
  26.7336510  45.8110810   2.1677440  26.6644790  44.8700750   2.0066570
  27.4956370  45.9012220   2.7400010  18.9243180  36.4165330   4.4934060
  18.7446020  35.5191080   4.7736820  18.5223260  36.9637200   5.1681010
  19.5429850  38.9125830   3.1016400  20.2239960  39.1764200   3.7203800
  19.2277900  38.0726700   3.4354410  23.7354420  39.9593190   2.1888990
  24.2432640  40.4574160   2.8294010  24.2667660  39.1828390   2.0128350
  35.8365350  38.1298380   5.8918340  35.1317520  38.5180090   5.3733450
  36.1023270  38.8248670   6.4939270  22.0190520  34.5991750   6.4552410
  22.0208960  35.1164140   5.6498310  21.1894830  34.1221930   6.4322340
  23.2693370  44.2386930   4.6325910  22.9362750  44.8655850   5.2746980
  23.4460050  44.7648810   3.8527580  31.7827280  38.0532010   2.1002250
  31.0782850  38.3416900   2.6805360  32.1439440  38.8632120   1.7401810
  21.7005850  36.3101710   4.4622860  22.0422660  37.1543760   4.1676730
  20.7621660  36.4585450   4.5788200  22.4812470  46.2067730   6.4475090
  23.0986470  46.8818810   6.1659540  21.6205590  46.6155710   6.3562590
  33.3990060  47.6707140   4.3629730  32.7153580  48.3406250   4.3546400
  33.9384350  47.8687790   3.5974590  34.8514200  37.4986800   2.4911460
  33.9039110  37.5325780   2.6226890  35.1764190  38.3125750   2.8760820
  30.9348800  49.5151270   3.0774910  30.9475960  49.1113560   2.2097170
  30.3824020  50.2898560   2.9736340  30.3334240  44.4181110   4.4057520
  30.7503030  44.2041220   3.5710980  31.0574060  44.6753900   4.9766140
  34.2796340  42.8168330   4.4973760  33.4514970  42.8861420   4.0223890
  34.8746820  43.4022640   4.0289590  31.2438350  39.6037650   5.4428630
  30.8309530  40.4291360   5.6968620  30.5114300  39.0182690   5.2504990
  23.8452840  46.0765110   2.4686510  23.5481130  45.4710580   1.7894290
  24.7952660  46.1142420   2.3575870  22.0899760  39.1640760   4.0846340
  22.6414350  39.2736100   3.3099590  22.6043270  39.5378360   4.8001570
  31.9338450  49.6496980   6.1309610  31.4569010  50.4569170   5.9382220
  31.2500240  48.9975310   6.2835820  22.9371270  45.8146800   9.1194310
  22.0399800  46.0386770   9.3667710  22.9624140  45.9381740   8.1705710
  21.7642490  42.6860120   7.6951680  21.6250260  43.5582920   8.0639080
  20.8823850  42.3432930   7.5499620  23.5622840  48.6281820   9.9036830
  23.5338270  49.0324770   9.0365260  23.3987810  47.6992180   9.7408430
  35.5137660  49.4108920  11.2001000  35.9897380  49.8891810  11.8790080
  36.1344820  49.3426410  10.4746500  17.7161140  44.4557670   3.6122590
  17.7941560  44.5906440   2.6678310  18.3302820  43.7473560   3.8050710
  34.9170910  46.6021770   8.3601010  35.0433970  46.3633650   7.4418190
  34.9592290  45.7706310   8.8323090  28.7787650  50.3049770   6.9295820
  29.2932320  50.2157780   7.7318250  27.9356730  50.6509470   7.2223730
  34.7694920  38.6554230   9.3250750  34.1539190  39.1633900   8.7966210
  34.4491340  37.7552560   9.2676690  17.7720660  45.4971840   6.1517050
  17.9351700  45.0277200   5.3336420  18.2373110  44.9895400   6.8165890
  26.8309240  37.4946120   6.7912940  26.3688610  37.7029140   7.6032880
  26.4287350  36.6805470   6.4883610  31.8313750  38.7155070   7.9209600
  30.9807340  38.4160820   8.2418670  31.6715540  38.9597080   7.0093420
  28.9263460  40.2156820  10.0208390  29.2516870  39.3820570   9.6810620
  29.7143790  40.7385340  10.1686720  24.5815330  35.1724930   3.0467220
  24.8787660  36.0787760   2.9659240  25.1300890  34.6843710   2.4326790
  24.7752860  40.6496750   9.5819140  24.6796460  39.7091480   9.4319540
  25.6184840  40.8711820   9.1867210  19.9063400  37.0610420   7.7352920
  19.5126790  37.9085630   7.9425700  19.2181800  36.4236790   7.9261560
  26.4808450  37.1445390  10.8049660  25.7906770  36.9517590  11.4395750
  27.2240750  37.4280030  11.3373960  17.2080450  34.9838880   1.7683000
  16.9193500  35.5541740   2.4807980  17.9526210  34.5043330   2.1314230
  28.7571420  40.9843830   3.6403580  28.0252540  41.4930640   3.9893680
  28.3595760  40.1673810   3.3392360  29.2197330  36.4377510   3.0526520
  29.2370070  36.8886160   3.8968370  28.9712910  35.5383150   3.2659960
  32.6468080  33.8509690   8.8912900  32.9713850  33.1199350   9.4170880
  32.6824590  33.5323330   7.9893890  19.3459640  44.8723270   8.3112860
  18.9614430  44.2316940   8.9095820  19.6571830  45.5759390   8.8807590
  25.4956780  41.7199810   3.7921480  25.8626910  41.2458380   4.5382820
  25.3061840  42.5941380   4.1329820  23.2856150  40.7608450   6.1105690
  22.9813220  41.6400430   6.3356050  24.2402610  40.8208240   6.1463130
  32.5725920  43.9634800   2.4998930  33.2925040  44.4590090   2.1095040
  32.3707740  43.2852690   1.8552800  27.9544720  44.0343860   8.3867930
  27.8882030  43.1139530   8.1325520  27.3249860  44.1319300   9.1012570
  19.3419880  41.6011190   7.2577050  18.9834820  42.2665040   7.8450390
  19.0474440  40.7694740   7.6289670  22.5433000  42.0595430  10.1416600
  22.2433140  42.2052610   9.2444420  23.3144240  41.5000720  10.0489990
  27.8861450  46.8564430   8.1371730  27.9005990  45.9245390   7.9190640
  27.1786550  46.9424190   8.7761500  34.0972660  43.4971770   7.4840310
  33.3720850  44.0900550   7.2869700  34.6248120  43.4895310   6.6853680
  27.3195350  48.4982000   5.2312230  27.9637570  48.7041380   5.9085650
  27.6824790  47.7370400   4.7783080  28.5927430  46.5014350   3.9489680
  29.2349660  45.8007510   4.0621850  29.1176780  47.2812790   3.7686570
  30.3665050  47.3009250   7.1525740  30.7021290  47.8875940   7.8303660
  29.4465390  47.1701960   7.3823530  17.9168450  35.0904430   7.9349150
  17.2026970  35.2901350   8.5401760  18.3363490  34.3144000   8.3063950
  18.2041040  49.0784690   8.9215680  18.3132160  48.1379430   8.7811070
  17.5521600  49.3439440   8.2729410  26.1953630  47.3500580  10.3213800
  25.8750500  46.6309820  10.8659490  25.5211990  48.0255650  10.3949860
  29.4107230  37.5826740   5.6850600  29.7788050  36.7621950   6.0130170
  28.5505430  37.6428630   6.1006250  26.3709220  40.2366330   5.9088570
  26.8694470  40.7112150   6.5740420  26.5132170  39.3129850   6.1158600
  33.5776080  36.4534290   6.7516960  33.0749680  37.1939690   7.0910770
  34.3932740  36.8418290   6.4353750  20.3499480  50.1453600  10.7335290
  21.1512210  50.4665650  11.1470690  19.8351300  49.7849180  11.4555200
  29.1864110  46.2533470  10.6810700  28.5802270  46.2765070   9.9406450
  28.8818220  45.5216510  11.2177950  30.6164480  49.9813760   9.2920110
  31.5686230  49.8971780   9.2420350  30.4692700  50.6455470   9.9653900
  18.0697290  42.6327060   9.6771340  18.5736310  42.0534340  10.2487570
  17.3304710  42.9167290  10.2147710  25.1235230  44.0398050   9.2106860
  24.3580900  44.6083050   9.1261530  25.3051190  43.7474260   8.3175090
  32.2658580  45.7703380   9.7681880  33.0068050  46.1079140   9.2649340
  31.5031260  45.9395440   9.2151650  20.1020370  40.7756650  10.5721410
  20.1425710  40.4770520  11.4806640  20.9565870  41.1764260  10.4128930
  22.0426180  39.3548750   8.5395900  21.5122640  38.8639700   7.9119240
  22.7114250  39.7832950   8.0053830  30.9404240  43.8218210   8.3037090
  31.3545260  43.9763290   9.1527510  30.0055240  43.9473430   8.4662870
  31.4126410  41.1614370  10.3076240  31.9947180  40.4066690  10.2196720
  31.5888180  41.6921810   9.5307720  22.5298480  36.3211120   8.6193190
  22.4355350  35.7031870   7.8944060  21.9495870  37.0477410   8.3923100
  25.2959920  34.8784360   5.6520580  24.8477220  34.9008620   4.8066130
  24.6625120  34.4803380   6.2490880  25.7019470  43.7738690   6.2733020
  26.1207580  44.6171420   6.1009260  24.7828100  43.9110730   6.0439800
  28.0383370  41.5054870   7.6570860  28.1579580  40.9096010   8.3965700
  28.8977370  41.5424560   7.2372160  30.3771270  42.0592060   6.2333370
  29.8506490  42.5834680   5.6298510  30.7202610  42.6919450   6.8643100
  23.5526890  50.0791700   7.3890750  23.0147980  50.8037760   7.0699450
  23.8060850  49.6022040   6.5988090  24.8052140  38.0476220   8.9146680
  25.3951830  37.7392070   9.6024500  23.9872380  37.5755970   9.0706580
  29.6245570  37.6642030   9.1479700  28.9361090  37.0023570   9.0829690
  30.3451590  37.2180300   9.5928160  26.4089100  51.3142910   7.6477400
  26.3347800  52.2178050   7.9549770  25.5067940  50.9954810   7.6199470
  18.3006600  49.5088090   3.6892650  17.8637590  49.6888890   4.5216800
  18.8684280  50.2662710   3.5474370  33.9368780  49.0105090   7.9769960
  33.3370770  49.0697650   7.2333880  34.0662680  48.0710070   8.1066810
  32.6220420  45.7357070   6.0746120  31.8080260  46.1654230   6.3371910
  33.0294620  46.3475480   5.4615170  19.1706960  42.4060890   4.5884870
  19.5380000  42.3188290   5.4680890  18.6017780  41.6427440   4.4891730
  33.9710820  40.8745270   7.6015340  33.7396910  40.6458020   6.7013290
  34.2315370  41.7944820   7.5560230  18.7222960  39.3169980   8.4943290
  17.8279010  39.2836740   8.8337000  19.2620510  39.5156770   9.2594540
  32.4098890  36.1001700  10.3795040  33.2869070  36.1085100  10.7629040
  32.4219730  35.3632540   9.7687390  34.0351880  40.0371110   4.7902610
  33.0854590  40.0034650   4.9047600  34.2164890  40.9471220   4.5552380
  19.2262670  33.5918310   2.8426510  19.8738860  33.0415690   2.4021670
  19.6464510  33.8461460   3.6642320  33.1215010  33.7859670   6.1996150
  33.7587230  34.3993810   6.5655340  33.2689900  33.8220330   5.2545380
  18.9794670  33.7473980   5.5851830  18.6309490  34.2037800   6.3510010
  18.6482370  32.8531110   5.6674260  20.5859040  46.9193580   9.7505020
  20.5428670  46.5486490  10.6319480  20.7170050  47.8571150   9.8906840
  24.2865070  48.4753170   5.3514740  24.0456430  48.7427730   4.4645260
  25.2267710  48.6458900   5.4065600  26.4919490  34.9385860   9.1071250
  26.4308380  35.5307690   9.8566660  27.4319870  34.8311820   8.9621510
  29.1294050  34.5955920   8.7463540  29.7434460  34.9135210   8.0844620
  29.6743610  34.1104510   9.3659400  35.5469230  50.4947550   6.1525380
  35.0527510  50.8916420   5.4352510  34.9382520  49.8696760   6.5462660
  19.6515310  33.2750180   8.8602600  20.1998300  33.0938230   8.0968710
  19.7170620  32.4844290   9.3958910  20.4247070  49.8655830   6.8702800
  19.8307390  49.7340530   7.6092840  20.4170910  49.0293970   6.4044900
  29.8702090  33.1588060   5.0732830  28.9961930  33.4923170   4.8705760
  29.7612840  32.6861240   5.8984700  30.7774070  35.3658930   6.4574550
  30.4487430  34.5510690   6.0776280  31.7256370  35.3228740   6.3340240
  33.2308680  51.1370970   3.4312120  32.7711650  51.8886780   3.0570140
  32.6021140  50.4177440   3.3726920  20.0559300  47.2314210   5.8210840
  19.3293360  46.6119500   5.7536790  20.1168450  47.6254820   4.9508920
  23.6604400  49.4459210   2.6060250  24.1769420  48.8346570   2.0808510
  24.3101780  49.9487990   3.0971260  26.3999900  50.3367700   3.4329230
  26.6877710  50.0822000   2.5562240  26.9123120  49.7845060   4.0234800
  27.6176910  34.0757900   4.0125740  26.8348700  34.5503400   4.2922500
  27.3239840  33.1712730   3.9038920  26.4672260  51.2583800  10.7997430
  27.3939570  51.0228070  10.8433390  26.4522690  52.0855800  10.3183460
  23.6535870  33.9228550  10.5639310  23.3720140  34.4262150   9.8000130
  24.0355570  33.1250300  10.1981440  30.2551330  33.3382130  11.1419780
  30.1416780  33.6576740  12.0371300  31.0721070  33.7394640  10.8457060
  33.0349820  50.4853660  10.6238470  33.8275140  49.9902890  10.4164430
  33.3282970  51.1643800  11.2314080  29.1609480  22.5831110  75.3771970
  29.0803530  21.6685720  75.1063680  28.7473900  23.0798180  74.6711680
  31.3134950  28.7670320  76.0380370  30.8516480  27.9957560  76.3667540
  32.1260500  28.7936390  76.5432820  19.7185300  19.6331830  71.9199390
  18.8302000  19.9747800  71.8179270  20.0026490  19.4332150  71.0280220
  27.5398260  31.0528330  75.6584360  26.9209700  31.5085830  75.0878800
  28.3950040  31.2079790  75.2574060  21.8946690  18.2163330  72.9537770
  22.0013440  19.1167060  73.2606530  20.9839050  18.1681300  72.6632420
  31.5465800  17.3388140  74.4248670  32.3675420  16.8484710  74.4674150
  31.5799880  17.9285800  75.1780510  28.4061610  25.9367570  73.0516270
  27.7878880  26.4017020  72.4878990  28.9184860  26.6295050  73.4685780
  17.7744810  26.6224100  70.4255900  17.3972790  27.1111200  69.6940800
  18.0317880  27.2949380  71.0562430  25.3833740  15.0240490  75.8841410
  25.6908720  14.4687380  75.1676910  24.4534440  15.1584950  75.7014400
  32.2294220  27.4624000  73.2639040  32.1190550  26.5198330  73.3888460
  32.2262470  27.8239640  74.1501800  27.7714500  23.0889320  72.6201530
  26.8443780  23.0226700  72.8490000  27.9239320  24.0269450  72.5056770
  27.7583580  19.3606320  69.6168690  26.8187250  19.5220280  69.7021150
  28.0766840  20.0792000  69.0704680  31.8011790  24.6509620  73.1236780
  31.1824210  24.3129170  72.4763080  31.7836240  24.0069380  73.8315970
  23.3771140  23.6154060  75.4021260  22.9728140  22.9031310  74.9067160
  23.4634260  23.2707300  76.2909300  29.9776490  23.8896430  70.1309530
  30.4169770  23.0518860  69.9847350  30.6904910  24.5225830  70.2173670
  28.0871870  28.8292500  74.0990770  28.5267780  29.5716830  73.6846160
  28.0258760  29.0719070  75.0229730  33.5593630  15.1439240  68.4450570
  33.2466290  15.2366070  69.3449640  34.3206100  15.7220270  68.3948000
  20.0775770  22.5099040  72.9027910  19.9573370  23.2361130  72.2909180
  19.7676660  21.7401950  72.4255820  18.9608770  27.3814370  75.1202730
  18.5536850  27.5228960  74.2656330  19.8521780  27.0974530  74.9173940
  30.7542050  31.8161620  71.4553780  30.5943190  31.5264560  72.3535610
  30.5888760  31.0401750  70.9199010  23.2330430  31.5960150  73.2325400
  23.0572910  30.6795690  73.0193200  22.3786170  31.9547440  73.4723200
  30.4568180  29.3249180  70.0151780  29.7633340  29.3226470  69.3554060
  31.1991040  28.9008500  69.5845950  30.0218110  30.9511890  74.0900270
  30.4775060  30.1701270  74.4038890  30.3610630  31.6618710  74.6341450
  22.5439430  15.8534110  76.2851580  22.1007580  16.6343650  75.9536100
  23.1024420  16.1764000  76.9922520  25.6598250  15.4744810  71.1657410
  25.0352430  15.4704680  71.8910720  25.5728370  14.6075770  70.7693380
  22.3353650  20.9767680  74.0132830  22.1094570  20.7604850  74.9179450
  21.5546180  21.4096140  73.6678800  29.5651410  20.9831050  72.6123480
  28.9660300  21.7066850  72.4287100  30.1131020  20.9207830  71.8299930
  28.1716280  19.6194590  74.6426760  28.5645850  19.9366790  73.8295450
  28.5333130  18.7406470  74.7571280  17.3950680  20.1515510  68.0759680
  17.3125350  21.0946270  68.2174670  17.0433740  20.0090420  67.1972030
  21.0451190  18.7681030  76.1024240  20.7051240  19.2456260  76.8591290
  20.2828510  18.3146150  75.7425340  25.2568960  19.8866620  70.1336790
  25.3781780  19.8453100  71.0822610  24.8717470  20.7490770  69.9783520
  24.2690460  22.1967760  69.5320090  23.7007360  21.7486010  68.9056000
  24.9779460  22.5560540  68.9985240  18.3597270  17.6900010  75.0188910
  18.0744190  17.3255680  75.8567530  18.2976130  16.9580470  74.4052050
  21.8137940  26.1925950  71.8046500  21.0400200  25.6523570  71.6445220
  22.5432570  25.6732560  71.4664260  28.0335860  16.5829270  71.7402280
  27.2200470  16.0842440  71.6647590  27.8397810  17.4227520  71.3238630
  30.7484250  20.9548920  70.0364440  31.6363870  21.2666150  69.8615780
  30.7189340  20.0821170  69.6445020  21.8575340  25.8606330  75.4425310
  22.3754010  25.0574590  75.3882200  21.4059360  25.7985470  76.2842140
  26.7444840  27.1272610  70.7152610  27.0860540  27.8714840  70.2195930
  25.9157550  27.4403730  71.0777440  33.0198520  22.2660760  69.5044300
  32.9362240  22.6974980  68.6540740  33.7392710  22.7259110  69.9371120
  34.0485770  29.1203020  72.2326430  33.4061930  28.4658640  72.5070150
  33.6616430  29.5258110  71.4567100  29.6272250  26.4488450  76.0798120
  29.9796070  25.8516580  75.4199490  28.7434580  26.1232680  76.2506370
  25.7135530  27.2086140  73.4868530  26.4006660  27.7555350  73.8676120
  24.9267950  27.7526870  73.5218140  17.8527930  22.8258960  68.9785610
  18.7222780  23.1083760  69.2621530  17.3618250  23.6394830  68.8634420
  25.0162740  24.2132170  73.0993890  25.4725520  25.0237420  73.3254080
  24.6650950  23.8955310  73.9312380  20.9174520  14.5569820  73.5716410
  20.7889150  14.5487720  74.5201330  20.0936540  14.8952910  73.2207420
  32.4383150  28.0119480  68.7702780  32.2120730  27.2949920  69.3627420
  32.0479350  27.7631920  67.9324530  18.2199180  32.0386340  69.5447240
  18.5796820  32.6375680  68.8904510  18.0791520  32.5846230  70.3182270
  32.0199400  25.9291420  70.4316940  31.7321100  26.3904110  71.2194820
  32.8151570  25.4689190  70.7001160  24.2367800  29.4217540  70.3620910
  24.2277900  30.1547230  69.7465420  23.3166160  29.1749120  70.4547870
  19.8374440  24.6432430  71.1067670  19.2302390  25.3831330  71.1162970
  20.3123790  24.7331790  70.2805870  32.7769260  17.7640190  71.5912120
  32.1482420  17.8685860  70.8770350  32.2821180  17.9836970  72.3806000
  27.2227400  29.4845780  69.0246100  27.3239380  29.2809770  68.0948080
  26.3229140  29.2304060  69.2293880  24.7453290  20.0426140  73.0070000
  24.0369440  20.5112480  73.4483610  25.0297770  19.3848150  73.6415190
  28.7768720  16.7676800  74.4465790  28.6536500  16.7862930  73.4975300
  29.7253280  16.8155740  74.5664190  25.8645510  32.0032100  73.7193770
  26.1187010  31.9653490  72.7973140  24.9157990  31.8765430  73.7122020
  22.9488310  18.3511220  70.3820710  23.7978840  18.7881370  70.3160900
  22.5819580  18.6631480  71.2092770  31.8698090  22.9223980  75.2952280
  30.9288230  22.9374210  75.4699970  32.1842160  22.1359940  75.7412580
  21.8479730  24.6043580  68.8556240  22.6143000  24.4924940  69.4181670
  21.9254420  23.9081550  68.2033010  20.5426490  22.0368650  69.5389130
  20.6230080  21.0896160  69.6506530  21.4346240  22.3675530  69.6449790
  21.3441200  32.1864040  76.6423670  22.0803680  31.6379500  76.9132240
  21.7282120  33.0520050  76.5029660  18.2286680  28.2537610  72.5165180
  17.3026460  28.4958750  72.5070590  18.6943110  29.0811870  72.3949930
  24.4543510  31.3594350  68.4649240  25.2472120  31.6483180  68.0131030
  23.9347860  30.9286520  67.7861720  33.5073680  30.5864480  69.8885980
  33.2215190  30.1729620  69.0740160  33.3093230  31.5152190  69.7686500
  24.9720910  26.5797760  68.3291590  24.8671550  25.9650110  69.0552970
  24.8045130  26.0563650  67.5454600  28.2123640  25.6417790  68.9333580
  27.6633740  26.0887090  69.5776320  28.8342900  25.1367040  69.4571250
  23.8798760  24.6008710  70.8298880  24.3015180  24.4348580  71.6730270
  24.0049600  23.7908940  70.3354020  26.3926400  23.6246320  68.0775980
  26.9132060  22.9095340  67.7117130  27.0394800  24.2632190  68.3776490
  22.7757660  20.6741940  67.7757040  22.5746720  19.8109300  68.1370380
  22.6049710  20.5875300  66.8378640  30.2545970  15.4850170  70.3043920
  30.5348260  14.6418070  70.6603340  29.4811700  15.7173280  70.8182670
  21.5740460  17.7742560  67.7634920  21.8766360  17.7809990  66.8554070
  22.3135050  17.4240420  68.2602580  24.7925390  16.7177180  68.7491120
  24.4447390  16.0401170  68.1693570  24.9938160  16.2566690  69.5634510
  26.9574430  31.7057930  70.3677720  27.8525220  32.0442900  70.3896480
  26.9892060  30.9837340  69.7402000  20.5970590  27.0784980  68.5964720
  21.0345460  27.6214650  69.2522300  21.0818320  26.2531930  68.6061060
  17.8116390  29.8674010  76.0484980  18.1419400  28.9995070  75.8163620
  18.2407390  30.0732530  76.8789940  22.4078310  28.1983020  73.7086950
  22.1073850  28.0747990  74.6090860  22.3015800  27.3391610  73.3002680
  35.1770230  27.9779420  68.4113630  34.3463190  28.0456070  68.8820860
  35.3542060  28.8683540  68.1080490  34.6326690  24.7226900  70.9147830
  35.3945600  25.2923550  71.0207520  34.6481060  24.1554100  71.6856140
  18.1331030  23.2464830  75.1455490  17.4779870  22.9776470  74.5015190
  18.9708980  23.1369310  74.6957470  35.6386660  25.5777000  75.7589760
  36.0095490  24.7944320  75.3525730  36.2788590  26.2666100  75.5807060
  34.6845860  25.0161270  68.0720350  34.9594700  25.9240150  67.9439570
  34.4956600  24.9523800  69.0082340  31.0821470  18.0406120  69.3673980
  31.5006350  17.8537100  68.5270640  30.7757530  17.1885170  69.6776910
  34.5811200  22.9530260  73.0649780  34.2054800  22.1858190  72.6331070
  33.8514320  23.3352960  73.5524710  17.3469110  20.4563760  71.0880820
  16.4433190  20.7193960  70.9132480  17.8309730  20.7274930  70.3080780
  33.8562160  21.1787750  76.3657020  34.3799640  20.6850400  75.7347190
  34.4421580  21.3138110  77.1104590  19.8896320  19.5129300  68.9975200
  20.5988020  19.0912520  68.5122480  19.1736260  19.5804530  68.3658550
  19.5370480  15.5668630  68.0377850  20.2598610  16.1077570  68.3559070
  19.8095000  15.2932050  67.1619390  33.3462130  20.4361100  72.3049430
  33.8421250  20.2031970  73.0898310  33.1478200  19.5972940  71.8887070
  34.7749290  19.0722050  74.8387110  34.6648570  18.9178090  75.7769380
  35.5356880  18.5442990  74.5962520  35.6639560  16.9029970  68.0793250
  36.5888870  16.7711150  67.8711540  35.6415350  16.9822790  69.0329700
  35.7378050  17.6740630  70.7049960  34.9429550  17.6085750  71.2342870
  35.9421330  18.6091270  70.6935310  32.6796470  31.7132180  74.6988350
  33.2755540  31.3916750  74.0222770  32.9374620  31.2404000  75.4901620
  34.0336550  15.6352750  75.1657610  33.9724950  14.6913970  75.0188630
  34.8128580  15.7432840  75.7111070  18.3389300  31.7745110  74.1281560
  18.1711340  31.1415790  74.8263450  17.4723810  31.9804510  73.7775750
  18.9617320  15.6061890  71.6313420  19.7196680  15.7190770  71.0577450
  18.4994490  16.4431090  71.5856850  25.5031130  17.7201160  74.6215730
  24.6905640  17.3458050  74.2811610  26.0072770  16.9646240  74.9236920
  30.0056110  14.3843610  75.8598800  30.6085480  14.9563820  76.3347320
  29.2649100  14.9483050  75.6372700  33.1490710  14.7865170  71.1339080
  33.3441340  15.6848620  71.4006510  32.3620580  14.5552250  71.6272030
  19.9452000  30.4678340  71.5731700  19.4199620  30.8486370  70.8693660
  19.8696580  31.0929110  72.2941410  21.3342470  16.1325940  70.1715390
  21.8635230  15.3455740  70.0423340  21.9670790  16.8117130  70.4050920
  23.5280310  15.8701080  73.2260780  22.8983050  15.1688390  73.3930910
  22.9885450  16.6305210  73.0093940  34.7017320  32.0265880  72.8945640
  34.8769510  31.3403620  72.2506560  34.0038890  32.5512930  72.5022310
  22.5444970  32.4160720  70.4480950  23.2763790  32.1320000  69.9004840
  22.8038640  32.1774000  71.3380330  21.7059760  28.5325450  70.4527280
  21.0768640  29.0010550  71.0013110  21.8207590  27.6874670  70.8873470
  21.3093350  24.6729940  59.3613510  20.4778230  24.4178650  59.7610020
  21.9174330  24.7440710  60.0971430  21.2894610  28.7070030  59.5571530
  21.5922650  27.8167770  59.3781750  22.0338200  29.2640250  59.3293780
  19.7185300  19.6331830  53.1455900  18.8302000  19.9747800  53.0435780
  20.0026490  19.4332150  52.2536730  17.6818310  22.2337480  59.0295600
  18.2534420  21.4659680  59.0299240  17.6819850  22.5326240  58.1202210
  18.9243180  17.6421840  60.8164530  18.7446020  16.7447590  61.0967290
  18.5223260  18.1893710  61.4911480  21.8946690  18.2163330  54.1794280
  22.0013440  19.1167060  54.4863040  20.9839050  18.1681300  53.8888930
  19.5429850  20.1382340  59.4246870  20.2239960  20.4020710  60.0434270
  19.2277900  19.2983210  59.7584880  23.7354420  21.1849700  58.5119460
  24.2432640  21.6830670  59.1524480  24.2667660  20.4084900  58.3358820
  35.8365350  19.3554890  62.2148810  35.1317520  19.7436600  61.6963920
  36.1023270  20.0505180  62.8169740  22.0190520  15.8248260  62.7782880
  22.0208960  16.3420650  61.9728780  21.1894830  15.3478440  62.7552810
  23.2693370  25.4643440  60.9556380  22.9362750  26.0912360  61.5977450
  23.4460050  25.9905320  60.1758050  21.7005850  17.5358220  60.7853330
  22.0422660  18.3800270  60.4907200  20.7621660  17.6841960  60.9018670
  22.4812470  27.4324240  62.7705560  23.0986470  28.1075320  62.4890010
  21.6205590  27.8412220  62.6793060  17.7744810  26.6224100  51.6512410
  17.3972790  27.1111200  50.9197310  18.0317880  27.2949380  52.2818940
  25.3833740  15.0240490  57.1097920  25.6908720  14.4687380  56.3933420
  24.4534440  15.1584950  56.9270910  27.7583580  19.3606320  50.8425200
  26.8187250  19.5220280  50.9277660  28.0766840  20.0792000  50.2961190
  23.8452840  27.3021620  58.7916980  23.5481130  26.6967090  58.1124760
  24.7952660  27.3398930  58.6806340  22.0899760  20.3897270  60.4076810
  22.6414350  20.4992610  59.6330060  22.6043270  20.7634870  61.1232040
  31.9338450  30.8753490  62.4540080  31.4569010  31.6825680  62.2612690
  31.2500240  30.2231820  62.6066290  22.9371270  27.0403310  65.4424780
  22.0399800  27.2643280  65.6898180  22.9624140  27.1638250  64.4936180
  21.7642490  23.9116630  64.0182150  21.6250260  24.7839430  64.3869550
  20.8823850  23.5689440  63.8730090  23.5622840  29.8538330  66.2267300
  23.5338270  30.2581280  65.3595730  23.3987810  28.9248690  66.0638900
  33.5593630  15.1439240  49.6707080  33.2466290  15.2366070  50.5706150
  34.3206100  15.7220270  49.6204510  20.0775770  22.5099040  54.1284420
  19.9573370  23.2361130  53.5165690  19.7676660  21.7401950  53.6512330
  35.5137660  30.6365430  67.5231470  35.9897380  31.1148320  68.2020550
  36.1344820  30.5682920  66.7976970  17.7161140  25.6814180  59.9353060
  17.7941560  25.8162950  58.9908780  18.3302820  24.9730070  60.1281180
  18.9608770  27.3814370  56.3459240  18.5536850  27.5228960  55.4912840
  19.8521780  27.0974530  56.1430450  28.7787650  31.5306280  63.2526290
  29.2932320  31.4414290  64.0548720  27.9356730  31.8765980  63.5454200
  23.2330430  31.5960150  54.4581910  23.0572910  30.6795690  54.2449710
  22.3786170  31.9547440  54.6979710  34.7694920  19.8810740  65.6481220
  34.1539190  20.3890410  65.1196680  34.4491340  18.9809070  65.5907160
  17.7720660  26.7228350  62.4747520  17.9351700  26.2533710  61.6566890
  18.2373110  26.2151910  63.1396360  22.5439430  15.8534110  57.5108090
  22.1007580  16.6343650  57.1792610  23.1024420  16.1764000  58.2179030
  26.8309240  18.7202630  63.1143410  26.3688610  18.9285650  63.9263350
  26.4287350  17.9061980  62.8114080  31.8313750  19.9411580  64.2440070
  30.9807340  19.6417330  64.5649140  31.6715540  20.1853590  63.3323890
  28.9263460  21.4413330  66.3438860  29.2516870  20.6077080  66.0041090
  29.7143790  21.9641850  66.4917190  25.6598250  15.4744810  52.3913920
  25.0352430  15.4704680  53.1167230  25.5728370  14.6075770  51.9949890
  24.5815330  16.3981440  59.3697690  24.8787660  17.3044270  59.2889710
  25.1300890  15.9100220  58.7557260  22.3353650  20.9767680  55.2389340
  22.1094570  20.7604850  56.1435960  21.5546180  21.4096140  54.8935310
  24.7752860  21.8753260  65.9049610  24.6796460  20.9347990  65.7550010
  25.6184840  22.0968330  65.5097680  19.9063400  18.2866930  64.0583390
  19.5126790  19.1342140  64.2656170  19.2181800  17.6493300  64.2492030
  26.4808450  18.3701900  67.1280130  25.7906770  18.1774100  67.7626220
  27.2240750  18.6536540  67.6604430  17.2080450  16.2095390  58.0913470
  16.9193500  16.7798250  58.8038450  17.9526210  15.7299840  58.4544700
  17.3950680  20.1515510  49.3016190  17.3125350  21.0946270  49.4431180
  17.0433740  20.0090420  48.4228540  25.1948810  18.8854540  58.3686540
  25.1984870  18.4444490  57.5191080  26.0899930  19.2071870  58.4758360
  21.0451190  18.7681030  57.3280750  20.7051240  19.2456260  58.0847800
  20.2828510  18.3146150  56.9681850  25.2568960  19.8866620  51.3593300
  25.3781780  19.8453100  52.3079120  24.8717470  20.7490770  51.2040030
  29.2197330  17.6634020  59.3756990  29.2370070  18.1142670  60.2198840
  28.9712910  16.7639660  59.5890430  32.6468080  15.0766200  65.2143370
  32.9713850  14.3455860  65.7401350  32.6824590  14.7579840  64.3124360
  19.3459640  26.0979780  64.6343330  18.9614430  25.4573450  65.2326290
  19.6571830  26.8015900  65.2038060  18.3597270  17.6900010  56.2445420
  18.0744190  17.3255680  57.0824040  18.2976130  16.9580470  55.6308560
  23.2856150  21.9864960  62.4336160  22.9813220  22.8656940  62.6586520
  24.2402610  22.0464750  62.4693600  28.0335860  16.5829270  52.9658790
  27.2200470  16.0842440  52.8904100  27.8397810  17.4227520  52.5495140
  27.9544720  25.2600370  64.7098400  27.8882030  24.3396040  64.4555990
  27.3249860  25.3575810  65.4243040  21.8575340  25.8606330  56.6681820
  22.3754010  25.0574590  56.6138710  21.4059360  25.7985470  57.5098650
  19.3419880  22.8267700  63.5807520  18.9834820  23.4921550  64.1680860
  19.0474440  21.9951250  63.9520140  22.5433000  23.2851940  66.4647070
  22.2433140  23.4309120  65.5674890  23.3144240  22.7257230  66.3720460
  27.8861450  28.0820940  64.4602200  27.9005990  27.1501900  64.2421110
  27.1786550  28.1680700  65.0991970  34.0972660  24.7228280  63.8070780
  33.3720850  25.3157060  63.6100170  34.6248120  24.7151820  63.0084150
  17.8527930  22.8258960  50.2042120  18.7222780  23.1083760  50.4878040
  17.3618250  23.6394830  50.0890930  27.3195350  29.7238510  61.5542700
  27.9637570  29.9297890  62.2316120  27.6824790  28.9626910  61.1013550
  20.9174520  14.5569820  54.7972920  20.7889150  14.5487720  55.7457840
  20.0936540  14.8952910  54.4463930  30.3665050  28.5265760  63.4756210
  30.7021290  29.1132450  64.1534130  29.4465390  28.3958470  63.7054000
  18.2199180  32.0386340  50.7703750  18.5796820  32.6375680  50.1161020
  18.0791520  32.5846230  51.5438780  17.9168450  16.3160940  64.2579620
  17.2026970  16.5157860  64.8632230  18.3363490  15.5400510  64.6294420
  18.2041040  30.3041200  65.2446150  18.3132160  29.3635940  65.1041540
  17.5521600  30.5695950  64.5959880  26.1953630  28.5757090  66.6444270
  25.8750500  27.8566330  67.1889960  25.5211990  29.2512160  66.7180330
  19.8374440  24.6432430  52.3324180  19.2302390  25.3831330  52.3419480
  20.3123790  24.7331790  51.5062380  29.4107230  18.8083250  62.0081070
  29.7788050  17.9878460  62.3360640  28.5505430  18.8685140  62.4236720
  24.7453290  20.0426140  54.2326510  24.0369440  20.5112480  54.6740120
  25.0297770  19.3848150  54.8671700  26.3709220  21.4622840  62.2319040
  26.8694470  21.9368660  62.8970890  26.5132170  20.5386360  62.4389070
  22.9488310  18.3511220  51.6077220  23.7978840  18.7881370  51.5417410
  22.5819580  18.6631480  52.4349280  33.5776080  17.6790800  63.0747430
  33.0749680  18.4196200  63.4141240  34.3932740  18.0674800  62.7584220
  20.5426490  22.0368650  50.7645640  20.6230080  21.0896160  50.8763040
  21.4346240  22.3675530  50.8706300  21.3441200  32.1864040  57.8680180
  22.0803680  31.6379500  58.1388750  21.7282120  33.0520050  57.7286170
  18.2286680  28.2537610  53.7421690  17.3026460  28.4958750  53.7327100
  18.6943110  29.0811870  53.6206440  20.3499480  31.3710110  67.0565760
  21.1512210  31.6922160  67.4701160  19.8351300  31.0105690  67.7785670
  29.1864110  27.4789980  67.0041170  28.5802270  27.5021580  66.2636920
  28.8818220  26.7473020  67.5408420  30.6164480  31.2070270  65.6150580
  31.5686230  31.1228290  65.5650820  30.4692700  31.8711980  66.2884370
  18.0697290  23.8583570  66.0001810  18.5736310  23.2790850  66.5718040
  17.3304710  24.1423800  66.5378180  25.1235230  25.2654560  65.5337330
  24.3580900  25.8339560  65.4492000  25.3051190  24.9730770  64.6405560
  32.2658580  26.9959890  66.0912350  33.0068050  27.3335650  65.5879810
  31.5031260  27.1651950  65.5382120  20.1020370  22.0013160  66.8951880
  20.1425710  21.7027030  67.8037110  20.9565870  22.4020770  66.7359400
  22.0426180  20.5805260  64.8626370  21.5122640  20.0896210  64.2349710
  22.7114250  21.0089460  64.3284300  30.9404240  25.0474720  64.6267560
  31.3545260  25.2019800  65.4757980  30.0055240  25.1729940  64.7893340
  31.4126410  22.3870880  66.6306710  31.9947180  21.6323200  66.5427190
  31.5888180  22.9178320  65.8538190  22.5298480  17.5467630  64.9423660
  22.4355350  16.9288380  64.2174530  21.9495870  18.2733920  64.7153570
  25.2959920  16.1040870  61.9751050  24.8477220  16.1265130  61.1296600
  24.6625120  15.7059890  62.5721350  25.7019470  24.9995200  62.5963490
  26.1207580  25.8427930  62.4239730  24.7828100  25.1367240  62.3670270
  28.0383370  22.7311380  63.9801330  28.1579580  22.1352520  64.7196170
  28.8977370  22.7681070  63.5602630  30.3771270  23.2848570  62.5563840
  29.8506490  23.8091190  61.9528980  30.7202610  23.9175960  63.1873570
  22.7757660  20.6741940  49.0013550  22.5746720  19.8109300  49.3626890
  22.6049710  20.5875300  48.0635150  23.5526890  31.3048210  63.7121220
  23.0147980  32.0294270  63.3929920  23.8060850  30.8278550  62.9218560
  24.8052140  19.2732730  65.2377150  25.3951830  18.9648580  65.9254970
  23.9872380  18.8012480  65.3937050  29.6245570  18.8898540  65.4710170
  28.9361090  18.2280080  65.4060160  30.3451590  18.4436810  65.9158630
  30.2545970  15.4850170  51.5300430  30.5348260  14.6418070  51.8859850
  29.4811700  15.7173280  52.0439180  21.5740460  17.7742560  48.9891430
  21.8766360  17.7809990  48.0810580  22.3135050  17.4240420  49.4859090
  26.4089100  32.5399420  63.9707870  26.3347800  33.4434560  64.2780240
  25.5067940  32.2211320  63.9429940  24.7925390  16.7177180  49.9747630
  24.4447390  16.0401170  49.3950080  24.9938160  16.2566690  50.7891020
  20.5970590  27.0784980  49.8221230  21.0345460  27.6214650  50.4778810
  21.0818320  26.2531930  49.8317570  17.8116390  29.8674010  57.2741490
  18.1419400  28.9995070  57.0420130  18.2407390  30.0732530  58.1046450
  18.3006600  30.7344600  60.0123120  17.8637590  30.9145400  60.8447270
  18.8684280  31.4919220  59.8704840  18.1331030  23.2464830  56.3712000
  17.4779870  22.9776470  55.7271700  18.9708980  23.1369310  55.9213980
  32.6220420  26.9613580  62.3976590  31.8080260  27.3910740  62.6602380
  33.0294620  27.5731990  61.7845640  31.0821470  18.0406120  50.5930490
  31.5006350  17.8537100  49.7527150  30.7757530  17.1885170  50.9033420
  19.1706960  23.6317400  60.9115340  19.5380000  23.5444800  61.7911360
  18.6017780  22.8683950  60.8122200  33.9710820  22.1001780  63.9245810
  33.7396910  21.8714530  63.0243760  34.2315370  23.0201330  63.8790700
  18.7222960  20.5426490  64.8173760  17.8279010  20.5093250  65.1567470
  19.2620510  20.7413280  65.5825010  32.4098890  17.3258210  66.7025510
  33.2869070  17.3341610  67.0859510  32.4219730  16.5889050  66.0917860
  17.3469110  20.4563760  52.3137330  16.4433190  20.7193960  52.1388990
  17.8309730  20.7274930  51.5337290  19.8896320  19.5129300  50.2231710
  20.5988020  19.0912520  49.7378990  19.1736260  19.5804530  49.5915060
  19.5370480  15.5668630  49.2634360  20.2598610  16.1077570  49.5815580
  19.8095000  15.2932050  48.3875900  19.2262670  14.8174820  59.1656980
  19.8738860  14.2672200  58.7252140  19.6464510  15.0717970  59.9872790
  33.1215010  15.0116180  62.5226620  33.7587230  15.6250320  62.8885810
  33.2689900  15.0476840  61.5775850  35.6639560  16.9029970  49.3049760
  36.5888870  16.7711150  49.0968050  35.6415350  16.9822790  50.2586210
  18.9794670  14.9730490  61.9082300  18.6309490  15.4294310  62.6740480
  18.6482370  14.0787620  61.9904730  20.5859040  28.1450090  66.0735490
  20.5428670  27.7743000  66.9549950  20.7170050  29.0827660  66.2137310
  24.2865070  29.7009680  61.6745210  24.0456430  29.9684240  60.7875730
  25.2267710  29.8715410  61.7296070  26.4919490  16.1642370  65.4301720
  26.4308380  16.7564200  66.1797130  27.4319870  16.0568330  65.2851980
  29.1294050  15.8212430  65.0694010  29.7434460  16.1391720  64.4075090
  29.6743610  15.3361020  65.6889870  19.6515310  14.5006690  65.1833070
  20.1998300  14.3194740  64.4199180  19.7170620  13.7100800  65.7189380
  20.4247070  31.0912340  63.1933270  19.8307390  30.9597040  63.9323310
  20.4170910  30.2550480  62.7275370  29.8702090  14.3844570  61.3963300
  28.9961930  14.7179680  61.1936230  29.7612840  13.9117750  62.2215170
  30.7774070  16.5915440  62.7805020  30.4487430  15.7767200  62.4006750
  31.7256370  16.5485250  62.6570710  20.0559300  28.4570720  62.1441310
  19.3293360  27.8376010  62.0767260  20.1168450  28.8511330  61.2739390
  23.6604400  30.6715720  58.9290720  24.1769420  30.0603080  58.4038980
  24.3101780  31.1744500  59.4201730  26.3999900  31.5624210  59.7559700
  26.6877710  31.3078510  58.8792710  26.9123120  31.0101570  60.3465270
  27.6176910  15.3014410  60.3356210  26.8348700  15.7759910  60.6152970
  27.3239840  14.3969240  60.2269390  32.1697980  16.0037510  58.3805300
  32.6106070  15.9482610  57.5326900  31.9005570  16.9195520  58.4515480
  18.3389300  31.7745110  55.3538070  18.1711340  31.1415790  56.0519960
  17.4723810  31.9804510  55.0032260  18.9617320  15.6061890  52.8569930
  19.7196680  15.7190770  52.2833960  18.4994490  16.4431090  52.8113360
  25.5031130  17.7201160  55.8472240  24.6905640  17.3458050  55.5068120
  26.0072770  16.9646240  56.1493430  30.0056110  14.3843610  57.0855310
  30.6085480  14.9563820  57.5603830  29.2649100  14.9483050  56.8629210
  33.1490710  14.7865170  52.3595590  33.3441340  15.6848620  52.6263020
  32.3620580  14.5552250  52.8528540  19.9452000  30.4678340  52.7988210
  19.4199620  30.8486370  52.0950170  19.8696580  31.0929110  53.5197920
  21.3342470  16.1325940  51.3971900  21.8635230  15.3455740  51.2679850
  21.9670790  16.8117130  51.6307430  23.5280310  15.8701080  54.4517290
  22.8983050  15.1688390  54.6187420  22.9885450  16.6305210  54.2350450
  26.4672260  32.4840310  67.1227900  27.3939570  32.2484580  67.1663860
  26.4522690  33.3112310  66.6413930  23.6535870  15.1485060  66.8869780
  23.3720140  15.6518660  66.1230600  24.0355570  14.3506810  66.5211910
  22.5444970  32.4160720  51.6737460  23.2763790  32.1320000  51.1261350
  22.8038640  32.1774000  52.5636840  30.2551330  14.5638640  67.4650250
  30.1416780  14.8833250  68.3601770  31.0721070  14.9651150  67.1687530
  33.0349820  31.7110170  66.9468940  33.8275140  31.2159400  66.7394900
  33.3282970  32.3900310  67.5544550  31.5465800  17.3388140  36.8761690
  32.3675420  16.8484710  36.9187170  31.5799880  17.9285800  37.6293530
  22.0190520  15.8248260  44.0039390  22.0208960  16.3420650  43.1985290
  21.1894830  15.3478440  43.9809320  17.7744810  26.6224100  32.8768920
  17.3972790  27.1111200  32.1453820  18.0317880  27.2949380  33.5075450
  25.3833740  15.0240490  38.3354430  25.6908720  14.4687380  37.6189930
  24.4534440  15.1584950  38.1527420  17.7161140  25.6814180  41.1609570
  17.7941560  25.8162950  40.2165290  18.3302820  24.9730070  41.3537690
  18.9608770  27.3814370  37.5715750  18.5536850  27.5228960  36.7169350
  19.8521780  27.0974530  37.3686960  17.7720660  26.7228350  43.7004030
  17.9351700  26.2533710  42.8823400  18.2373110  26.2151910  44.3652870
  22.5439430  15.8534110  38.7364600  22.1007580  16.6343650  38.4049120
  23.1024420  16.1764000  39.4435540  26.8309240  18.7202630  44.3399920
  26.3688610  18.9285650  45.1519860  26.4287350  17.9061980  44.0370590
  28.9263460  21.4413330  47.5695370  29.2516870  20.6077080  47.2297600
  29.7143790  21.9641850  47.7173700  25.6598250  15.4744810  33.6170430
  25.0352430  15.4704680  34.3423740  25.5728370  14.6075770  33.2206400
  24.5815330  16.3981440  40.5954200  24.8787660  17.3044270  40.5146220
  25.1300890  15.9100220  39.9813770  24.7752860  21.8753260  47.1306120
  24.6796460  20.9347990  46.9806520  25.6184840  22.0968330  46.7354190
  19.9063400  18.2866930  45.2839900  19.5126790  19.1342140  45.4912680
  19.2181800  17.6493300  45.4748540  26.4808450  18.3701900  48.3536640
  25.7906770  18.1774100  48.9882730  27.2240750  18.6536540  48.8860940
  17.3950680  20.1515510  30.5272700  17.3125350  21.0946270  30.6687690
  17.0433740  20.0090420  29.6485050  29.2197330  17.6634020  40.6013500
  29.2370070  18.1142670  41.4455350  28.9712910  16.7639660  40.8146940
  32.6468080  15.0766200  46.4399880  32.9713850  14.3455860  46.9657860
  32.6824590  14.7579840  45.5380870  19.3459640  26.0979780  45.8599840
  18.9614430  25.4573450  46.4582800  19.6571830  26.8015900  46.4294570
  22.5433000  23.2851940  47.6903580  22.2433140  23.4309120  46.7931400
  23.3144240  22.7257230  47.5976970  17.8527930  22.8258960  31.4298630
  18.7222780  23.1083760  31.7134550  17.3618250  23.6394830  31.3147440
  20.9174520  14.5569820  36.0229430  20.7889150  14.5487720  36.9714350
  20.0936540  14.8952910  35.6720440  17.9168450  16.3160940  45.4836130
  17.2026970  16.5157860  46.0888740  18.3363490  15.5400510  45.8550930
  18.2041040  30.3041200  46.4702660  18.3132160  29.3635940  46.3298050
  17.5521600  30.5695950  45.8216390  19.8374440  24.6432430  33.5580690
  19.2302390  25.3831330  33.5675990  20.3123790  24.7331790  32.7318890
  32.7769260  17.7640190  34.0425140  32.1482420  17.8685860  33.3283370
  32.2821180  17.9836970  34.8319020  28.7768720  16.7676800  36.8978810
  28.6536500  16.7862930  35.9488320  29.7253280  16.8155740  37.0177210
  20.3499480  31.3710110  48.2822270  21.1512210  31.6922160  48.6957670
  19.8351300  31.0105690  49.0042180  18.0697290  23.8583570  47.2258320
  18.5736310  23.2790850  47.7974550  17.3304710  24.1423800  47.7634690
  20.1020370  22.0013160  48.1208390  20.1425710  21.7027030  49.0293620
  20.9565870  22.4020770  47.9615910  22.5298480  17.5467630  46.1680170
  22.4355350  16.9288380  45.4431040  21.9495870  18.2733920  45.9410080
  25.2959920  16.1040870  43.2007560  24.8477220  16.1265130  42.3553110
  24.6625120  15.7059890  43.7977860  25.7019470  24.9995200  43.8220000
  26.1207580  25.8427930  43.6496240  24.7828100  25.1367240  43.5926780
  24.8052140  19.2732730  46.4633660  25.3951830  18.9648580  47.1511480
  23.9872380  18.8012480  46.6193560  29.6245570  18.8898540  46.6966680
  28.9361090  18.2280080  46.6316670  30.3451590  18.4436810  47.1415140
  18.7222960  20.5426490  46.0430270  17.8279010  20.5093250  46.3823980
  19.2620510  20.7413280  46.8081520  32.4098890  17.3258210  47.9282020
  33.2869070  17.3341610  48.3116020  32.4219730  16.5889050  47.3174370
  19.8896320  19.5129300  31.4488220  20.5988020  19.0912520  30.9635500
  19.1736260  19.5804530  30.8171570  19.5370480  15.5668630  30.4890870
  20.2598610  16.1077570  30.8072090  19.8095000  15.2932050  29.6132410
  19.2262670  14.8174820  40.3913490  19.8738860  14.2672200  39.9508650
  19.6464510  15.0717970  41.2129300  34.7749290  19.0722050  37.2900130
  34.6648570  18.9178090  38.2282400  35.5356880  18.5442990  37.0475540
  33.1215010  15.0116180  43.7483130  33.7587230  15.6250320  44.1142320
  33.2689900  15.0476840  42.8032360  18.9794670  14.9730490  43.1338810
  18.6309490  15.4294310  43.8996990  18.6482370  14.0787620  43.2161240
  20.5859040  28.1450090  47.2992000  20.5428670  27.7743000  48.1806460
  20.7170050  29.0827660  47.4393820  26.4919490  16.1642370  46.6558230
  26.4308380  16.7564200  47.4053640  27.4319870  16.0568330  46.5108490
  29.1294050  15.8212430  46.2950520  29.7434460  16.1391720  45.6331600
  29.6743610  15.3361020  46.9146380  19.6515310  14.5006690  46.4089580
  20.1998300  14.3194740  45.6455690  19.7170620  13.7100800  46.9445890
  29.8702090  14.3844570  42.6219810  28.9961930  14.7179680  42.4192740
  29.7612840  13.9117750  43.4471680  30.7774070  16.5915440  44.0061530
  30.4487430  15.7767200  43.6263260  31.7256370  16.5485250  43.8827220
  20.0559300  28.4570720  43.3697820  19.3293360  27.8376010  43.3023770
  20.1168450  28.8511330  42.4995900  27.6176910  15.3014410  41.5612720
  26.8348700  15.7759910  41.8409480  27.3239840  14.3969240  41.4525900
  32.1697980  16.0037510  39.6061810  32.6106070  15.9482610  38.7583410
  31.9005570  16.9195520  39.6771990  34.0336550  15.6352750  37.6170630
  33.9724950  14.6913970  37.4701650  34.8128580  15.7432840  38.1624090
  18.9617320  15.6061890  34.0826440  19.7196680  15.7190770  33.5090470
  18.4994490  16.4431090  34.0369870  25.5031130  17.7201160  37.0728750
  24.6905640  17.3458050  36.7324630  26.0072770  16.9646240  37.3749940
  30.0056110  14.3843610  38.3111820  30.6085480  14.9563820  38.7860340
  29.2649100  14.9483050  38.0885720  33.1490710  14.7865170  33.5852100
  33.3441340  15.6848620  33.8519530  32.3620580  14.5552250  34.0785050
  21.3342470  16.1325940  32.6228410  21.8635230  15.3455740  32.4936360
  21.9670790  16.8117130  32.8563940  23.5280310  15.8701080  35.6773800
  22.8983050  15.1688390  35.8443930  22.9885450  16.6305210  35.4606960
  23.6535870  15.1485060  48.1126290  23.3720140  15.6518660  47.3487110
  24.0355570  14.3506810  47.7468420  30.2551330  14.5638640  48.6906760
  30.1416780  14.8833250  49.5858280  31.0721070  14.9651150  48.3944040
  21.3093350  24.6729940  21.8126530  20.4778230  24.4178650  22.2123040
  21.9174330  24.7440710  22.5484450  19.7185300  19.6331830  15.5968920
  18.8302000  19.9747800  15.4948800  20.0026490  19.4332150  14.7049750
  17.6818310  22.2337480  21.4808620  18.2534420  21.4659680  21.4812260
  17.6819850  22.5326240  20.5715230  27.5398260  31.0528330  19.3353890
  26.9209700  31.5085830  18.7648330  28.3950040  31.2079790  18.9343590
  26.7336510  27.0367320  20.9420930  26.6644790  26.0957260  20.7810060
  27.4956370  27.1268730  21.5143500  18.9243180  17.6421840  23.2677550
  18.7446020  16.7447590  23.5480310  18.5223260  18.1893710  23.9424500
  21.8946690  18.2163330  16.6307300  22.0013440  19.1167060  16.9376060
  20.9839050  18.1681300  16.3401950  31.5465800  17.3388140  18.1018200
  32.3675420  16.8484710  18.1443680  31.5799880  17.9285800  18.8550040
  19.5429850  20.1382340  21.8759890  20.2239960  20.4020710  22.4947290
  19.2277900  19.2983210  22.2097900  23.7354420  21.1849700  20.9632480
  24.2432640  21.6830670  21.6037500  24.2667660  20.4084900  20.7871840
  22.0190520  15.8248260  25.2295900  22.0208960  16.3420650  24.4241800
  21.1894830  15.3478440  25.2065830  28.4061610  25.9367570  16.7285800
  27.7878880  26.4017020  16.1648520  28.9184860  26.6295050  17.1455310
  23.2693370  25.4643440  23.4069400  22.9362750  26.0912360  24.0490470
  23.4460050  25.9905320  22.6271070  21.7005850  17.5358220  23.2366350
  22.0422660  18.3800270  22.9420220  20.7621660  17.6841960  23.3531690
  17.7744810  26.6224100  14.1025430  17.3972790  27.1111200  13.3710330
  18.0317880  27.2949380  14.7331960  25.3833740  15.0240490  19.5610940
  25.6908720  14.4687380  18.8446440  24.4534440  15.1584950  19.3783930
  27.7714500  23.0889320  16.2971060  26.8443780  23.0226700  16.5259530
  27.9239320  24.0269450  16.1826300  27.7583580  19.3606320  13.2938220
  26.8187250  19.5220280  13.3790680  28.0766840  20.0792000  12.7474210
  31.8011790  24.6509620  16.8006310  31.1824210  24.3129170  16.1532610
  31.7836240  24.0069380  17.5085500  23.3771140  23.6154060  19.0790790
  22.9728140  22.9031310  18.5836690  23.4634260  23.2707300  19.9678830
  23.8452840  27.3021620  21.2430000  23.5481130  26.6967090  20.5637780
  24.7952660  27.3398930  21.1319360  22.0899760  20.3897270  22.8589830
  22.6414350  20.4992610  22.0843080  22.6043270  20.7634870  23.5745060
  29.9776490  23.8896430  13.8079060  30.4169770  23.0518860  13.6616880
  30.6904910  24.5225830  13.8943200  28.0871870  28.8292500  17.7760300
  28.5267780  29.5716830  17.3615690  28.0258760  29.0719070  18.6999260
  33.5593630  15.1439240  12.1220100  33.2466290  15.2366070  13.0219170
  34.3206100  15.7220270  12.0717530  20.0775770  22.5099040  16.5797440
  19.9573370  23.2361130  15.9678710  19.7676660  21.7401950  16.1025350
  17.7161140  25.6814180  22.3866080  17.7941560  25.8162950  21.4421800
  18.3302820  24.9730070  22.5794200  18.9608770  27.3814370  18.7972260
  18.5536850  27.5228960  17.9425860  19.8521780  27.0974530  18.5943470
  30.7542050  31.8161620  15.1323310  30.5943190  31.5264560  16.0305140
  30.5888760  31.0401750  14.5968540  23.2330430  31.5960150  16.9094930
  23.0572910  30.6795690  16.6962730  22.3786170  31.9547440  17.1492730
  30.4568180  29.3249180  13.6921310  29.7633340  29.3226470  13.0323590
  31.1991040  28.9008500  13.2615480  17.7720660  26.7228350  24.9260540
  17.9351700  26.2533710  24.1079910  18.2373110  26.2151910  25.5909380
  22.5439430  15.8534110  19.9621110  22.1007580  16.6343650  19.6305630
  23.1024420  16.1764000  20.6692050  25.6598250  15.4744810  14.8426940
  25.0352430  15.4704680  15.5680250  25.5728370  14.6075770  14.4462910
  24.5815330  16.3981440  21.8210710  24.8787660  17.3044270  21.7402730
  25.1300890  15.9100220  21.2070280  22.3353650  20.9767680  17.6902360
  22.1094570  20.7604850  18.5948980  21.5546180  21.4096140  17.3448330
  29.5651410  20.9831050  16.2893010  28.9660300  21.7066850  16.1056630
  30.1131020  20.9207830  15.5069460  28.1716280  19.6194590  18.3196290
  28.5645850  19.9366790  17.5064980  28.5333130  18.7406470  18.4340810
  19.9063400  18.2866930  26.5096410  19.5126790  19.1342140  26.7169190
  19.2181800  17.6493300  26.7005050  17.2080450  16.2095390  20.5426490
  16.9193500  16.7798250  21.2551470  17.9526210  15.7299840  20.9057720
  17.3950680  20.1515510  11.7529210  17.3125350  21.0946270  11.8944200
  17.0433740  20.0090420  10.8741560  25.1948810  18.8854540  20.8199560
  25.1984870  18.4444490  19.9704100  26.0899930  19.2071870  20.9271380
  21.0451190  18.7681030  19.7793770  20.7051240  19.2456260  20.5360820
  20.2828510  18.3146150  19.4194870  25.2568960  19.8866620  13.8106320
  25.3781780  19.8453100  14.7592140  24.8717470  20.7490770  13.6553050
  24.2690460  22.1967760  13.2089620  23.7007360  21.7486010  12.5825530
  24.9779460  22.5560540  12.6754770  18.3597270  17.6900010  18.6958440
  18.0744190  17.3255680  19.5337060  18.2976130  16.9580470  18.0821580
  21.8137940  26.1925950  15.4816030  21.0400200  25.6523570  15.3214750
  22.5432570  25.6732560  15.1433790  28.0335860  16.5829270  15.4171810
  27.2200470  16.0842440  15.3417120  27.8397810  17.4227520  15.0008160
  30.7484250  20.9548920  13.7133970  31.6363870  21.2666150  13.5385310
  30.7189340  20.0821170  13.3214550  21.8575340  25.8606330  19.1194840
  22.3754010  25.0574590  19.0651730  21.4059360  25.7985470  19.9611670
  26.7444840  27.1272610  14.3922140  27.0860540  27.8714840  13.8965460
  25.9157550  27.4403730  14.7546970  19.3419880  22.8267700  26.0320540
  18.9834820  23.4921550  26.6193880  19.0474440  21.9951250  26.4033160
  33.0198520  22.2660760  13.1813830  32.9362240  22.6974980  12.3310270
  33.7392710  22.7259110  13.6140650  25.7135530  27.2086140  17.1638060
  26.4006660  27.7555350  17.5445650  24.9267950  27.7526870  17.1987670
  17.8527930  22.8258960  12.6555140  18.7222780  23.1083760  12.9391060
  17.3618250  23.6394830  12.5403950  25.0162740  24.2132170  16.7763420
  25.4725520  25.0237420  17.0023610  24.6650950  23.8955310  17.6081910
  20.9174520  14.5569820  17.2485940  20.7889150  14.5487720  18.1970860
  20.0936540  14.8952910  16.8976950  32.4383150  28.0119480  12.4472310
  32.2120730  27.2949920  13.0396950  32.0479350  27.7631920  11.6094060
  18.2199180  32.0386340  13.2216770  18.5796820  32.6375680  12.5674040
  18.0791520  32.5846230  13.9951800  17.9168450  16.3160940  26.7092640
  17.2026970  16.5157860  27.3145250  18.3363490  15.5400510  27.0807440
  32.0199400  25.9291420  14.1086470  31.7321100  26.3904110  14.8964350
  32.8151570  25.4689190  14.3770690  24.2367800  29.4217540  14.0390440
  24.2277900  30.1547230  13.4234950  23.3166160  29.1749120  14.1317400
  19.8374440  24.6432430  14.7837200  19.2302390  25.3831330  14.7932500
  20.3123790  24.7331790  13.9575400  27.2227400  29.4845780  12.7015630
  27.3239380  29.2809770  11.7717610  26.3229140  29.2304060  12.9063410
  24.7453290  20.0426140  16.6839530  24.0369440  20.5112480  17.1253140
  25.0297770  19.3848150  17.3184720  28.7768720  16.7676800  18.1235320
  28.6536500  16.7862930  17.1744830  29.7253280  16.8155740  18.2433720
  25.8645510  32.0032100  17.3963300  26.1187010  31.9653490  16.4742670
  24.9157990  31.8765430  17.3891550  22.9488310  18.3511220  14.0590240
  23.7978840  18.7881370  13.9930430  22.5819580  18.6631480  14.8862300
  21.8479730  24.6043580  12.5325770  22.6143000  24.4924940  13.0951200
  21.9254420  23.9081550  11.8802540  20.5426490  22.0368650  13.2158660
  20.6230080  21.0896160  13.3276060  21.4346240  22.3675530  13.3219320
  21.3441200  32.1864040  20.3193200  22.0803680  31.6379500  20.5901770
  21.7282120  33.0520050  20.1799190  18.2286680  28.2537610  16.1934710
  17.3026460  28.4958750  16.1840120  18.6943110  29.0811870  16.0719460
  24.4543510  31.3594350  12.1418770  25.2472120  31.6483180  11.6900560
  23.9347860  30.9286520  11.4631250  33.5073680  30.5864480  13.5655510
  33.2215190  30.1729620  12.7509690  33.3093230  31.5152190  13.4456030
  18.0697290  23.8583570  28.4514830  18.5736310  23.2790850  29.0231060
  17.3304710  24.1423800  28.9891200  24.9720910  26.5797760  12.0061120
  24.8671550  25.9650110  12.7322500  24.8045130  26.0563650  11.2224130
  28.2123640  25.6417790  12.6103110  27.6633740  26.0887090  13.2545850
  28.8342900  25.1367040  13.1340780  23.8798760  24.6008710  14.5068410
  24.3015180  24.4348580  15.3499800  24.0049600  23.7908940  14.0123550
  26.3926400  23.6246320  11.7545510  26.9132060  22.9095340  11.3886660
  27.0394800  24.2632190  12.0546020  25.2959920  16.1040870  24.4264070
  24.8477220  16.1265130  23.5809620  24.6625120  15.7059890  25.0234370
  22.7757660  20.6741940  11.4526570  22.5746720  19.8109300  11.8139910
  22.6049710  20.5875300  10.5148170  30.2545970  15.4850170  13.9813450
  30.5348260  14.6418070  14.3372870  29.4811700  15.7173280  14.4952200
  21.5740460  17.7742560  11.4404450  21.8766360  17.7809990  10.5323600
  22.3135050  17.4240420  11.9372110  24.7925390  16.7177180  12.4260650
  24.4447390  16.0401170  11.8463100  24.9938160  16.2566690  13.2404040
  26.9574430  31.7057930  14.0447250  27.8525220  32.0442900  14.0666010
  26.9892060  30.9837340  13.4171530  20.5970590  27.0784980  12.2734250
  21.0345460  27.6214650  12.9291830  21.0818320  26.2531930  12.2830590
  17.8116390  29.8674010  19.7254510  18.1419400  28.9995070  19.4933150
  18.2407390  30.0732530  20.5559470  22.4078310  28.1983020  17.3856480
  22.1073850  28.0747990  18.2860390  22.3015800  27.3391610  16.9772210
  35.1770230  27.9779420  12.0883160  34.3463190  28.0456070  12.5590390
  35.3542060  28.8683540  11.7850020  34.6326690  24.7226900  14.5917360
  35.3945600  25.2923550  14.6977050  34.6481060  24.1554100  15.3625670
  18.1331030  23.2464830  18.8225020  17.4779870  22.9776470  18.1784720
  18.9708980  23.1369310  18.3727000  34.6845860  25.0161270  11.7489880
  34.9594700  25.9240150  11.6209100  34.4956600  24.9523800  12.6851870
  31.0821470  18.0406120  13.0443510  31.5006350  17.8537100  12.2040170
  30.7757530  17.1885170  13.3546440  19.1706960  23.6317400  23.3628360
  19.5380000  23.5444800  24.2424380  18.6017780  22.8683950  23.2635220
  18.7222960  20.5426490  27.2686780  17.8279010  20.5093250  27.6080490
  19.2620510  20.7413280  28.0338030  17.3469110  20.4563760  14.7650350
  16.4433190  20.7193960  14.5902010  17.8309730  20.7274930  13.9850310
  19.8896320  19.5129300  12.6744730  20.5988020  19.0912520  12.1892010
  19.1736260  19.5804530  12.0428080  19.5370480  15.5668630  11.7147380
  20.2598610  16.1077570  12.0328600  19.8095000  15.2932050  10.8388920
  19.2262670  14.8174820  21.6170000  19.8738860  14.2672200  21.1765160
  19.6464510  15.0717970  22.4385810  35.6639560  16.9029970  11.7562780
  36.5888870  16.7711150  11.5481070  35.6415350  16.9822790  12.7099230
  18.9794670  14.9730490  24.3595320  18.6309490  15.4294310  25.1253500
  18.6482370  14.0787620  24.4417750  19.6515310  14.5006690  27.6346090
  20.1998300  14.3194740  26.8712200  19.7170620  13.7100800  28.1702400
  29.8702090  14.3844570  23.8476320  28.9961930  14.7179680  23.6449250
  29.7612840  13.9117750  24.6728190  23.6604400  30.6715720  21.3803740
  24.1769420  30.0603080  20.8552000  24.3101780  31.1744500  21.8714750
  26.3999900  31.5624210  22.2072720  26.6877710  31.3078510  21.3305730
  26.9123120  31.0101570  22.7978290  27.6176910  15.3014410  22.7869230
  26.8348700  15.7759910  23.0665990  27.3239840  14.3969240  22.6782410
  32.1697980  16.0037510  20.8318320  32.6106070  15.9482610  19.9839920
  31.9005570  16.9195520  20.9028500  34.0336550  15.6352750  18.8427140
  33.9724950  14.6913970  18.6958160  34.8128580  15.7432840  19.3880600
  18.3389300  31.7745110  17.8051090  18.1711340  31.1415790  18.5032980
  17.4723810  31.9804510  17.4545280  18.9617320  15.6061890  15.3082950
  19.7196680  15.7190770  14.7346980  18.4994490  16.4431090  15.2626380
  25.5031130  17.7201160  18.2985260  24.6905640  17.3458050  17.9581140
  26.0072770  16.9646240  18.6006450  30.0056110  14.3843610  19.5368330
  30.6085480  14.9563820  20.0116850  29.2649100  14.9483050  19.3142230
  33.1490710  14.7865170  14.8108610  33.3441340  15.6848620  15.0776040
  32.3620580  14.5552250  15.3041560  19.9452000  30.4678340  15.2501230
  19.4199620  30.8486370  14.5463190  19.8696580  31.0929110  15.9710940
  21.3342470  16.1325940  13.8484920  21.8635230  15.3455740  13.7192870
  21.9670790  16.8117130  14.0820450  23.5280310  15.8701080  16.9030310
  22.8983050  15.1688390  17.0700440  22.9885450  16.6305210  16.6863470
  23.6535870  15.1485060  29.3382800  23.3720140  15.6518660  28.5743620
  24.0355570  14.3506810  28.9724930  22.5444970  32.4160720  14.1250480
  23.2763790  32.1320000  13.5774370  22.8038640  32.1774000  15.0149860
  21.7059760  28.5325450  14.1296810  21.0768640  29.0010550  14.6782640
  21.8207590  27.6874670  14.5643000  27.2927520  24.3610130   2.1607280
  26.5169620  23.8810570   2.4505850  27.9440450  23.6815780   1.9863440
  21.3093350  24.6729940   3.0383040  20.4778230  24.4178650   3.4379550
  21.9174330  24.7440710   3.7740960  21.2894610  28.7070030   3.2341060
  21.5922650  27.8167770   3.0551280  22.0338200  29.2640250   3.0063310
  17.6818310  22.2337480   2.7065130  18.2534420  21.4659680   2.7068770
  17.6819850  22.5326240   1.7971740  26.7336510  27.0367320   2.1677440
  26.6644790  26.0957260   2.0066570  27.4956370  27.1268730   2.7400010
  18.9243180  17.6421840   4.4934060  18.7446020  16.7447590   4.7736820
  18.5223260  18.1893710   5.1681010  19.5429850  20.1382340   3.1016400
  20.2239960  20.4020710   3.7203800  19.2277900  19.2983210   3.4354410
  23.7354420  21.1849700   2.1888990  24.2432640  21.6830670   2.8294010
  24.2667660  20.4084900   2.0128350  35.8365350  19.3554890   5.8918340
  35.1317520  19.7436600   5.3733450  36.1023270  20.0505180   6.4939270
  22.0190520  15.8248260   6.4552410  22.0208960  16.3420650   5.6498310
  21.1894830  15.3478440   6.4322340  23.2693370  25.4643440   4.6325910
  22.9362750  26.0912360   5.2746980  23.4460050  25.9905320   3.8527580
  31.7827280  19.2788520   2.1002250  31.0782850  19.5673410   2.6805360
  32.1439440  20.0888630   1.7401810  21.7005850  17.5358220   4.4622860
  22.0422660  18.3800270   4.1676730  20.7621660  17.6841960   4.5788200
  22.4812470  27.4324240   6.4475090  23.0986470  28.1075320   6.1659540
  21.6205590  27.8412220   6.3562590  33.3990060  28.8963650   4.3629730
  32.7153580  29.5662760   4.3546400  33.9384350  29.0944300   3.5974590
  34.8514200  18.7243310   2.4911460  33.9039110  18.7582290   2.6226890
  35.1764190  19.5382260   2.8760820  30.9348800  30.7407780   3.0774910
  30.9475960  30.3370070   2.2097170  30.3824020  31.5155070   2.9736340
  30.3334240  25.6437620   4.4057520  30.7503030  25.4297730   3.5710980
  31.0574060  25.9010410   4.9766140  34.2796340  24.0424840   4.4973760
  33.4514970  24.1117930   4.0223890  34.8746820  24.6279150   4.0289590
  31.2438350  20.8294160   5.4428630  30.8309530  21.6547870   5.6968620
  30.5114300  20.2439200   5.2504990  23.8452840  27.3021620   2.4686510
  23.5481130  26.6967090   1.7894290  24.7952660  27.3398930   2.3575870
  22.0899760  20.3897270   4.0846340  22.6414350  20.4992610   3.3099590
  22.6043270  20.7634870   4.8001570  31.9338450  30.8753490   6.1309610
  31.4569010  31.6825680   5.9382220  31.2500240  30.2231820   6.2835820
  22.9371270  27.0403310   9.1194310  22.0399800  27.2643280   9.3667710
  22.9624140  27.1638250   8.1705710  21.7642490  23.9116630   7.6951680
  21.6250260  24.7839430   8.0639080  20.8823850  23.5689440   7.5499620
  23.5622840  29.8538330   9.9036830  23.5338270  30.2581280   9.0365260
  23.3987810  28.9248690   9.7408430  35.5137660  30.6365430  11.2001000
  35.9897380  31.1148320  11.8790080  36.1344820  30.5682920  10.4746500
  17.7161140  25.6814180   3.6122590  17.7941560  25.8162950   2.6678310
  18.3302820  24.9730070   3.8050710  34.9170910  27.8278280   8.3601010
  35.0433970  27.5890160   7.4418190  34.9592290  26.9962820   8.8323090
  28.7787650  31.5306280   6.9295820  29.2932320  31.4414290   7.7318250
  27.9356730  31.8765980   7.2223730  34.7694920  19.8810740   9.3250750
  34.1539190  20.3890410   8.7966210  34.4491340  18.9809070   9.2676690
  17.7720660  26.7228350   6.1517050  17.9351700  26.2533710   5.3336420
  18.2373110  26.2151910   6.8165890  26.8309240  18.7202630   6.7912940
  26.3688610  18.9285650   7.6032880  26.4287350  17.9061980   6.4883610
  31.8313750  19.9411580   7.9209600  30.9807340  19.6417330   8.2418670
  31.6715540  20.1853590   7.0093420  28.9263460  21.4413330  10.0208390
  29.2516870  20.6077080   9.6810620  29.7143790  21.9641850  10.1686720
  24.5815330  16.3981440   3.0467220  24.8787660  17.3044270   2.9659240
  25.1300890  15.9100220   2.4326790  24.7752860  21.8753260   9.5819140
  24.6796460  20.9347990   9.4319540  25.6184840  22.0968330   9.1867210
  19.9063400  18.2866930   7.7352920  19.5126790  19.1342140   7.9425700
  19.2181800  17.6493300   7.9261560  26.4808450  18.3701900  10.8049660
  25.7906770  18.1774100  11.4395750  27.2240750  18.6536540  11.3373960
  17.2080450  16.2095390   1.7683000  16.9193500  16.7798250   2.4807980
  17.9526210  15.7299840   2.1314230  28.7571420  22.2100340   3.6403580
  28.0252540  22.7187150   3.9893680  28.3595760  21.3930320   3.3392360
  29.2197330  17.6634020   3.0526520  29.2370070  18.1142670   3.8968370
  28.9712910  16.7639660   3.2659960  32.6468080  15.0766200   8.8912900
  32.9713850  14.3455860   9.4170880  32.6824590  14.7579840   7.9893890
  19.3459640  26.0979780   8.3112860  18.9614430  25.4573450   8.9095820
  19.6571830  26.8015900   8.8807590  25.4956780  22.9456320   3.7921480
  25.8626910  22.4714890   4.5382820  25.3061840  23.8197890   4.1329820
  23.2856150  21.9864960   6.1105690  22.9813220  22.8656940   6.3356050
  24.2402610  22.0464750   6.1463130  32.5725920  25.1891310   2.4998930
  33.2925040  25.6846600   2.1095040  32.3707740  24.5109200   1.8552800
  27.9544720  25.2600370   8.3867930  27.8882030  24.3396040   8.1325520
  27.3249860  25.3575810   9.1012570  19.3419880  22.8267700   7.2577050
  18.9834820  23.4921550   7.8450390  19.0474440  21.9951250   7.6289670
  22.5433000  23.2851940  10.1416600  22.2433140  23.4309120   9.2444420
  23.3144240  22.7257230  10.0489990  27.8861450  28.0820940   8.1371730
  27.9005990  27.1501900   7.9190640  27.1786550  28.1680700   8.7761500
  34.0972660  24.7228280   7.4840310  33.3720850  25.3157060   7.2869700
  34.6248120  24.7151820   6.6853680  27.3195350  29.7238510   5.2312230
  27.9637570  29.9297890   5.9085650  27.6824790  28.9626910   4.7783080
  28.5927430  27.7270860   3.9489680  29.2349660  27.0264020   4.0621850
  29.1176780  28.5069300   3.7686570  30.3665050  28.5265760   7.1525740
  30.7021290  29.1132450   7.8303660  29.4465390  28.3958470   7.3823530
  17.9168450  16.3160940   7.9349150  17.2026970  16.5157860   8.5401760
  18.3363490  15.5400510   8.3063950  18.2041040  30.3041200   8.9215680
  18.3132160  29.3635940   8.7811070  17.5521600  30.5695950   8.2729410
  26.1953630  28.5757090  10.3213800  25.8750500  27.8566330  10.8659490
  25.5211990  29.2512160  10.3949860  29.4107230  18.8083250   5.6850600
  29.7788050  17.9878460   6.0130170  28.5505430  18.8685140   6.1006250
  26.3709220  21.4622840   5.9088570  26.8694470  21.9368660   6.5740420
  26.5132170  20.5386360   6.1158600  33.5776080  17.6790800   6.7516960
  33.0749680  18.4196200   7.0910770  34.3932740  18.0674800   6.4353750
  20.3499480  31.3710110  10.7335290  21.1512210  31.6922160  11.1470690
  19.8351300  31.0105690  11.4555200  29.1864110  27.4789980  10.6810700
  28.5802270  27.5021580   9.9406450  28.8818220  26.7473020  11.2177950
  30.6164480  31.2070270   9.2920110  31.5686230  31.1228290   9.2420350
  30.4692700  31.8711980   9.9653900  18.0697290  23.8583570   9.6771340
  18.5736310  23.2790850  10.2487570  17.3304710  24.1423800  10.2147710
  25.1235230  25.2654560   9.2106860  24.3580900  25.8339560   9.1261530
  25.3051190  24.9730770   8.3175090  32.2658580  26.9959890   9.7681880
  33.0068050  27.3335650   9.2649340  31.5031260  27.1651950   9.2151650
  20.1020370  22.0013160  10.5721410  20.1425710  21.7027030  11.4806640
  20.9565870  22.4020770  10.4128930  22.0426180  20.5805260   8.5395900
  21.5122640  20.0896210   7.9119240  22.7114250  21.0089460   8.0053830
  30.9404240  25.0474720   8.3037090  31.3545260  25.2019800   9.1527510
  30.0055240  25.1729940   8.4662870  31.4126410  22.3870880  10.3076240
  31.9947180  21.6323200  10.2196720  31.5888180  22.9178320   9.5307720
  22.5298480  17.5467630   8.6193190  22.4355350  16.9288380   7.8944060
  21.9495870  18.2733920   8.3923100  25.2959920  16.1040870   5.6520580
  24.8477220  16.1265130   4.8066130  24.6625120  15.7059890   6.2490880
  25.7019470  24.9995200   6.2733020  26.1207580  25.8427930   6.1009260
  24.7828100  25.1367240   6.0439800  28.0383370  22.7311380   7.6570860
  28.1579580  22.1352520   8.3965700  28.8977370  22.7681070   7.2372160
  30.3771270  23.2848570   6.2333370  29.8506490  23.8091190   5.6298510
  30.7202610  23.9175960   6.8643100  23.5526890  31.3048210   7.3890750
  23.0147980  32.0294270   7.0699450  23.8060850  30.8278550   6.5988090
  24.8052140  19.2732730   8.9146680  25.3951830  18.9648580   9.6024500
  23.9872380  18.8012480   9.0706580  29.6245570  18.8898540   9.1479700
  28.9361090  18.2280080   9.0829690  30.3451590  18.4436810   9.5928160
  26.4089100  32.5399420   7.6477400  26.3347800  33.4434560   7.9549770
  25.5067940  32.2211320   7.6199470  18.3006600  30.7344600   3.6892650
  17.8637590  30.9145400   4.5216800  18.8684280  31.4919220   3.5474370
  33.9368780  30.2361600   7.9769960  33.3370770  30.2954160   7.2333880
  34.0662680  29.2966580   8.1066810  32.6220420  26.9613580   6.0746120
  31.8080260  27.3910740   6.3371910  33.0294620  27.5731990   5.4615170
  19.1706960  23.6317400   4.5884870  19.5380000  23.5444800   5.4680890
  18.6017780  22.8683950   4.4891730  33.9710820  22.1001780   7.6015340
  33.7396910  21.8714530   6.7013290  34.2315370  23.0201330   7.5560230
  18.7222960  20.5426490   8.4943290  17.8279010  20.5093250   8.8337000
  19.2620510  20.7413280   9.2594540  32.4098890  17.3258210  10.3795040
  33.2869070  17.3341610  10.7629040  32.4219730  16.5889050   9.7687390
  34.0351880  21.2627620   4.7902610  33.0854590  21.2291160   4.9047600
  34.2164890  22.1727730   4.5552380  19.2262670  14.8174820   2.8426510
  19.8738860  14.2672200   2.4021670  19.6464510  15.0717970   3.6642320
  33.1215010  15.0116180   6.1996150  33.7587230  15.6250320   6.5655340
  33.2689900  15.0476840   5.2545380  18.9794670  14.9730490   5.5851830
  18.6309490  15.4294310   6.3510010  18.6482370  14.0787620   5.6674260
  20.5859040  28.1450090   9.7505020  20.5428670  27.7743000  10.6319480
  20.7170050  29.0827660   9.8906840  24.2865070  29.7009680   5.3514740
  24.0456430  29.9684240   4.4645260  25.2267710  29.8715410   5.4065600
  26.4919490  16.1642370   9.1071250  26.4308380  16.7564200   9.8566660
  27.4319870  16.0568330   8.9621510  29.1294050  15.8212430   8.7463540
  29.7434460  16.1391720   8.0844620  29.6743610  15.3361020   9.3659400
  35.5469230  31.7204060   6.1525380  35.0527510  32.1172930   5.4352510
  34.9382520  31.0953270   6.5462660  19.6515310  14.5006690   8.8602600
  20.1998300  14.3194740   8.0968710  19.7170620  13.7100800   9.3958910
  20.4247070  31.0912340   6.8702800  19.8307390  30.9597040   7.6092840
  20.4170910  30.2550480   6.4044900  29.8702090  14.3844570   5.0732830
  28.9961930  14.7179680   4.8705760  29.7612840  13.9117750   5.8984700
  30.7774070  16.5915440   6.4574550  30.4487430  15.7767200   6.0776280
  31.7256370  16.5485250   6.3340240  33.2308680  32.3627480   3.4312120
  32.7711650  33.1143290   3.0570140  32.6021140  31.6433950   3.3726920
  20.0559300  28.4570720   5.8210840  19.3293360  27.8376010   5.7536790
  20.1168450  28.8511330   4.9508920  23.6604400  30.6715720   2.6060250
  24.1769420  30.0603080   2.0808510  24.3101780  31.1744500   3.0971260
  26.3999900  31.5624210   3.4329230  26.6877710  31.3078510   2.5562240
  26.9123120  31.0101570   4.0234800  27.6176910  15.3014410   4.0125740
  26.8348700  15.7759910   4.2922500  27.3239840  14.3969240   3.9038920
  26.4672260  32.4840310  10.7997430  27.3939570  32.2484580  10.8433390
  26.4522690  33.3112310  10.3183460  23.6535870  15.1485060  10.5639310
  23.3720140  15.6518660   9.8000130  24.0355570  14.3506810  10.1981440
  30.2551330  14.5638640  11.1419780  30.1416780  14.8833250  12.0371300
  31.0721070  14.9651150  10.8457060  33.0349820  31.7110170  10.6238470
  33.8275140  31.2159400  10.4164430  33.3282970  32.3900310  11.2314080
  29.1609480   3.8087620  75.3771970  29.0803530   2.8942230  75.1063680
  28.7473900   4.3054690  74.6711680  31.3134950   9.9926830  76.0380370
  30.8516480   9.2214070  76.3667540  32.1260500  10.0192900  76.5432820
  27.5398260  12.2784840  75.6584360  26.9209700  12.7342340  75.0878800
  28.3950040  12.4336300  75.2574060  28.4061610   7.1624080  73.0516270
  27.7878880   7.6273530  72.4878990  28.9184860   7.8551560  73.4685780
  17.7744810   7.8480610  70.4255900  17.3972790   8.3367710  69.6940800
  18.0317880   8.5205890  71.0562430  32.2294220   8.6880510  73.2639040
  32.1190550   7.7454840  73.3888460  32.2262470   9.0496150  74.1501800
  27.7714500   4.3145830  72.6201530  26.8443780   4.2483210  72.8490000
  27.9239320   5.2525960  72.5056770  31.8011790   5.8766130  73.1236780
  31.1824210   5.5385680  72.4763080  31.7836240   5.2325890  73.8315970
  23.3771140   4.8410570  75.4021260  22.9728140   4.1287820  74.9067160
  23.4634260   4.4963810  76.2909300  29.9776490   5.1152940  70.1309530
  30.4169770   4.2775370  69.9847350  30.6904910   5.7482340  70.2173670
  28.0871870  10.0549010  74.0990770  28.5267780  10.7973340  73.6846160
  28.0258760  10.2975580  75.0229730  20.0775770   3.7355550  72.9027910
  19.9573370   4.4617640  72.2909180  19.7676660   2.9658460  72.4255820
  18.9608770   8.6070880  75.1202730  18.5536850   8.7485470  74.2656330
  19.8521780   8.3231040  74.9173940  30.7542050  13.0418130  71.4553780
  30.5943190  12.7521070  72.3535610  30.5888760  12.2658260  70.9199010
  23.2330430  12.8216660  73.2325400  23.0572910  11.9052200  73.0193200
  22.3786170  13.1803950  73.4723200  30.4568180  10.5505690  70.0151780
  29.7633340  10.5482980  69.3554060  31.1991040  10.1265010  69.5845950
  30.0218110  12.1768400  74.0900270  30.4775060  11.3957780  74.4038890
  30.3610630  12.8875220  74.6341450  22.3353650   2.2024190  74.0132830
  22.1094570   1.9861360  74.9179450  21.5546180   2.6352650  73.6678800
  29.5651410   2.2087560  72.6123480  28.9660300   2.9323360  72.4287100
  30.1131020   2.1464340  71.8299930  24.2690460   3.4224270  69.5320090
  23.7007360   2.9742520  68.9056000  24.9779460   3.7817050  68.9985240
  21.8137940   7.4182460  71.8046500  21.0400200   6.8780080  71.6445220
  22.5432570   6.8989070  71.4664260  21.8575340   7.0862840  75.4425310
  22.3754010   6.2831100  75.3882200  21.4059360   7.0241980  76.2842140
  26.7444840   8.3529120  70.7152610  27.0860540   9.0971350  70.2195930
  25.9157550   8.6660240  71.0777440  33.0198520   3.4917270  69.5044300
  32.9362240   3.9231490  68.6540740  33.7392710   3.9515620  69.9371120
  34.0485770  10.3459530  72.2326430  33.4061930   9.6915150  72.5070150
  33.6616430  10.7514620  71.4567100  29.6272250   7.6744960  76.0798120
  29.9796070   7.0773090  75.4199490  28.7434580   7.3489190  76.2506370
  25.7135530   8.4342650  73.4868530  26.4006660   8.9811860  73.8676120
  24.9267950   8.9783380  73.5218140  17.8527930   4.0515470  68.9785610
  18.7222780   4.3340270  69.2621530  17.3618250   4.8651340  68.8634420
  25.0162740   5.4388680  73.0993890  25.4725520   6.2493930  73.3254080
  24.6650950   5.1211820  73.9312380  32.4383150   9.2375990  68.7702780
  32.2120730   8.5206430  69.3627420  32.0479350   8.9888430  67.9324530
  18.2199180  13.2642850  69.5447240  18.5796820  13.8632190  68.8904510
  18.0791520  13.8102740  70.3182270  32.0199400   7.1547930  70.4316940
  31.7321100   7.6160620  71.2194820  32.8151570   6.6945700  70.7001160
  24.2367800  10.6474050  70.3620910  24.2277900  11.3803740  69.7465420
  23.3166160  10.4005630  70.4547870  19.8374440   5.8688940  71.1067670
  19.2302390   6.6087840  71.1162970  20.3123790   5.9588300  70.2805870
  27.2227400  10.7102290  69.0246100  27.3239380  10.5066280  68.0948080
  26.3229140  10.4560570  69.2293880  25.8645510  13.2288610  73.7193770
  26.1187010  13.1910000  72.7973140  24.9157990  13.1021940  73.7122020
  31.8698090   4.1480490  75.2952280  30.9288230   4.1630720  75.4699970
  32.1842160   3.3616450  75.7412580  21.8479730   5.8300090  68.8556240
  22.6143000   5.7181450  69.4181670  21.9254420   5.1338060  68.2033010
  20.5426490   3.2625160  69.5389130  20.6230080   2.3152670  69.6506530
  21.4346240   3.5932040  69.6449790  21.3441200  13.4120550  76.6423670
  22.0803680  12.8636010  76.9132240  21.7282120  14.2776560  76.5029660
  18.2286680   9.4794120  72.5165180  17.3026460   9.7215260  72.5070590
  18.6943110  10.3068380  72.3949930  24.4543510  12.5850860  68.4649240
  25.2472120  12.8739690  68.0131030  23.9347860  12.1543030  67.7861720
  33.5073680  11.8120990  69.8885980  33.2215190  11.3986130  69.0740160
  33.3093230  12.7408700  69.7686500  24.9720910   7.8054270  68.3291590
  24.8671550   7.1906620  69.0552970  24.8045130   7.2820160  67.5454600
  28.2123640   6.8674300  68.9333580  27.6633740   7.3143600  69.5776320
  28.8342900   6.3623550  69.4571250  23.8798760   5.8265220  70.8298880
  24.3015180   5.6605090  71.6730270  24.0049600   5.0165450  70.3354020
  26.3926400   4.8502830  68.0775980  26.9132060   4.1351850  67.7117130
  27.0394800   5.4888700  68.3776490  26.9574430  12.9314440  70.3677720
  27.8525220  13.2699410  70.3896480  26.9892060  12.2093850  69.7402000
  20.5970590   8.3041490  68.5964720  21.0345460   8.8471160  69.2522300
  21.0818320   7.4788440  68.6061060  17.8116390  11.0930520  76.0484980
  18.1419400  10.2251580  75.8163620  18.2407390  11.2989040  76.8789940
  22.4078310   9.4239530  73.7086950  22.1073850   9.3004500  74.6090860
  22.3015800   8.5648120  73.3002680  35.1770230   9.2035930  68.4113630
  34.3463190   9.2712580  68.8820860  35.3542060  10.0940050  68.1080490
  34.6326690   5.9483410  70.9147830  35.3945600   6.5180060  71.0207520
  34.6481060   5.3810610  71.6856140  18.1331030   4.4721340  75.1455490
  17.4779870   4.2032980  74.5015190  18.9708980   4.3625820  74.6957470
  35.6386660   6.8033510  75.7589760  36.0095490   6.0200830  75.3525730
  36.2788590   7.4922610  75.5807060  34.6845860   6.2417780  68.0720350
  34.9594700   7.1496660  67.9439570  34.4956600   6.1780310  69.0082340
  34.5811200   4.1786770  73.0649780  34.2054800   3.4114700  72.6331070
  33.8514320   4.5609470  73.5524710  33.8562160   2.4044260  76.3657020
  34.3799640   1.9106910  75.7347190  34.4421580   2.5394620  77.1104590
  32.6796470  12.9388690  74.6988350  33.2755540  12.6173260  74.0222770
  32.9374620  12.4660510  75.4901620  18.3389300  13.0001620  74.1281560
  18.1711340  12.3672300  74.8263450  17.4723810  13.2061020  73.7775750
  19.9452000  11.6934850  71.5731700  19.4199620  12.0742880  70.8693660
  19.8696580  12.3185620  72.2941410  34.7017320  13.2522390  72.8945640
  34.8769510  12.5660130  72.2506560  34.0038890  13.7769440  72.5022310
  22.5444970  13.6417230  70.4480950  23.2763790  13.3576510  69.9004840
  22.8038640  13.4030510  71.3380330  21.7059760   9.7581960  70.4527280
  21.0768640  10.2267060  71.0013110  21.8207590   8.9131180  70.8873470
  29.1609480   3.8087620  56.6028480  29.0803530   2.8942230  56.3320190
  28.7473900   4.3054690  55.8968190  27.2927520   5.5866640  58.4837750
  26.5169620   5.1067080  58.7736320  27.9440450   4.9072290  58.3093910
  21.3093350   5.8986450  59.3613510  20.4778230   5.6435160  59.7610020
  21.9174330   5.9697220  60.0971430  31.3134950   9.9926830  57.2636880
  30.8516480   9.2214070  57.5924050  32.1260500  10.0192900  57.7689330
  21.2894610   9.9326540  59.5571530  21.5922650   9.0424280  59.3781750
  22.0338200  10.4896760  59.3293780  17.6818310   3.4593990  59.0295600
  18.2534420   2.6916190  59.0299240  17.6819850   3.7582750  58.1202210
  27.5398260  12.2784840  56.8840870  26.9209700  12.7342340  56.3135310
  28.3950040  12.4336300  56.4830570  26.7336510   8.2623830  58.4907910
  26.6644790   7.3213770  58.3297040  27.4956370   8.3525240  59.0630480
  28.4061610   7.1624080  54.2772780  27.7878880   7.6273530  53.7135500
  28.9184860   7.8551560  54.6942290  23.2693370   6.6899950  60.9556380
  22.9362750   7.3168870  61.5977450  23.4460050   7.2161830  60.1758050
  22.4812470   8.6580750  62.7705560  23.0986470   9.3331830  62.4890010
  21.6205590   9.0668730  62.6793060  17.7744810   7.8480610  51.6512410
  17.3972790   8.3367710  50.9197310  18.0317880   8.5205890  52.2818940
  33.3990060  10.1220160  60.6860200  32.7153580  10.7919270  60.6776870
  33.9384350  10.3200810  59.9205060  30.9348800  11.9664290  59.4005380
  30.9475960  11.5626580  58.5327640  30.3824020  12.7411580  59.2966810
  32.2294220   8.6880510  54.4895550  32.1190550   7.7454840  54.6144970
  32.2262470   9.0496150  55.3758310  30.3334240   6.8694130  60.7287990
  30.7503030   6.6554240  59.8941450  31.0574060   7.1266920  61.2996610
  27.7714500   4.3145830  53.8458040  26.8443780   4.2483210  54.0746510
  27.9239320   5.2525960  53.7313280  34.2796340   5.2681350  60.8204230
  33.4514970   5.3374440  60.3454360  34.8746820   5.8535660  60.3520060
  31.8011790   5.8766130  54.3493290  31.1824210   5.5385680  53.7019590
  31.7836240   5.2325890  55.0572480  23.3771140   4.8410570  56.6277770
  22.9728140   4.1287820  56.1323670  23.4634260   4.4963810  57.5165810
  23.8452840   8.5278130  58.7916980  23.5481130   7.9223600  58.1124760
  24.7952660   8.5655440  58.6806340  31.9338450  12.1010000  62.4540080
  31.4569010  12.9082190  62.2612690  31.2500240  11.4488330  62.6066290
  22.9371270   8.2659820  65.4424780  22.0399800   8.4899790  65.6898180
  22.9624140   8.3894760  64.4936180  29.9776490   5.1152940  51.3566040
  30.4169770   4.2775370  51.2103860  30.6904910   5.7482340  51.4430180
  21.7642490   5.1373140  64.0182150  21.6250260   6.0095940  64.3869550
  20.8823850   4.7945950  63.8730090  28.0871870  10.0549010  55.3247280
  28.5267780  10.7973340  54.9102670  28.0258760  10.2975580  56.2486240
  23.5622840  11.0794840  66.2267300  23.5338270  11.4837790  65.3595730
  23.3987810  10.1505200  66.0638900  20.0775770   3.7355550  54.1284420
  19.9573370   4.4617640  53.5165690  19.7676660   2.9658460  53.6512330
  35.5137660  11.8621940  67.5231470  35.9897380  12.3404830  68.2020550
  36.1344820  11.7939430  66.7976970  17.7161140   6.9070690  59.9353060
  17.7941560   7.0419460  58.9908780  18.3302820   6.1986580  60.1281180
  18.9608770   8.6070880  56.3459240  18.5536850   8.7485470  55.4912840
  19.8521780   8.3231040  56.1430450  34.9170910   9.0534790  64.6831480
  35.0433970   8.8146670  63.7648660  34.9592290   8.2219330  65.1553560
  28.7787650  12.7562790  63.2526290  29.2932320  12.6670800  64.0548720
  27.9356730  13.1022490  63.5454200  30.7542050  13.0418130  52.6810290
  30.5943190  12.7521070  53.5792120  30.5888760  12.2658260  52.1455520
  23.2330430  12.8216660  54.4581910  23.0572910  11.9052200  54.2449710
  22.3786170  13.1803950  54.6979710  30.4568180  10.5505690  51.2408290
  29.7633340  10.5482980  50.5810570  31.1991040  10.1265010  50.8102460
  30.0218110  12.1768400  55.3156780  30.4775060  11.3957780  55.6295400
  30.3610630  12.8875220  55.8597960  17.7720660   7.9484860  62.4747520
  17.9351700   7.4790220  61.6566890  18.2373110   7.4408420  63.1396360
  28.9263460   2.6669840  66.3438860  29.2516870   1.8333590  66.0041090
  29.7143790   3.1898360  66.4917190  22.3353650   2.2024190  55.2389340
  22.1094570   1.9861360  56.1435960  21.5546180   2.6352650  54.8935310
  29.5651410   2.2087560  53.8379990  28.9660300   2.9323360  53.6543610
  30.1131020   2.1464340  53.0556440  24.7752860   3.1009770  65.9049610
  24.6796460   2.1604500  65.7550010  25.6184840   3.3224840  65.5097680
  28.7571420   3.4356850  59.9634050  28.0252540   3.9443660  60.3124150
  28.3595760   2.6186830  59.6622830  24.2690460   3.4224270  50.7576600
  23.7007360   2.9742520  50.1312510  24.9779460   3.7817050  50.2241750
  19.3459640   7.3236290  64.6343330  18.9614430   6.6829960  65.2326290
  19.6571830   8.0272410  65.2038060  25.4956780   4.1712830  60.1151950
  25.8626910   3.6971400  60.8613290  25.3061840   5.0454400  60.4560290
  23.2856150   3.2121470  62.4336160  22.9813220   4.0913450  62.6586520
  24.2402610   3.2721260  62.4693600  21.8137940   7.4182460  53.0303010
  21.0400200   6.8780080  52.8701730  22.5432570   6.8989070  52.6920770
  32.5725920   6.4147820  58.8229400  33.2925040   6.9103110  58.4325510
  32.3707740   5.7365710  58.1783270  27.9544720   6.4856880  64.7098400
  27.8882030   5.5652550  64.4555990  27.3249860   6.5832320  65.4243040
  21.8575340   7.0862840  56.6681820  22.3754010   6.2831100  56.6138710
  21.4059360   7.0241980  57.5098650  26.7444840   8.3529120  51.9409120
  27.0860540   9.0971350  51.4452440  25.9157550   8.6660240  52.3033950
  19.3419880   4.0524210  63.5807520  18.9834820   4.7178060  64.1680860
  19.0474440   3.2207760  63.9520140  22.5433000   4.5108450  66.4647070
  22.2433140   4.6565630  65.5674890  23.3144240   3.9513740  66.3720460
  27.8861450   9.3077450  64.4602200  27.9005990   8.3758410  64.2421110
  27.1786550   9.3937210  65.0991970  33.0198520   3.4917270  50.7300810
  32.9362240   3.9231490  49.8797250  33.7392710   3.9515620  51.1627630
  34.0972660   5.9484790  63.8070780  33.3720850   6.5413570  63.6100170
  34.6248120   5.9408330  63.0084150  34.0485770  10.3459530  53.4582940
  33.4061930   9.6915150  53.7326660  33.6616430  10.7514620  52.6823610
  29.6272250   7.6744960  57.3054630  29.9796070   7.0773090  56.6456000
  28.7434580   7.3489190  57.4762880  25.7135530   8.4342650  54.7125040
  26.4006660   8.9811860  55.0932630  24.9267950   8.9783380  54.7474650
  17.8527930   4.0515470  50.2042120  18.7222780   4.3340270  50.4878040
  17.3618250   4.8651340  50.0890930  25.0162740   5.4388680  54.3250400
  25.4725520   6.2493930  54.5510590  24.6650950   5.1211820  55.1568890
  27.3195350  10.9495020  61.5542700  27.9637570  11.1554400  62.2316120
  27.6824790  10.1883420  61.1013550  28.5927430   8.9527370  60.2720150
  29.2349660   8.2520530  60.3852320  29.1176780   9.7325810  60.0917040
  32.4383150   9.2375990  49.9959290  32.2120730   8.5206430  50.5883930
  32.0479350   8.9888430  49.1581040  30.3665050   9.7522270  63.4756210
  30.7021290  10.3388960  64.1534130  29.4465390   9.6214980  63.7054000
  18.2199180  13.2642850  50.7703750  18.5796820  13.8632190  50.1161020
  18.0791520  13.8102740  51.5438780  32.0199400   7.1547930  51.6573450
  31.7321100   7.6160620  52.4451330  32.8151570   6.6945700  51.9257670
  18.2041040  11.5297710  65.2446150  18.3132160  10.5892450  65.1041540
  17.5521600  11.7952460  64.5959880  26.1953630   9.8013600  66.6444270
  25.8750500   9.0822840  67.1889960  25.5211990  10.4768670  66.7180330
  24.2367800  10.6474050  51.5877420  24.2277900  11.3803740  50.9721930
  23.3166160  10.4005630  51.6804380  19.8374440   5.8688940  52.3324180
  19.2302390   6.6087840  52.3419480  20.3123790   5.9588300  51.5062380
  27.2227400  10.7102290  50.2502610  27.3239380  10.5066280  49.3204590
  26.3229140  10.4560570  50.4550390  26.3709220   2.6879350  62.2319040
  26.8694470   3.1625170  62.8970890  26.5132170   1.7642870  62.4389070
  25.8645510  13.2288610  54.9450280  26.1187010  13.1910000  54.0229650
  24.9157990  13.1021940  54.9378530  31.8698090   4.1480490  56.5208790
  30.9288230   4.1630720  56.6956480  32.1842160   3.3616450  56.9669090
  21.8479730   5.8300090  50.0812750  22.6143000   5.7181450  50.6438180
  21.9254420   5.1338060  49.4289520  20.5426490   3.2625160  50.7645640
  20.6230080   2.3152670  50.8763040  21.4346240   3.5932040  50.8706300
  33.8723670  11.3189340  58.1963050  33.9971090  12.1420510  58.6686860
  34.7389230  11.1080070  57.8487200  21.3441200  13.4120550  57.8680180
  22.0803680  12.8636010  58.1388750  21.7282120  14.2776560  57.7286170
  18.2286680   9.4794120  53.7421690  17.3026460   9.7215260  53.7327100
  18.6943110  10.3068380  53.6206440  20.3499480  12.5966620  67.0565760
  21.1512210  12.9178670  67.4701160  19.8351300  12.2362200  67.7785670
  24.4543510  12.5850860  49.6905750  25.2472120  12.8739690  49.2387540
  23.9347860  12.1543030  49.0118230  29.1864110   8.7046490  67.0041170
  28.5802270   8.7278090  66.2636920  28.8818220   7.9729530  67.5408420
  30.6164480  12.4326780  65.6150580  31.5686230  12.3484800  65.5650820
  30.4692700  13.0968490  66.2884370  33.5073680  11.8120990  51.1142490
  33.2215190  11.3986130  50.2996670  33.3093230  12.7408700  50.9943010
  18.0697290   5.0840080  66.0001810  18.5736310   4.5047360  66.5718040
  17.3304710   5.3680310  66.5378180  24.9720910   7.8054270  49.5548100
  24.8671550   7.1906620  50.2809480  24.8045130   7.2820160  48.7711110
  25.1235230   6.4911070  65.5337330  24.3580900   7.0596070  65.4492000
  25.3051190   6.1987280  64.6405560  28.2123640   6.8674300  50.1590090
  27.6633740   7.3143600  50.8032830  28.8342900   6.3623550  50.6827760
  32.2658580   8.2216400  66.0912350  33.0068050   8.5592160  65.5879810
  31.5031260   8.3908460  65.5382120  20.1020370   3.2269670  66.8951880
  20.1425710   2.9283540  67.8037110  20.9565870   3.6277280  66.7359400
  23.8798760   5.8265220  52.0555390  24.3015180   5.6605090  52.8986780
  24.0049600   5.0165450  51.5610530  26.3926400   4.8502830  49.3032490
  26.9132060   4.1351850  48.9373640  27.0394800   5.4888700  49.6033000
  30.9404240   6.2731230  64.6267560  31.3545260   6.4276310  65.4757980
  30.0055240   6.3986450  64.7893340  31.4126410   3.6127390  66.6306710
  31.9947180   2.8579710  66.5427190  31.5888180   4.1434830  65.8538190
  25.7019470   6.2251710  62.5963490  26.1207580   7.0684440  62.4239730
  24.7828100   6.3623750  62.3670270  28.0383370   3.9567890  63.9801330
  28.1579580   3.3609030  64.7196170  28.8977370   3.9937580  63.5602630
  30.3771270   4.5105080  62.5563840  29.8506490   5.0347700  61.9528980
  30.7202610   5.1432470  63.1873570  23.5526890  12.5304720  63.7121220
  23.0147980  13.2550780  63.3929920  23.8060850  12.0535060  62.9218560
  26.4089100  13.7655930  63.9707870  26.3347800  14.6691070  64.2780240
  25.5067940  13.4467830  63.9429940  26.9574430  12.9314440  51.5934230
  27.8525220  13.2699410  51.6152990  26.9892060  12.2093850  50.9658510
  20.5970590   8.3041490  49.8221230  21.0345460   8.8471160  50.4778810
  21.0818320   7.4788440  49.8317570  17.8116390  11.0930520  57.2741490
  18.1419400  10.2251580  57.0420130  18.2407390  11.2989040  58.1046450
  22.4078310   9.4239530  54.9343460  22.1073850   9.3004500  55.8347370
  22.3015800   8.5648120  54.5259190  18.3006600  11.9601110  60.0123120
  17.8637590  12.1401910  60.8447270  18.8684280  12.7175730  59.8704840
  33.9368780  11.4618110  64.3000430  33.3370770  11.5210670  63.5564350
  34.0662680  10.5223090  64.4297280  35.1770230   9.2035930  49.6370140
  34.3463190   9.2712580  50.1077370  35.3542060  10.0940050  49.3337000
  34.6326690   5.9483410  52.1404340  35.3945600   6.5180060  52.2464030
  34.6481060   5.3810610  52.9112650  18.1331030   4.4721340  56.3712000
  17.4779870   4.2032980  55.7271700  18.9708980   4.3625820  55.9213980
  35.6386660   6.8033510  56.9846270  36.0095490   6.0200830  56.5782240
  36.2788590   7.4922610  56.8063570  32.6220420   8.1870090  62.3976590
  31.8080260   8.6167250  62.6602380  33.0294620   8.7988500  61.7845640
  34.6845860   6.2417780  49.2976860  34.9594700   7.1496660  49.1696080
  34.4956600   6.1780310  50.2338850  34.5811200   4.1786770  54.2906290
  34.2054800   3.4114700  53.8587580  33.8514320   4.5609470  54.7781220
  19.1706960   4.8573910  60.9115340  19.5380000   4.7701310  61.7911360
  18.6017780   4.0940460  60.8122200  33.9710820   3.3258290  63.9245810
  33.7396910   3.0971040  63.0243760  34.2315370   4.2457840  63.8790700
  18.7222960   1.7683000  64.8173760  17.8279010   1.7349760  65.1567470
  19.2620510   1.9669790  65.5825010  33.8562160   2.4044260  57.5913530
  34.3799640   1.9106910  56.9603700  34.4421580   2.5394620  58.3361100
  34.0351880   2.4884130  61.1133080  33.0854590   2.4547670  61.2278070
  34.2164890   3.3984240  60.8782850  32.6796470  12.9388690  55.9244860
  33.2755540  12.6173260  55.2479280  32.9374620  12.4660510  56.7158130
  20.5859040   9.3706600  66.0735490  20.5428670   8.9999510  66.9549950
  20.7170050  10.3084170  66.2137310  24.2865070  10.9266190  61.6745210
  24.0456430  11.1940750  60.7875730  25.2267710  11.0971920  61.7296070
  35.5469230  12.9460570  62.4755850  35.0527510  13.3429440  61.7582980
  34.9382520  12.3209780  62.8693130  20.4247070  12.3168850  63.1933270
  19.8307390  12.1853550  63.9323310  20.4170910  11.4806990  62.7275370
  33.2308680  13.5883990  59.7542590  32.7711650  14.3399800  59.3800610
  32.6021140  12.8690460  59.6957390  20.0559300   9.6827230  62.1441310
  19.3293360   9.0632520  62.0767260  20.1168450  10.0767840  61.2739390
  23.6604400  11.8972230  58.9290720  24.1769420  11.2859590  58.4038980
  24.3101780  12.4001010  59.4201730  26.3999900  12.7880720  59.7559700
  26.6877710  12.5335020  58.8792710  26.9123120  12.2358080  60.3465270
  18.3389300  13.0001620  55.3538070  18.1711340  12.3672300  56.0519960
  17.4723810  13.2061020  55.0032260  19.9452000  11.6934850  52.7988210
  19.4199620  12.0742880  52.0950170  19.8696580  12.3185620  53.5197920
  26.4672260  13.7096820  67.1227900  27.3939570  13.4741090  67.1663860
  26.4522690  14.5368820  66.6413930  34.7017320  13.2522390  54.1202150
  34.8769510  12.5660130  53.4763070  34.0038890  13.7769440  53.7278820
  22.5444970  13.6417230  51.6737460  23.2763790  13.3576510  51.1261350
  22.8038640  13.4030510  52.5636840  21.7059760   9.7581960  51.6783790
  21.0768640  10.2267060  52.2269620  21.8207590   8.9131180  52.1129980
  33.0349820  12.9366680  66.9468940  33.8275140  12.4415910  66.7394900
  33.3282970  13.6156820  67.5544550  29.1609480   3.8087620  37.8284990
  29.0803530   2.8942230  37.5576700  28.7473900   4.3054690  37.1224700
  27.2927520   5.5866640  39.7094260  26.5169620   5.1067080  39.9992830
  27.9440450   4.9072290  39.5350420  21.3093350   5.8986450  40.5870020
  20.4778230   5.6435160  40.9866530  21.9174330   5.9697220  41.3227940
  31.3134950   9.9926830  38.4893390  30.8516480   9.2214070  38.8180560
  32.1260500  10.0192900  38.9945840  21.2894610   9.9326540  40.7828040
  21.5922650   9.0424280  40.6038260  22.0338200  10.4896760  40.5550290
  17.6818310   3.4593990  40.2552110  18.2534420   2.6916190  40.2555750
  17.6819850   3.7582750  39.3458720  27.5398260  12.2784840  38.1097380
  26.9209700  12.7342340  37.5391820  28.3950040  12.4336300  37.7087080
  26.7336510   8.2623830  39.7164420  26.6644790   7.3213770  39.5553550
  27.4956370   8.3525240  40.2886990  28.4061610   7.1624080  35.5029290
  27.7878880   7.6273530  34.9392010  28.9184860   7.8551560  35.9198800
  23.2693370   6.6899950  42.1812890  22.9362750   7.3168870  42.8233960
  23.4460050   7.2161830  41.4014560  22.4812470   8.6580750  43.9962070
  23.0986470   9.3331830  43.7146520  21.6205590   9.0668730  43.9049570
  17.7744810   7.8480610  32.8768920  17.3972790   8.3367710  32.1453820
  18.0317880   8.5205890  33.5075450  33.3990060  10.1220160  41.9116710
  32.7153580  10.7919270  41.9033380  33.9384350  10.3200810  41.1461570
  30.9348800  11.9664290  40.6261890  30.9475960  11.5626580  39.7584150
  30.3824020  12.7411580  40.5223320  32.2294220   8.6880510  35.7152060
  32.1190550   7.7454840  35.8401480  32.2262470   9.0496150  36.6014820
  30.3334240   6.8694130  41.9544500  30.7503030   6.6554240  41.1197960
  31.0574060   7.1266920  42.5253120  27.7714500   4.3145830  35.0714550
  26.8443780   4.2483210  35.3003020  27.9239320   5.2525960  34.9569790
  34.2796340   5.2681350  42.0460740  33.4514970   5.3374440  41.5710870
  34.8746820   5.8535660  41.5776570  31.8011790   5.8766130  35.5749800
  31.1824210   5.5385680  34.9276100  31.7836240   5.2325890  36.2828990
  23.3771140   4.8410570  37.8534280  22.9728140   4.1287820  37.3580180
  23.4634260   4.4963810  38.7422320  23.8452840   8.5278130  40.0173490
  23.5481130   7.9223600  39.3381270  24.7952660   8.5655440  39.9062850
  31.9338450  12.1010000  43.6796590  31.4569010  12.9082190  43.4869200
  31.2500240  11.4488330  43.8322800  22.9371270   8.2659820  46.6681290
  22.0399800   8.4899790  46.9154690  22.9624140   8.3894760  45.7192690
  29.9776490   5.1152940  32.5822550  30.4169770   4.2775370  32.4360370
  30.6904910   5.7482340  32.6686690  21.7642490   5.1373140  45.2438660
  21.6250260   6.0095940  45.6126060  20.8823850   4.7945950  45.0986600
  28.0871870  10.0549010  36.5503790  28.5267780  10.7973340  36.1359180
  28.0258760  10.2975580  37.4742750  23.5622840  11.0794840  47.4523810
  23.5338270  11.4837790  46.5852240  23.3987810  10.1505200  47.2895410
  20.0775770   3.7355550  35.3540930  19.9573370   4.4617640  34.7422200
  19.7676660   2.9658460  34.8768840  35.5137660  11.8621940  48.7487980
  35.9897380  12.3404830  49.4277060  36.1344820  11.7939430  48.0233480
  17.7161140   6.9070690  41.1609570  17.7941560   7.0419460  40.2165290
  18.3302820   6.1986580  41.3537690  18.9608770   8.6070880  37.5715750
  18.5536850   8.7485470  36.7169350  19.8521780   8.3231040  37.3686960
  34.9170910   9.0534790  45.9087990  35.0433970   8.8146670  44.9905170
  34.9592290   8.2219330  46.3810070  28.7787650  12.7562790  44.4782800
  29.2932320  12.6670800  45.2805230  27.9356730  13.1022490  44.7710710
  30.7542050  13.0418130  33.9066800  30.5943190  12.7521070  34.8048630
  30.5888760  12.2658260  33.3712030  23.2330430  12.8216660  35.6838420
  23.0572910  11.9052200  35.4706220  22.3786170  13.1803950  35.9236220
  30.4568180  10.5505690  32.4664800  29.7633340  10.5482980  31.8067080
  31.1991040  10.1265010  32.0358970  30.0218110  12.1768400  36.5413290
  30.4775060  11.3957780  36.8551910  30.3610630  12.8875220  37.0854470
  17.7720660   7.9484860  43.7004030  17.9351700   7.4790220  42.8823400
  18.2373110   7.4408420  44.3652870  28.9263460   2.6669840  47.5695370
  29.2516870   1.8333590  47.2297600  29.7143790   3.1898360  47.7173700
  22.3353650   2.2024190  36.4645850  22.1094570   1.9861360  37.3692470
  21.5546180   2.6352650  36.1191820  29.5651410   2.2087560  35.0636500
  28.9660300   2.9323360  34.8800120  30.1131020   2.1464340  34.2812950
  24.7752860   3.1009770  47.1306120  24.6796460   2.1604500  46.9806520
  25.6184840   3.3224840  46.7354190  28.7571420   3.4356850  41.1890560
  28.0252540   3.9443660  41.5380660  28.3595760   2.6186830  40.8879340
  24.2690460   3.4224270  31.9833110  23.7007360   2.9742520  31.3569020
  24.9779460   3.7817050  31.4498260  19.3459640   7.3236290  45.8599840
  18.9614430   6.6829960  46.4582800  19.6571830   8.0272410  46.4294570
  25.4956780   4.1712830  41.3408460  25.8626910   3.6971400  42.0869800
  25.3061840   5.0454400  41.6816800  23.2856150   3.2121470  43.6592670
  22.9813220   4.0913450  43.8843030  24.2402610   3.2721260  43.6950110
  21.8137940   7.4182460  34.2559520  21.0400200   6.8780080  34.0958240
  22.5432570   6.8989070  33.9177280  32.5725920   6.4147820  40.0485910
  33.2925040   6.9103110  39.6582020  32.3707740   5.7365710  39.4039780
  27.9544720   6.4856880  45.9354910  27.8882030   5.5652550  45.6812500
  27.3249860   6.5832320  46.6499550  21.8575340   7.0862840  37.8938330
  22.3754010   6.2831100  37.8395220  21.4059360   7.0241980  38.7355160
  26.7444840   8.3529120  33.1665630  27.0860540   9.0971350  32.6708950
  25.9157550   8.6660240  33.5290460  19.3419880   4.0524210  44.8064030
  18.9834820   4.7178060  45.3937370  19.0474440   3.2207760  45.1776650
  22.5433000   4.5108450  47.6903580  22.2433140   4.6565630  46.7931400
  23.3144240   3.9513740  47.5976970  27.8861450   9.3077450  45.6858710
  27.9005990   8.3758410  45.4677620  27.1786550   9.3937210  46.3248480
  33.0198520   3.4917270  31.9557320  32.9362240   3.9231490  31.1053760
  33.7392710   3.9515620  32.3884140  34.0972660   5.9484790  45.0327290
  33.3720850   6.5413570  44.8356680  34.6248120   5.9408330  44.2340660
  34.0485770  10.3459530  34.6839450  33.4061930   9.6915150  34.9583170
  33.6616430  10.7514620  33.9080120  29.6272250   7.6744960  38.5311140
  29.9796070   7.0773090  37.8712510  28.7434580   7.3489190  38.7019390
  25.7135530   8.4342650  35.9381550  26.4006660   8.9811860  36.3189140
  24.9267950   8.9783380  35.9731160  17.8527930   4.0515470  31.4298630
  18.7222780   4.3340270  31.7134550  17.3618250   4.8651340  31.3147440
  25.0162740   5.4388680  35.5506910  25.4725520   6.2493930  35.7767100
  24.6650950   5.1211820  36.3825400  27.3195350  10.9495020  42.7799210
  27.9637570  11.1554400  43.4572630  27.6824790  10.1883420  42.3270060
  28.5927430   8.9527370  41.4976660  29.2349660   8.2520530  41.6108830
  29.1176780   9.7325810  41.3173550  32.4383150   9.2375990  31.2215800
  32.2120730   8.5206430  31.8140440  32.0479350   8.9888430  30.3837550
  30.3665050   9.7522270  44.7012720  30.7021290  10.3388960  45.3790640
  29.4465390   9.6214980  44.9310510  18.2199180  13.2642850  31.9960260
  18.5796820  13.8632190  31.3417530  18.0791520  13.8102740  32.7695290
  32.0199400   7.1547930  32.8829960  31.7321100   7.6160620  33.6707840
  32.8151570   6.6945700  33.1514180  18.2041040  11.5297710  46.4702660
  18.3132160  10.5892450  46.3298050  17.5521600  11.7952460  45.8216390
  26.1953630   9.8013600  47.8700780  25.8750500   9.0822840  48.4146470
  25.5211990  10.4768670  47.9436840  24.2367800  10.6474050  32.8133930
  24.2277900  11.3803740  32.1978440  23.3166160  10.4005630  32.9060890
  19.8374440   5.8688940  33.5580690  19.2302390   6.6087840  33.5675990
  20.3123790   5.9588300  32.7318890  27.2227400  10.7102290  31.4759120
  27.3239380  10.5066280  30.5461100  26.3229140  10.4560570  31.6806900
  26.3709220   2.6879350  43.4575550  26.8694470   3.1625170  44.1227400
  26.5132170   1.7642870  43.6645580  25.8645510  13.2288610  36.1706790
  26.1187010  13.1910000  35.2486160  24.9157990  13.1021940  36.1635040
  31.8698090   4.1480490  37.7465300  30.9288230   4.1630720  37.9212990
  32.1842160   3.3616450  38.1925600  21.8479730   5.8300090  31.3069260
  22.6143000   5.7181450  31.8694690  21.9254420   5.1338060  30.6546030
  20.5426490   3.2625160  31.9902150  20.6230080   2.3152670  32.1019550
  21.4346240   3.5932040  32.0962810  33.8723670  11.3189340  39.4219560
  33.9971090  12.1420510  39.8943370  34.7389230  11.1080070  39.0743710
  21.3441200  13.4120550  39.0936690  22.0803680  12.8636010  39.3645260
  21.7282120  14.2776560  38.9542680  18.2286680   9.4794120  34.9678200
  17.3026460   9.7215260  34.9583610  18.6943110  10.3068380  34.8462950
  20.3499480  12.5966620  48.2822270  21.1512210  12.9178670  48.6957670
  19.8351300  12.2362200  49.0042180  24.4543510  12.5850860  30.9162260
  25.2472120  12.8739690  30.4644050  23.9347860  12.1543030  30.2374740
  29.1864110   8.7046490  48.2297680  28.5802270   8.7278090  47.4893430
  28.8818220   7.9729530  48.7664930  30.6164480  12.4326780  46.8407090
  31.5686230  12.3484800  46.7907330  30.4692700  13.0968490  47.5140880
  33.5073680  11.8120990  32.3399000  33.2215190  11.3986130  31.5253180
  33.3093230  12.7408700  32.2199520  18.0697290   5.0840080  47.2258320
  18.5736310   4.5047360  47.7974550  17.3304710   5.3680310  47.7634690
  24.9720910   7.8054270  30.7804610  24.8671550   7.1906620  31.5065990
  24.8045130   7.2820160  29.9967620  25.1235230   6.4911070  46.7593840
  24.3580900   7.0596070  46.6748510  25.3051190   6.1987280  45.8662070
  28.2123640   6.8674300  31.3846600  27.6633740   7.3143600  32.0289340
  28.8342900   6.3623550  31.9084270  32.2658580   8.2216400  47.3168860
  33.0068050   8.5592160  46.8136320  31.5031260   8.3908460  46.7638630
  20.1020370   3.2269670  48.1208390  20.1425710   2.9283540  49.0293620
  20.9565870   3.6277280  47.9615910  23.8798760   5.8265220  33.2811900
  24.3015180   5.6605090  34.1243290  24.0049600   5.0165450  32.7867040
  26.3926400   4.8502830  30.5289000  26.9132060   4.1351850  30.1630150
  27.0394800   5.4888700  30.8289510  30.9404240   6.2731230  45.8524070
  31.3545260   6.4276310  46.7014490  30.0055240   6.3986450  46.0149850
  31.4126410   3.6127390  47.8563220  31.9947180   2.8579710  47.7683700
  31.5888180   4.1434830  47.0794700  25.7019470   6.2251710  43.8220000
  26.1207580   7.0684440  43.6496240  24.7828100   6.3623750  43.5926780
  28.0383370   3.9567890  45.2057840  28.1579580   3.3609030  45.9452680
  28.8977370   3.9937580  44.7859140  30.3771270   4.5105080  43.7820350
  29.8506490   5.0347700  43.1785490  30.7202610   5.1432470  44.4130080
  23.5526890  12.5304720  44.9377730  23.0147980  13.2550780  44.6186430
  23.8060850  12.0535060  44.1475070  26.4089100  13.7655930  45.1964380
  26.3347800  14.6691070  45.5036750  25.5067940  13.4467830  45.1686450
  26.9574430  12.9314440  32.8190740  27.8525220  13.2699410  32.8409500
  26.9892060  12.2093850  32.1915020  20.5970590   8.3041490  31.0477740
  21.0345460   8.8471160  31.7035320  21.0818320   7.4788440  31.0574080
  17.8116390  11.0930520  38.4998000  18.1419400  10.2251580  38.2676640
  18.2407390  11.2989040  39.3302960  22.4078310   9.4239530  36.1599970
  22.1073850   9.3004500  37.0603880  22.3015800   8.5648120  35.7515700
  18.3006600  11.9601110  41.2379630  17.8637590  12.1401910  42.0703780
  18.8684280  12.7175730  41.0961350  33.9368780  11.4618110  45.5256940
  33.3370770  11.5210670  44.7820860  34.0662680  10.5223090  45.6553790
  35.1770230   9.2035930  30.8626650  34.3463190   9.2712580  31.3333880
  35.3542060  10.0940050  30.5593510  34.6326690   5.9483410  33.3660850
  35.3945600   6.5180060  33.4720540  34.6481060   5.3810610  34.1369160
  18.1331030   4.4721340  37.5968510  17.4779870   4.2032980  36.9528210
  18.9708980   4.3625820  37.1470490  35.6386660   6.8033510  38.2102780
  36.0095490   6.0200830  37.8038750  36.2788590   7.4922610  38.0320080
  32.6220420   8.1870090  43.6233100  31.8080260   8.6167250  43.8858890
  33.0294620   8.7988500  43.0102150  34.6845860   6.2417780  30.5233370
  34.9594700   7.1496660  30.3952590  34.4956600   6.1780310  31.4595360
  34.5811200   4.1786770  35.5162800  34.2054800   3.4114700  35.0844090
  33.8514320   4.5609470  36.0037730  19.1706960   4.8573910  42.1371850
  19.5380000   4.7701310  43.0167870  18.6017780   4.0940460  42.0378710
  33.9710820   3.3258290  45.1502320  33.7396910   3.0971040  44.2500270
  34.2315370   4.2457840  45.1047210  18.7222960   1.7683000  46.0430270
  17.8279010   1.7349760  46.3823980  19.2620510   1.9669790  46.8081520
  33.8562160   2.4044260  38.8170040  34.3799640   1.9106910  38.1860210
  34.4421580   2.5394620  39.5617610  34.0351880   2.4884130  42.3389590
  33.0854590   2.4547670  42.4534580  34.2164890   3.3984240  42.1039360
  32.6796470  12.9388690  37.1501370  33.2755540  12.6173260  36.4735790
  32.9374620  12.4660510  37.9414640  20.5859040   9.3706600  47.2992000
  20.5428670   8.9999510  48.1806460  20.7170050  10.3084170  47.4393820
  24.2865070  10.9266190  42.9001720  24.0456430  11.1940750  42.0132240
  25.2267710  11.0971920  42.9552580  35.5469230  12.9460570  43.7012360
  35.0527510  13.3429440  42.9839490  34.9382520  12.3209780  44.0949640
  20.4247070  12.3168850  44.4189780  19.8307390  12.1853550  45.1579820
  20.4170910  11.4806990  43.9531880  33.2308680  13.5883990  40.9799100
  32.7711650  14.3399800  40.6057120  32.6021140  12.8690460  40.9213900
  20.0559300   9.6827230  43.3697820  19.3293360   9.0632520  43.3023770
  20.1168450  10.0767840  42.4995900  23.6604400  11.8972230  40.1547230
  24.1769420  11.2859590  39.6295490  24.3101780  12.4001010  40.6458240
  26.3999900  12.7880720  40.9816210  26.6877710  12.5335020  40.1049220
  26.9123120  12.2358080  41.5721780  18.3389300  13.0001620  36.5794580
  18.1711340  12.3672300  37.2776470  17.4723810  13.2061020  36.2288770
  19.9452000  11.6934850  34.0244720  19.4199620  12.0742880  33.3206680
  19.8696580  12.3185620  34.7454430  26.4672260  13.7096820  48.3484410
  27.3939570  13.4741090  48.3920370  26.4522690  14.5368820  47.8670440
  34.7017320  13.2522390  35.3458660  34.8769510  12.5660130  34.7019580
  34.0038890  13.7769440  34.9535330  22.5444970  13.6417230  32.8993970
  23.2763790  13.3576510  32.3517860  22.8038640  13.4030510  33.7893350
  21.7059760   9.7581960  32.9040300  21.0768640  10.2267060  33.4526130
  21.8207590   8.9131180  33.3386490  33.0349820  12.9366680  48.1725450
  33.8275140  12.4415910  47.9651410  33.3282970  13.6156820  48.7801060
  29.1609480   3.8087620  19.0541500  29.0803530   2.8942230  18.7833210
  28.7473900   4.3054690  18.3481210  27.2927520   5.5866640  20.9350770
  26.5169620   5.1067080  21.2249340  27.9440450   4.9072290  20.7606930
  21.3093350   5.8986450  21.8126530  20.4778230   5.6435160  22.2123040
  21.9174330   5.9697220  22.5484450  31.3134950   9.9926830  19.7149900
  30.8516480   9.2214070  20.0437070  32.1260500  10.0192900  20.2202350
  21.2894610   9.9326540  22.0084550  21.5922650   9.0424280  21.8294770
  22.0338200  10.4896760  21.7806800  17.6818310   3.4593990  21.4808620
  18.2534420   2.6916190  21.4812260  17.6819850   3.7582750  20.5715230
  27.5398260  12.2784840  19.3353890  26.9209700  12.7342340  18.7648330
  28.3950040  12.4336300  18.9343590  26.7336510   8.2623830  20.9420930
  26.6644790   7.3213770  20.7810060  27.4956370   8.3525240  21.5143500
  28.4061610   7.1624080  16.7285800  27.7878880   7.6273530  16.1648520
  28.9184860   7.8551560  17.1455310  23.2693370   6.6899950  23.4069400
  22.9362750   7.3168870  24.0490470  23.4460050   7.2161830  22.6271070
  22.4812470   8.6580750  25.2218580  23.0986470   9.3331830  24.9403030
  21.6205590   9.0668730  25.1306080  17.7744810   7.8480610  14.1025430
  17.3972790   8.3367710  13.3710330  18.0317880   8.5205890  14.7331960
  33.3990060  10.1220160  23.1373220  32.7153580  10.7919270  23.1289890
  33.9384350  10.3200810  22.3718080  30.9348800  11.9664290  21.8518400
  30.9475960  11.5626580  20.9840660  30.3824020  12.7411580  21.7479830
  32.2294220   8.6880510  16.9408570  32.1190550   7.7454840  17.0657990
  32.2262470   9.0496150  17.8271330  30.3334240   6.8694130  23.1801010
  30.7503030   6.6554240  22.3454470  31.0574060   7.1266920  23.7509630
  27.7714500   4.3145830  16.2971060  26.8443780   4.2483210  16.5259530
  27.9239320   5.2525960  16.1826300  34.2796340   5.2681350  23.2717250
  33.4514970   5.3374440  22.7967380  34.8746820   5.8535660  22.8033080
  31.8011790   5.8766130  16.8006310  31.1824210   5.5385680  16.1532610
  31.7836240   5.2325890  17.5085500  23.3771140   4.8410570  19.0790790
  22.9728140   4.1287820  18.5836690  23.4634260   4.4963810  19.9678830
  23.8452840   8.5278130  21.2430000  23.5481130   7.9223600  20.5637780
  24.7952660   8.5655440  21.1319360  31.9338450  12.1010000  24.9053100
  31.4569010  12.9082190  24.7125710  31.2500240  11.4488330  25.0579310
  22.9371270   8.2659820  27.8937800  22.0399800   8.4899790  28.1411200
  22.9624140   8.3894760  26.9449200  29.9776490   5.1152940  13.8079060
  30.4169770   4.2775370  13.6616880  30.6904910   5.7482340  13.8943200
  21.7642490   5.1373140  26.4695170  21.6250260   6.0095940  26.8382570
  20.8823850   4.7945950  26.3243110  28.0871870  10.0549010  17.7760300
  28.5267780  10.7973340  17.3615690  28.0258760  10.2975580  18.6999260
  23.5622840  11.0794840  28.6780320  23.5338270  11.4837790  27.8108750
  23.3987810  10.1505200  28.5151920  20.0775770   3.7355550  16.5797440
  19.9573370   4.4617640  15.9678710  19.7676660   2.9658460  16.1025350
  35.5137660  11.8621940  29.9744490  35.9897380  12.3404830  30.6533570
  36.1344820  11.7939430  29.2489990  17.7161140   6.9070690  22.3866080
  17.7941560   7.0419460  21.4421800  18.3302820   6.1986580  22.5794200
  18.9608770   8.6070880  18.7972260  18.5536850   8.7485470  17.9425860
  19.8521780   8.3231040  18.5943470  34.9170910   9.0534790  27.1344500
  35.0433970   8.8146670  26.2161680  34.9592290   8.2219330  27.6066580
  28.7787650  12.7562790  25.7039310  29.2932320  12.6670800  26.5061740
  27.9356730  13.1022490  25.9967220  30.7542050  13.0418130  15.1323310
  30.5943190  12.7521070  16.0305140  30.5888760  12.2658260  14.5968540
  23.2330430  12.8216660  16.9094930  23.0572910  11.9052200  16.6962730
  22.3786170  13.1803950  17.1492730  30.4568180  10.5505690  13.6921310
  29.7633340  10.5482980  13.0323590  31.1991040  10.1265010  13.2615480
  30.0218110  12.1768400  17.7669800  30.4775060  11.3957780  18.0808420
  30.3610630  12.8875220  18.3110980  17.7720660   7.9484860  24.9260540
  17.9351700   7.4790220  24.1079910  18.2373110   7.4408420  25.5909380
  28.9263460   2.6669840  28.7951880  29.2516870   1.8333590  28.4554110
  29.7143790   3.1898360  28.9430210  22.3353650   2.2024190  17.6902360
  22.1094570   1.9861360  18.5948980  21.5546180   2.6352650  17.3448330
  29.5651410   2.2087560  16.2893010  28.9660300   2.9323360  16.1056630
  30.1131020   2.1464340  15.5069460  24.7752860   3.1009770  28.3562630
  24.6796460   2.1604500  28.2063030  25.6184840   3.3224840  27.9610700
  28.7571420   3.4356850  22.4147070  28.0252540   3.9443660  22.7637170
  28.3595760   2.6186830  22.1135850  24.2690460   3.4224270  13.2089620
  23.7007360   2.9742520  12.5825530  24.9779460   3.7817050  12.6754770
  19.3459640   7.3236290  27.0856350  18.9614430   6.6829960  27.6839310
  19.6571830   8.0272410  27.6551080  25.4956780   4.1712830  22.5664970
  25.8626910   3.6971400  23.3126310  25.3061840   5.0454400  22.9073310
  23.2856150   3.2121470  24.8849180  22.9813220   4.0913450  25.1099540
  24.2402610   3.2721260  24.9206620  21.8137940   7.4182460  15.4816030
  21.0400200   6.8780080  15.3214750  22.5432570   6.8989070  15.1433790
  32.5725920   6.4147820  21.2742420  33.2925040   6.9103110  20.8838530
  32.3707740   5.7365710  20.6296290  27.9544720   6.4856880  27.1611420
  27.8882030   5.5652550  26.9069010  27.3249860   6.5832320  27.8756060
  21.8575340   7.0862840  19.1194840  22.3754010   6.2831100  19.0651730
  21.4059360   7.0241980  19.9611670  26.7444840   8.3529120  14.3922140
  27.0860540   9.0971350  13.8965460  25.9157550   8.6660240  14.7546970
  19.3419880   4.0524210  26.0320540  18.9834820   4.7178060  26.6193880
  19.0474440   3.2207760  26.4033160  22.5433000   4.5108450  28.9160090
  22.2433140   4.6565630  28.0187910  23.3144240   3.9513740  28.8233480
  27.8861450   9.3077450  26.9115220  27.9005990   8.3758410  26.6934130
  27.1786550   9.3937210  27.5504990  33.0198520   3.4917270  13.1813830
  32.9362240   3.9231490  12.3310270  33.7392710   3.9515620  13.6140650
  34.0972660   5.9484790  26.2583800  33.3720850   6.5413570  26.0613190
  34.6248120   5.9408330  25.4597170  34.0485770  10.3459530  15.9095960
  33.4061930   9.6915150  16.1839680  33.6616430  10.7514620  15.1336630
  29.6272250   7.6744960  19.7567650  29.9796070   7.0773090  19.0969020
  28.7434580   7.3489190  19.9275900  25.7135530   8.4342650  17.1638060
  26.4006660   8.9811860  17.5445650  24.9267950   8.9783380  17.1987670
  17.8527930   4.0515470  12.6555140  18.7222780   4.3340270  12.9391060
  17.3618250   4.8651340  12.5403950  25.0162740   5.4388680  16.7763420
  25.4725520   6.2493930  17.0023610  24.6650950   5.1211820  17.6081910
  27.3195350  10.9495020  24.0055720  27.9637570  11.1554400  24.6829140
  27.6824790  10.1883420  23.5526570  28.5927430   8.9527370  22.7233170
  29.2349660   8.2520530  22.8365340  29.1176780   9.7325810  22.5430060
  32.4383150   9.2375990  12.4472310  32.2120730   8.5206430  13.0396950
  32.0479350   8.9888430  11.6094060  30.3665050   9.7522270  25.9269230
  30.7021290  10.3388960  26.6047150  29.4465390   9.6214980  26.1567020
  18.2199180  13.2642850  13.2216770  18.5796820  13.8632190  12.5674040
  18.0791520  13.8102740  13.9951800  32.0199400   7.1547930  14.1086470
  31.7321100   7.6160620  14.8964350  32.8151570   6.6945700  14.3770690
  18.2041040  11.5297710  27.6959170  18.3132160  10.5892450  27.5554560
  17.5521600  11.7952460  27.0472900  26.1953630   9.8013600  29.0957290
  25.8750500   9.0822840  29.6402980  25.5211990  10.4768670  29.1693350
  24.2367800  10.6474050  14.0390440  24.2277900  11.3803740  13.4234950
  23.3166160  10.4005630  14.1317400  19.8374440   5.8688940  14.7837200
  19.2302390   6.6087840  14.7932500  20.3123790   5.9588300  13.9575400
  27.2227400  10.7102290  12.7015630  27.3239380  10.5066280  11.7717610
  26.3229140  10.4560570  12.9063410  26.3709220   2.6879350  24.6832060
  26.8694470   3.1625170  25.3483910  26.5132170   1.7642870  24.8902090
  25.8645510  13.2288610  17.3963300  26.1187010  13.1910000  16.4742670
  24.9157990  13.1021940  17.3891550  31.8698090   4.1480490  18.9721810
  30.9288230   4.1630720  19.1469500  32.1842160   3.3616450  19.4182110
  21.8479730   5.8300090  12.5325770  22.6143000   5.7181450  13.0951200
  21.9254420   5.1338060  11.8802540  20.5426490   3.2625160  13.2158660
  20.6230080   2.3152670  13.3276060  21.4346240   3.5932040  13.3219320
  33.8723670  11.3189340  20.6476070  33.9971090  12.1420510  21.1199880
  34.7389230  11.1080070  20.3000220  21.3441200  13.4120550  20.3193200
  22.0803680  12.8636010  20.5901770  21.7282120  14.2776560  20.1799190
  18.2286680   9.4794120  16.1934710  17.3026460   9.7215260  16.1840120
  18.6943110  10.3068380  16.0719460  20.3499480  12.5966620  29.5078780
  21.1512210  12.9178670  29.9214180  19.8351300  12.2362200  30.2298690
  24.4543510  12.5850860  12.1418770  25.2472120  12.8739690  11.6900560
  23.9347860  12.1543030  11.4631250  29.1864110   8.7046490  29.4554190
  28.5802270   8.7278090  28.7149940  28.8818220   7.9729530  29.9921440
  30.6164480  12.4326780  28.0663600  31.5686230  12.3484800  28.0163840
  30.4692700  13.0968490  28.7397390  33.5073680  11.8120990  13.5655510
  33.2215190  11.3986130  12.7509690  33.3093230  12.7408700  13.4456030
  18.0697290   5.0840080  28.4514830  18.5736310   4.5047360  29.0231060
  17.3304710   5.3680310  28.9891200  24.9720910   7.8054270  12.0061120
  24.8671550   7.1906620  12.7322500  24.8045130   7.2820160  11.2224130
  25.1235230   6.4911070  27.9850350  24.3580900   7.0596070  27.9005020
  25.3051190   6.1987280  27.0918580  28.2123640   6.8674300  12.6103110
  27.6633740   7.3143600  13.2545850  28.8342900   6.3623550  13.1340780
  32.2658580   8.2216400  28.5425370  33.0068050   8.5592160  28.0392830
  31.5031260   8.3908460  27.9895140  20.1020370   3.2269670  29.3464900
  20.1425710   2.9283540  30.2550130  20.9565870   3.6277280  29.1872420
  23.8798760   5.8265220  14.5068410  24.3015180   5.6605090  15.3499800
  24.0049600   5.0165450  14.0123550  26.3926400   4.8502830  11.7545510
  26.9132060   4.1351850  11.3886660  27.0394800   5.4888700  12.0546020
  30.9404240   6.2731230  27.0780580  31.3545260   6.4276310  27.9271000
  30.0055240   6.3986450  27.2406360  31.4126410   3.6127390  29.0819730
  31.9947180   2.8579710  28.9940210  31.5888180   4.1434830  28.3051210
  25.7019470   6.2251710  25.0476510  26.1207580   7.0684440  24.8752750
  24.7828100   6.3623750  24.8183290  28.0383370   3.9567890  26.4314350
  28.1579580   3.3609030  27.1709190  28.8977370   3.9937580  26.0115650
  30.3771270   4.5105080  25.0076860  29.8506490   5.0347700  24.4042000
  30.7202610   5.1432470  25.6386590  23.5526890  12.5304720  26.1634240
  23.0147980  13.2550780  25.8442940  23.8060850  12.0535060  25.3731580
  26.4089100  13.7655930  26.4220890  26.3347800  14.6691070  26.7293260
  25.5067940  13.4467830  26.3942960  26.9574430  12.9314440  14.0447250
  27.8525220  13.2699410  14.0666010  26.9892060  12.2093850  13.4171530
  20.5970590   8.3041490  12.2734250  21.0345460   8.8471160  12.9291830
  21.0818320   7.4788440  12.2830590  17.8116390  11.0930520  19.7254510
  18.1419400  10.2251580  19.4933150  18.2407390  11.2989040  20.5559470
  22.4078310   9.4239530  17.3856480  22.1073850   9.3004500  18.2860390
  22.3015800   8.5648120  16.9772210  18.3006600  11.9601110  22.4636140
  17.8637590  12.1401910  23.2960290  18.8684280  12.7175730  22.3217860
  33.9368780  11.4618110  26.7513450  33.3370770  11.5210670  26.0077370
  34.0662680  10.5223090  26.8810300  35.1770230   9.2035930  12.0883160
  34.3463190   9.2712580  12.5590390  35.3542060  10.0940050  11.7850020
  34.6326690   5.9483410  14.5917360  35.3945600   6.5180060  14.6977050
  34.6481060   5.3810610  15.3625670  18.1331030   4.4721340  18.8225020
  17.4779870   4.2032980  18.1784720  18.9708980   4.3625820  18.3727000
  35.6386660   6.8033510  19.4359290  36.0095490   6.0200830  19.0295260
  36.2788590   7.4922610  19.2576590  32.6220420   8.1870090  24.8489610
  31.8080260   8.6167250  25.1115400  33.0294620   8.7988500  24.2358660
  34.6845860   6.2417780  11.7489880  34.9594700   7.1496660  11.6209100
  34.4956600   6.1780310  12.6851870  34.5811200   4.1786770  16.7419310
  34.2054800   3.4114700  16.3100600  33.8514320   4.5609470  17.2294240
  19.1706960   4.8573910  23.3628360  19.5380000   4.7701310  24.2424380
  18.6017780   4.0940460  23.2635220  33.9710820   3.3258290  26.3758830
  33.7396910   3.0971040  25.4756780  34.2315370   4.2457840  26.3303720
  18.7222960   1.7683000  27.2686780  17.8279010   1.7349760  27.6080490
  19.2620510   1.9669790  28.0338030  33.8562160   2.4044260  20.0426550
  34.3799640   1.9106910  19.4116720  34.4421580   2.5394620  20.7874120
  34.0351880   2.4884130  23.5646100  33.0854590   2.4547670  23.6791090
  34.2164890   3.3984240  23.3295870  32.6796470  12.9388690  18.3757880
  33.2755540  12.6173260  17.6992300  32.9374620  12.4660510  19.1671150
  20.5859040   9.3706600  28.5248510  20.5428670   8.9999510  29.4062970
  20.7170050  10.3084170  28.6650330  24.2865070  10.9266190  24.1258230
  24.0456430  11.1940750  23.2388750  25.2267710  11.0971920  24.1809090
  35.5469230  12.9460570  24.9268870  35.0527510  13.3429440  24.2096000
  34.9382520  12.3209780  25.3206150  20.4247070  12.3168850  25.6446290
  19.8307390  12.1853550  26.3836330  20.4170910  11.4806990  25.1788390
  33.2308680  13.5883990  22.2055610  32.7711650  14.3399800  21.8313630
  32.6021140  12.8690460  22.1470410  20.0559300   9.6827230  24.5954330
  19.3293360   9.0632520  24.5280280  20.1168450  10.0767840  23.7252410
  23.6604400  11.8972230  21.3803740  24.1769420  11.2859590  20.8552000
  24.3101780  12.4001010  21.8714750  26.3999900  12.7880720  22.2072720
  26.6877710  12.5335020  21.3305730  26.9123120  12.2358080  22.7978290
  18.3389300  13.0001620  17.8051090  18.1711340  12.3672300  18.5032980
  17.4723810  13.2061020  17.4545280  19.9452000  11.6934850  15.2501230
  19.4199620  12.0742880  14.5463190  19.8696580  12.3185620  15.9710940
  26.4672260  13.7096820  29.5740920  27.3939570  13.4741090  29.6176880
  26.4522690  14.5368820  29.0926950  34.7017320  13.2522390  16.5715170
  34.8769510  12.5660130  15.9276090  34.0038890  13.7769440  16.1791840
  22.5444970  13.6417230  14.1250480  23.2763790  13.3576510  13.5774370
  22.8038640  13.4030510  15.0149860  21.7059760   9.7581960  14.1296810
  21.0768640  10.2267060  14.6782640  21.8207590   8.9131180  14.5643000
  33.0349820  12.9366680  29.3981960  33.8275140  12.4415910  29.1907920
  33.3282970  13.6156820  30.0057570  27.2927520   5.5866640   2.1607280
  26.5169620   5.1067080   2.4505850  27.9440450   4.9072290   1.9863440
  21.3093350   5.8986450   3.0383040  20.4778230   5.6435160   3.4379550
  21.9174330   5.9697220   3.7740960  21.2894610   9.9326540   3.2341060
  21.5922650   9.0424280   3.0551280  22.0338200  10.4896760   3.0063310
  17.6818310   3.4593990   2.7065130  18.2534420   2.6916190   2.7068770
  17.6819850   3.7582750   1.7971740  26.7336510   8.2623830   2.1677440
  26.6644790   7.3213770   2.0066570  27.4956370   8.3525240   2.7400010
  23.2693370   6.6899950   4.6325910  22.9362750   7.3168870   5.2746980
  23.4460050   7.2161830   3.8527580  22.4812470   8.6580750   6.4475090
  23.0986470   9.3331830   6.1659540  21.6205590   9.0668730   6.3562590
  33.3990060  10.1220160   4.3629730  32.7153580  10.7919270   4.3546400
  33.9384350  10.3200810   3.5974590  30.9348800  11.9664290   3.0774910
  30.9475960  11.5626580   2.2097170  30.3824020  12.7411580   2.9736340
  30.3334240   6.8694130   4.4057520  30.7503030   6.6554240   3.5710980
  31.0574060   7.1266920   4.9766140  34.2796340   5.2681350   4.4973760
  33.4514970   5.3374440   4.0223890  34.8746820   5.8535660   4.0289590
  23.8452840   8.5278130   2.4686510  23.5481130   7.9223600   1.7894290
  24.7952660   8.5655440   2.3575870  31.9338450  12.1010000   6.1309610
  31.4569010  12.9082190   5.9382220  31.2500240  11.4488330   6.2835820
  22.9371270   8.2659820   9.1194310  22.0399800   8.4899790   9.3667710
  22.9624140   8.3894760   8.1705710  21.7642490   5.1373140   7.6951680
  21.6250260   6.0095940   8.0639080  20.8823850   4.7945950   7.5499620
  23.5622840  11.0794840   9.9036830  23.5338270  11.4837790   9.0365260
  23.3987810  10.1505200   9.7408430  35.5137660  11.8621940  11.2001000
  35.9897380  12.3404830  11.8790080  36.1344820  11.7939430  10.4746500
  17.7161140   6.9070690   3.6122590  17.7941560   7.0419460   2.6678310
  18.3302820   6.1986580   3.8050710  34.9170910   9.0534790   8.3601010
  35.0433970   8.8146670   7.4418190  34.9592290   8.2219330   8.8323090
  28.7787650  12.7562790   6.9295820  29.2932320  12.6670800   7.7318250
  27.9356730  13.1022490   7.2223730  17.7720660   7.9484860   6.1517050
  17.9351700   7.4790220   5.3336420  18.2373110   7.4408420   6.8165890
  28.9263460   2.6669840  10.0208390  29.2516870   1.8333590   9.6810620
  29.7143790   3.1898360  10.1686720  24.7752860   3.1009770   9.5819140
  24.6796460   2.1604500   9.4319540  25.6184840   3.3224840   9.1867210
  28.7571420   3.4356850   3.6403580  28.0252540   3.9443660   3.9893680
  28.3595760   2.6186830   3.3392360  19.3459640   7.3236290   8.3112860
  18.9614430   6.6829960   8.9095820  19.6571830   8.0272410   8.8807590
  25.4956780   4.1712830   3.7921480  25.8626910   3.6971400   4.5382820
  25.3061840   5.0454400   4.1329820  23.2856150   3.2121470   6.1105690
  22.9813220   4.0913450   6.3356050  24.2402610   3.2721260   6.1463130
  32.5725920   6.4147820   2.4998930  33.2925040   6.9103110   2.1095040
  32.3707740   5.7365710   1.8552800  27.9544720   6.4856880   8.3867930
  27.8882030   5.5652550   8.1325520  27.3249860   6.5832320   9.1012570
  19.3419880   4.0524210   7.2577050  18.9834820   4.7178060   7.8450390
  19.0474440   3.2207760   7.6289670  22.5433000   4.5108450  10.1416600
  22.2433140   4.6565630   9.2444420  23.3144240   3.9513740  10.0489990
  27.8861450   9.3077450   8.1371730  27.9005990   8.3758410   7.9190640
  27.1786550   9.3937210   8.7761500  34.0972660   5.9484790   7.4840310
  33.3720850   6.5413570   7.2869700  34.6248120   5.9408330   6.6853680
  27.3195350  10.9495020   5.2312230  27.9637570  11.1554400   5.9085650
  27.6824790  10.1883420   4.7783080  28.5927430   8.9527370   3.9489680
  29.2349660   8.2520530   4.0621850  29.1176780   9.7325810   3.7686570
  30.3665050   9.7522270   7.1525740  30.7021290  10.3388960   7.8303660
  29.4465390   9.6214980   7.3823530  18.2041040  11.5297710   8.9215680
  18.3132160  10.5892450   8.7811070  17.5521600  11.7952460   8.2729410
  26.1953630   9.8013600  10.3213800  25.8750500   9.0822840  10.8659490
  25.5211990  10.4768670  10.3949860  26.3709220   2.6879350   5.9088570
  26.8694470   3.1625170   6.5740420  26.5132170   1.7642870   6.1158600
  20.3499480  12.5966620  10.7335290  21.1512210  12.9178670  11.1470690
  19.8351300  12.2362200  11.4555200  29.1864110   8.7046490  10.6810700
  28.5802270   8.7278090   9.9406450  28.8818220   7.9729530  11.2177950
  30.6164480  12.4326780   9.2920110  31.5686230  12.3484800   9.2420350
  30.4692700  13.0968490   9.9653900  18.0697290   5.0840080   9.6771340
  18.5736310   4.5047360  10.2487570  17.3304710   5.3680310  10.2147710
  25.1235230   6.4911070   9.2106860  24.3580900   7.0596070   9.1261530
  25.3051190   6.1987280   8.3175090  32.2658580   8.2216400   9.7681880
  33.0068050   8.5592160   9.2649340  31.5031260   8.3908460   9.2151650
  20.1020370   3.2269670  10.5721410  20.1425710   2.9283540  11.4806640
  20.9565870   3.6277280  10.4128930  30.9404240   6.2731230   8.3037090
  31.3545260   6.4276310   9.1527510  30.0055240   6.3986450   8.4662870
  31.4126410   3.6127390  10.3076240  31.9947180   2.8579710  10.2196720
  31.5888180   4.1434830   9.5307720  25.7019470   6.2251710   6.2733020
  26.1207580   7.0684440   6.1009260  24.7828100   6.3623750   6.0439800
  28.0383370   3.9567890   7.6570860  28.1579580   3.3609030   8.3965700
  28.8977370   3.9937580   7.2372160  30.3771270   4.5105080   6.2333370
  29.8506490   5.0347700   5.6298510  30.7202610   5.1432470   6.8643100
  23.5526890  12.5304720   7.3890750  23.0147980  13.2550780   7.0699450
  23.8060850  12.0535060   6.5988090  26.4089100  13.7655930   7.6477400
  26.3347800  14.6691070   7.9549770  25.5067940  13.4467830   7.6199470
  18.3006600  11.9601110   3.6892650  17.8637590  12.1401910   4.5216800
  18.8684280  12.7175730   3.5474370  33.9368780  11.4618110   7.9769960
  33.3370770  11.5210670   7.2333880  34.0662680  10.5223090   8.1066810
  32.6220420   8.1870090   6.0746120  31.8080260   8.6167250   6.3371910
  33.0294620   8.7988500   5.4615170  19.1706960   4.8573910   4.5884870
  19.5380000   4.7701310   5.4680890  18.6017780   4.0940460   4.4891730
  33.9710820   3.3258290   7.6015340  33.7396910   3.0971040   6.7013290
  34.2315370   4.2457840   7.5560230  18.7222960   1.7683000   8.4943290
  17.8279010   1.7349760   8.8337000  19.2620510   1.9669790   9.2594540
  34.0351880   2.4884130   4.7902610  33.0854590   2.4547670   4.9047600
  34.2164890   3.3984240   4.5552380  20.5859040   9.3706600   9.7505020
  20.5428670   8.9999510  10.6319480  20.7170050  10.3084170   9.8906840
  24.2865070  10.9266190   5.3514740  24.0456430  11.1940750   4.4645260
  25.2267710  11.0971920   5.4065600  35.5469230  12.9460570   6.1525380
  35.0527510  13.3429440   5.4352510  34.9382520  12.3209780   6.5462660
  20.4247070  12.3168850   6.8702800  19.8307390  12.1853550   7.6092840
  20.4170910  11.4806990   6.4044900  33.2308680  13.5883990   3.4312120
  32.7711650  14.3399800   3.0570140  32.6021140  12.8690460   3.3726920
  20.0559300   9.6827230   5.8210840  19.3293360   9.0632520   5.7536790
  20.1168450  10.0767840   4.9508920  23.6604400  11.8972230   2.6060250
  24.1769420  11.2859590   2.0808510  24.3101780  12.4001010   3.0971260
  26.3999900  12.7880720   3.4329230  26.6877710  12.5335020   2.5562240
  26.9123120  12.2358080   4.0234800  26.4672260  13.7096820  10.7997430
  27.3939570  13.4741090  10.8433390  26.4522690  14.5368820  10.3183460
  33.0349820  12.9366680  10.6238470  33.8275140  12.4415910  10.4164430
  33.3282970  13.6156820  11.2314080  10.3865990  60.1318090  75.3771970
  10.3060040  59.2172700  75.1063680   9.9730410  60.6285160  74.6711680
   3.1203200  55.7650310  72.9537770   3.2269950  56.6654040  73.2606530
   2.2095560  55.7168280  72.6632420  12.7722310  54.8875120  74.4248670
  13.5931930  54.3971690  74.4674150  12.8056390  55.4772780  75.1780510
   6.6090250  52.5727470  75.8841410   6.9165230  52.0174360  75.1676910
   5.6790950  52.7071930  75.7014400   8.9971010  60.6376300  72.6201530
   8.0700290  60.5713680  72.8490000   9.1495830  61.5756430  72.5056770
   8.9840090  56.9093300  69.6168690   8.0443760  57.0707260  69.7021150
   9.3023350  57.6278980  69.0704680  13.0268300  62.1996600  73.1236780
  12.4080720  61.8616150  72.4763080  13.0092750  61.5556360  73.8315970
   4.6027650  61.1641040  75.4021260   4.1984650  60.4518290  74.9067160
   4.6890770  60.8194280  76.2909300  11.2033000  61.4383410  70.1309530
  11.6426280  60.6005840  69.9847350  11.9161420  62.0712810  70.2173670
  14.7850140  52.6926220  68.4450570  14.4722800  52.7853050  69.3449640
  15.5462610  53.2707250  68.3948000   3.7695940  53.4021090  76.2851580
   3.3264090  54.1830630  75.9536100   4.3280930  53.7250980  76.9922520
   6.8854760  53.0231790  71.1657410   6.2608940  53.0191660  71.8910720
   6.7984880  52.1562750  70.7693380   3.5610160  58.5254660  74.0132830
   3.3351080  58.3091830  74.9179450   2.7802690  58.9583120  73.6678800
  10.7907920  58.5318030  72.6123480  10.1916810  59.2553830  72.4287100
  11.3387530  58.4694810  71.8299930   9.3972790  57.1681570  74.6426760
   9.7902360  57.4853770  73.8295450   9.7589640  56.2893450  74.7571280
   2.2707700  56.3168010  76.1024240   1.9307750  56.7943240  76.8591290
   1.5085020  55.8633130  75.7425340   6.4825470  57.4353600  70.1336790
   6.6038290  57.3940080  71.0822610   6.0973980  58.2977750  69.9783520
   5.4946970  59.7454740  69.5320090   4.9263870  59.2972990  68.9056000
   6.2035970  60.1047520  68.9985240   3.0394450  63.7412930  71.8046500
   2.2656710  63.2010550  71.6445220   3.7689080  63.2219540  71.4664260
   9.2592370  54.1316250  71.7402280   8.4456980  53.6329420  71.6647590
   9.0654320  54.9714500  71.3238630  11.9740760  58.5035900  70.0364440
  12.8620380  58.8153130  69.8615780  11.9445850  57.6308150  69.6445020
   3.0831850  63.4093310  75.4425310   3.6010520  62.6061570  75.3882200
   2.6315870  63.3472450  76.2842140  14.2455030  59.8147740  69.5044300
  14.1618750  60.2461960  68.6540740  14.9649220  60.2746090  69.9371120
   6.2419250  61.7619150  73.0993890   6.6982030  62.5724400  73.3254080
   5.8907460  61.4442290  73.9312380  14.0025770  55.3127170  71.5912120
  13.3738930  55.4172840  70.8770350  13.5077690  55.5323950  72.3806000
   5.9709800  57.5913120  73.0070000   5.2625950  58.0599460  73.4483610
   6.2554280  56.9335130  73.6415190  10.0025230  54.3163780  74.4465790
   9.8793010  54.3349910  73.4975300  10.9509790  54.3642720  74.5664190
   4.1744820  55.8998200  70.3820710   5.0235350  56.3368350  70.3160900
   3.8076090  56.2118460  71.2092770  13.0954600  60.4710960  75.2952280
  12.1544740  60.4861190  75.4699970  13.4098670  59.6846920  75.7412580
   3.0736240  62.1530560  68.8556240   3.8399510  62.0411920  69.4181670
   3.1510930  61.4568530  68.2033010   1.7683000  59.5855630  69.5389130
   1.8486590  58.6383140  69.6506530   2.6602750  59.9162510  69.6449790
   9.4380150  63.1904770  68.9333580   8.8890250  63.6374070  69.5776320
  10.0599410  62.6854020  69.4571250   5.1055270  62.1495690  70.8298880
   5.5271690  61.9835560  71.6730270   5.2306110  61.3395920  70.3354020
   7.6182910  61.1733300  68.0775980   8.1388570  60.4582320  67.7117130
   8.2651310  61.8119170  68.3776490   4.0014170  58.2228920  67.7757040
   3.8003230  57.3596280  68.1370380   3.8306220  58.1362280  66.8378640
  11.4802480  53.0337150  70.3043920  11.7604770  52.1905050  70.6603340
  10.7068210  53.2660260  70.8182670   2.7996970  55.3229540  67.7634920
   3.1022870  55.3296970  66.8554070   3.5391560  54.9727400  68.2602580
   6.0181900  54.2664160  68.7491120   5.6703900  53.5888150  68.1693570
   6.2194670  53.8053670  69.5634510  15.8583200  62.2713880  70.9147830
  16.6202110  62.8410530  71.0207520  15.8737570  61.7041080  71.6856140
  15.9102370  62.5648250  68.0720350  16.1851210  63.4727130  67.9439570
  15.7213110  62.5010780  69.0082340  12.3077980  55.5893100  69.3673980
  12.7262860  55.4024080  68.5270640  12.0014040  54.7372150  69.6776910
  15.8067710  60.5017240  73.0649780  15.4311310  59.7345170  72.6331070
  15.0770830  60.8839940  73.5524710  15.0818670  58.7274730  76.3657020
  15.6056150  58.2337380  75.7347190  15.6678090  58.8625090  77.1104590
  14.5718640  57.9848080  72.3049430  15.0677760  57.7518950  73.0898310
  14.3734710  57.1459920  71.8887070  16.0005800  56.6209030  74.8387110
  15.8905080  56.4665070  75.7769380  16.7613390  56.0929970  74.5962520
  16.8896070  54.4516950  68.0793250  17.8145380  54.3198130  67.8711540
  16.8671860  54.5309770  69.0329700  16.9634560  55.2227610  70.7049960
  16.1686060  55.1572730  71.2342870  17.1677840  56.1578250  70.6935310
  15.2593060  53.1839730  75.1657610  15.1981460  52.2400950  75.0188630
  16.0385090  53.2919820  75.7111070   6.7287640  55.2688140  74.6215730
   5.9162150  54.8945030  74.2811610   7.2329280  54.5133220  74.9236920
  11.2312620  51.9330590  75.8598800  11.8341990  52.5050800  76.3347320
  10.4905610  52.4970030  75.6372700  14.3747220  52.3352150  71.1339080
  14.5697850  53.2335600  71.4006510  13.5877090  52.1039230  71.6272030
   2.5598980  53.6812920  70.1715390   3.0891740  52.8942720  70.0423340
   3.1927300  54.3604110  70.4050920   4.7536820  53.4188060  73.2260780
   4.1239560  52.7175370  73.3930910   4.2141960  54.1792190  73.0093940
  10.3865990  60.1318090  56.6028480  10.3060040  59.2172700  56.3320190
   9.9730410  60.6285160  55.8968190   8.5184030  61.9097110  58.4837750
   7.7426130  61.4297550  58.7736320   9.1696960  61.2302760  58.3093910
   2.5349860  62.2216920  59.3613510   1.7034740  61.9665630  59.7610020
   3.1430840  62.2927690  60.0971430   8.9898190  57.3924680  58.7176840
   9.3663010  56.5196560  58.6050510   8.8917700  57.7283380  57.8267280
   3.1203200  55.7650310  54.1794280   3.2269950  56.6654040  54.4863040
   2.2095560  55.7168280  53.8888930  12.7722310  54.8875120  55.6505180
  13.5931930  54.3971690  55.6930660  12.8056390  55.4772780  56.4037020
   4.9610930  58.7336680  58.5119460   5.4689150  59.2317650  59.1524480
   5.4924170  57.9571880  58.3358820  17.0621860  56.9041870  62.2148810
  16.3574030  57.2923580  61.6963920  17.3279780  57.5992160  62.8169740
   3.2447030  53.3735240  62.7782880   3.2465470  53.8907630  61.9728780
   2.4151340  52.8965420  62.7552810   4.4949880  63.0130420  60.9556380
   4.1619260  63.6399340  61.5977450   4.6716560  63.5392300  60.1758050
  13.0083790  56.8275500  58.4232720  12.3039360  57.1160390  59.0035830
  13.3695950  57.6375610  58.0632280   2.9262360  55.0845200  60.7853330
   3.2679170  55.9287250  60.4907200   1.9878170  55.2328940  60.9018670
  16.0770710  56.2730290  58.8141930  15.1295620  56.3069270  58.9457360
  16.4020700  57.0869240  59.1991290   6.6090250  52.5727470  57.1097920
   6.9165230  52.0174360  56.3933420   5.6790950  52.7071930  56.9270910
  11.5590750  63.1924600  60.7287990  11.9759540  62.9784710  59.8941450
  12.2830570  63.4497390  61.2996610   8.9971010  60.6376300  53.8458040
   8.0700290  60.5713680  54.0746510   9.1495830  61.5756430  53.7313280
   8.9840090  56.9093300  50.8425200   8.0443760  57.0707260  50.9277660
   9.3023350  57.6278980  50.2961190  15.5052850  61.5911820  60.8204230
  14.6771480  61.6604910  60.3454360  16.1003330  62.1766130  60.3520060
  13.0268300  62.1996600  54.3493290  12.4080720  61.8616150  53.7019590
  13.0092750  61.5556360  55.0572480  12.4694860  58.3781140  61.7659100
  12.0566040  59.2034850  62.0199090  11.7370810  57.7926180  61.5735460
   4.6027650  61.1641040  56.6277770   4.1984650  60.4518290  56.1323670
   4.6890770  60.8194280  57.5165810   3.3156270  57.9384250  60.4076810
   3.8670860  58.0479590  59.6330060   3.8299780  58.3121850  61.1232040
  11.2033000  61.4383410  51.3566040  11.6426280  60.6005840  51.2103860
  11.9161420  62.0712810  51.4430180   2.9899000  61.4603610  64.0182150
   2.8506770  62.3326410  64.3869550   2.1080360  61.1176420  63.8730090
  14.7850140  52.6926220  49.6707080  14.4722800  52.7853050  50.5706150
  15.5462610  53.2707250  49.6204510  15.9951430  57.4297720  65.6481220
  15.3795700  57.9377390  65.1196680  15.6747850  56.5296050  65.5907160
   3.7695940  53.4021090  57.5108090   3.3264090  54.1830630  57.1792610
   4.3280930  53.7250980  58.2179030   8.0565750  56.2689610  63.1143410
   7.5945120  56.4772630  63.9263350   7.6543860  55.4548960  62.8114080
  13.0570260  57.4898560  64.2440070  12.2063850  57.1904310  64.5649140
  12.8972050  57.7340570  63.3323890  10.1519970  58.9900310  66.3438860
  10.4773380  58.1564060  66.0041090  10.9400300  59.5128830  66.4917190
   6.8854760  53.0231790  52.3913920   6.2608940  53.0191660  53.1167230
   6.7984880  52.1562750  51.9949890   5.8071840  53.9468420  59.3697690
   6.1044170  54.8531250  59.2889710   6.3557400  53.4587200  58.7557260
   3.5610160  58.5254660  55.2389340   3.3351080  58.3091830  56.1435960
   2.7802690  58.9583120  54.8935310  10.7907920  58.5318030  53.8379990
  10.1916810  59.2553830  53.6543610  11.3387530  58.4694810  53.0556440
   6.0009370  59.4240240  65.9049610   5.9052970  58.4834970  65.7550010
   6.8441350  59.6455310  65.5097680   9.3972790  57.1681570  55.8683270
   9.7902360  57.4853770  55.0551960   9.7589640  56.2893450  55.9827790
   7.7064960  55.9188880  67.1280130   7.0163280  55.7261080  67.7626220
   8.4497260  56.2023520  67.6604430   9.9827930  59.7587320  59.9634050
   9.2509050  60.2674130  60.3124150   9.5852270  58.9417300  59.6622830
   6.4205320  56.4341520  58.3686540   6.4241380  55.9931470  57.5191080
   7.3156440  56.7558850  58.4758360   2.2707700  56.3168010  57.3280750
   1.9307750  56.7943240  58.0847800   1.5085020  55.8633130  56.9681850
   6.4825470  57.4353600  51.3593300   6.6038290  57.3940080  52.3079120
   6.0973980  58.2977750  51.2040030  10.4453840  55.2121000  59.3756990
  10.4626580  55.6629650  60.2198840  10.1969420  54.3126640  59.5890430
   5.4946970  59.7454740  50.7576600   4.9263870  59.2972990  50.1312510
   6.2035970  60.1047520  50.2241750  13.8724590  52.6253180  65.2143370
  14.1970360  51.8942840  65.7401350  13.9081100  52.3066820  64.3124360
   6.7213290  60.4943300  60.1151950   7.0883420  60.0201870  60.8613290
   6.5318350  61.3684870  60.4560290   4.5112660  59.5351940  62.4336160
   4.2069730  60.4143920  62.6586520   5.4659120  59.5951730  62.4693600
   3.0394450  63.7412930  53.0303010   2.2656710  63.2010550  52.8701730
   3.7689080  63.2219540  52.6920770  13.7982430  62.7378290  58.8229400
  14.5181550  63.2333580  58.4325510  13.5964250  62.0596180  58.1783270
   9.2592370  54.1316250  52.9658790   8.4456980  53.6329420  52.8904100
   9.0654320  54.9714500  52.5495140   9.1801230  62.8087350  64.7098400
   9.1138540  61.8883020  64.4555990   8.5506370  62.9062790  65.4243040
  11.9740760  58.5035900  51.2620950  12.8620380  58.8153130  51.0872290
  11.9445850  57.6308150  50.8701530   3.0831850  63.4093310  56.6681820
   3.6010520  62.6061570  56.6138710   2.6315870  63.3472450  57.5098650
   3.7689510  60.8338920  66.4647070   3.4689650  60.9796100  65.5674890
   4.5400750  60.2744210  66.3720460  14.2455030  59.8147740  50.7300810
  14.1618750  60.2461960  49.8797250  14.9649220  60.2746090  51.1627630
  15.3229170  62.2715260  63.8070780  14.5977360  62.8644040  63.6100170
  15.8504630  62.2638800  63.0084150   6.2419250  61.7619150  54.3250400
   6.6982030  62.5724400  54.5510590   5.8907460  61.4442290  55.1568890
  10.6363740  56.3570230  62.0081070  11.0044560  55.5365440  62.3360640
   9.7761940  56.4172120  62.4236720  14.0025770  55.3127170  52.8168630
  13.3738930  55.4172840  52.1026860  13.5077690  55.5323950  53.6062510
   5.9709800  57.5913120  54.2326510   5.2625950  58.0599460  54.6740120
   6.2554280  56.9335130  54.8671700   7.5965730  59.0109820  62.2319040
   8.0950980  59.4855640  62.8970890   7.7388680  58.0873340  62.4389070
  10.0025230  54.3163780  55.6722300   9.8793010  54.3349910  54.7231810
  10.9509790  54.3642720  55.7920700   4.1744820  55.8998200  51.6077220
   5.0235350  56.3368350  51.5417410   3.8076090  56.2118460  52.4349280
  14.8032590  55.2277780  63.0747430  14.3006190  55.9683180  63.4141240
  15.6189250  55.6161780  62.7584220  13.0954600  60.4710960  56.5208790
  12.1544740  60.4861190  56.6956480  13.4098670  59.6846920  56.9669090
   3.0736240  62.1530560  50.0812750   3.8399510  62.0411920  50.6438180
   3.1510930  61.4568530  49.4289520   1.7683000  59.5855630  50.7645640
   1.8486590  58.6383140  50.8763040   2.6602750  59.9162510  50.8706300
   6.3491740  62.8141540  65.5337330   5.5837410  63.3826540  65.4492000
   6.5307700  62.5217750  64.6405560   9.4380150  63.1904770  50.1590090
   8.8890250  63.6374070  50.8032830  10.0599410  62.6854020  50.6827760
   5.1055270  62.1495690  52.0555390   5.5271690  61.9835560  52.8986780
   5.2306110  61.3395920  51.5610530   3.2682690  58.1292240  64.8626370
   2.7379150  57.6383190  64.2349710   3.9370760  58.5576440  64.3284300
   7.6182910  61.1733300  49.3032490   8.1388570  60.4582320  48.9373640
   8.2651310  61.8119170  49.6033000  12.1660750  62.5961700  64.6267560
  12.5801770  62.7506780  65.4757980  11.2311750  62.7216920  64.7893340
  12.6382920  59.9357860  66.6306710  13.2203690  59.1810180  66.5427190
  12.8144690  60.4665300  65.8538190   3.7554990  55.0954610  64.9423660
   3.6611860  54.4775360  64.2174530   3.1752380  55.8220900  64.7153570
   6.5216430  53.6527850  61.9751050   6.0733730  53.6752110  61.1296600
   5.8881630  53.2546870  62.5721350   6.9275980  62.5482180  62.5963490
   7.3464090  63.3914910  62.4239730   6.0084610  62.6854220  62.3670270
   9.2639880  60.2798360  63.9801330   9.3836090  59.6839500  64.7196170
  10.1233880  60.3168050  63.5602630  11.6027780  60.8335550  62.5563840
  11.0763000  61.3578170  61.9528980  11.9459120  61.4662940  63.1873570
   4.0014170  58.2228920  49.0013550   3.8003230  57.3596280  49.3626890
   3.8306220  58.1362280  48.0635150   6.0308650  56.8219710  65.2377150
   6.6208340  56.5135560  65.9254970   5.2128890  56.3499460  65.3937050
  10.8502080  56.4385520  65.4710170  10.1617600  55.7767060  65.4060160
  11.5708100  55.9923790  65.9158630  11.4802480  53.0337150  51.5300430
  11.7604770  52.1905050  51.8859850  10.7068210  53.2660260  52.0439180
   2.7996970  55.3229540  48.9891430   3.1022870  55.3296970  48.0810580
   3.5391560  54.9727400  49.4859090   6.0181900  54.2664160  49.9747630
   5.6703900  53.5888150  49.3950080   6.2194670  53.8053670  50.7891020
  15.8583200  62.2713880  52.1404340  16.6202110  62.8410530  52.2464030
  15.8737570  61.7041080  52.9112650  15.9102370  62.5648250  49.2976860
  16.1851210  63.4727130  49.1696080  15.7213110  62.5010780  50.2338850
  12.3077980  55.5893100  50.5930490  12.7262860  55.4024080  49.7527150
  12.0014040  54.7372150  50.9033420  15.8067710  60.5017240  54.2906290
  15.4311310  59.7345170  53.8587580  15.0770830  60.8839940  54.7781220
  15.1967330  59.6488760  63.9245810  14.9653420  59.4201510  63.0243760
  15.4571880  60.5688310  63.8790700  13.6355400  54.8745190  66.7025510
  14.5125580  54.8828590  67.0859510  13.6476240  54.1376030  66.0917860
  15.0818670  58.7274730  57.5913530  15.6056150  58.2337380  56.9603700
  15.6678090  58.8625090  58.3361100  15.2608390  58.8114600  61.1133080
  14.3111100  58.7778140  61.2278070  15.4421400  59.7214710  60.8782850
  14.5718640  57.9848080  53.5305940  15.0677760  57.7518950  54.3154820
  14.3734710  57.1459920  53.1143580  16.0005800  56.6209030  56.0643620
  15.8905080  56.4665070  57.0025890  16.7613390  56.0929970  55.8219030
  14.3471520  52.5603160  62.5226620  14.9843740  53.1737300  62.8885810
  14.4946410  52.5963820  61.5775850  16.8896070  54.4516950  49.3049760
  17.8145380  54.3198130  49.0968050  16.8671860  54.5309770  50.2586210
  16.9634560  55.2227610  51.9306470  16.1686060  55.1572730  52.4599380
  17.1677840  56.1578250  51.9191820   7.7176000  53.7129350  65.4301720
   7.6564890  54.3051180  66.1797130   8.6576380  53.6055310  65.2851980
  10.3550560  53.3699410  65.0694010  10.9690970  53.6878700  64.4075090
  10.9000120  52.8848000  65.6889870  11.0958600  51.9331550  61.3963300
  10.2218440  52.2666660  61.1936230  10.9869350  51.4604730  62.2215170
  12.0030580  54.1402420  62.7805020  11.6743940  53.3254180  62.4006750
  12.9512880  54.0972230  62.6570710   8.8433420  52.8501390  60.3356210
   8.0605210  53.3246890  60.6152970   8.5496350  51.9456220  60.2269390
  13.3954490  53.5524490  58.3805300  13.8362580  53.4969590  57.5326900
  13.1262080  54.4682500  58.4515480  15.2593060  53.1839730  56.3914120
  15.1981460  52.2400950  56.2445140  16.0385090  53.2919820  56.9367580
   6.7287640  55.2688140  55.8472240   5.9162150  54.8945030  55.5068120
   7.2329280  54.5133220  56.1493430  11.2312620  51.9330590  57.0855310
  11.8341990  52.5050800  57.5603830  10.4905610  52.4970030  56.8629210
  14.3747220  52.3352150  52.3595590  14.5697850  53.2335600  52.6263020
  13.5877090  52.1039230  52.8528540   2.5598980  53.6812920  51.3971900
   3.0891740  52.8942720  51.2679850   3.1927300  54.3604110  51.6307430
   4.7536820  53.4188060  54.4517290   4.1239560  52.7175370  54.6187420
   4.2141960  54.1792190  54.2350450   4.8792380  52.6972040  66.8869780
   4.5976650  53.2005640  66.1230600   5.2612080  51.8993790  66.5211910
  11.4807840  52.1125620  67.4650250  11.3673290  52.4320230  68.3601770
  12.2977580  52.5138130  67.1687530  10.3865990  60.1318090  37.8284990
  10.3060040  59.2172700  37.5576700   9.9730410  60.6285160  37.1224700
   8.5184030  61.9097110  39.7094260   7.7426130  61.4297550  39.9992830
   9.1696960  61.2302760  39.5350420   2.5349860  62.2216920  40.5870020
   1.7034740  61.9665630  40.9866530   3.1430840  62.2927690  41.3227940
   8.9898190  57.3924680  39.9433350   9.3663010  56.5196560  39.8307020
   8.8917700  57.7283380  39.0523790   3.1203200  55.7650310  35.4050790
   3.2269950  56.6654040  35.7119550   2.2095560  55.7168280  35.1145440
  12.7722310  54.8875120  36.8761690  13.5931930  54.3971690  36.9187170
  12.8056390  55.4772780  37.6293530   4.9610930  58.7336680  39.7375970
   5.4689150  59.2317650  40.3780990   5.4924170  57.9571880  39.5615330
  17.0621860  56.9041870  43.4405320  16.3574030  57.2923580  42.9220430
  17.3279780  57.5992160  44.0426250   3.2447030  53.3735240  44.0039390
   3.2465470  53.8907630  43.1985290   2.4151340  52.8965420  43.9809320
   4.4949880  63.0130420  42.1812890   4.1619260  63.6399340  42.8233960
   4.6716560  63.5392300  41.4014560  13.0083790  56.8275500  39.6489230
  12.3039360  57.1160390  40.2292340  13.3695950  57.6375610  39.2888790
   2.9262360  55.0845200  42.0109840   3.2679170  55.9287250  41.7163710
   1.9878170  55.2328940  42.1275180  16.0770710  56.2730290  40.0398440
  15.1295620  56.3069270  40.1713870  16.4020700  57.0869240  40.4247800
   6.6090250  52.5727470  38.3354430   6.9165230  52.0174360  37.6189930
   5.6790950  52.7071930  38.1527420  11.5590750  63.1924600  41.9544500
  11.9759540  62.9784710  41.1197960  12.2830570  63.4497390  42.5253120
   8.9971010  60.6376300  35.0714550   8.0700290  60.5713680  35.3003020
   9.1495830  61.5756430  34.9569790   8.9840090  56.9093300  32.0681710
   8.0443760  57.0707260  32.1534170   9.3023350  57.6278980  31.5217700
  15.5052850  61.5911820  42.0460740  14.6771480  61.6604910  41.5710870
  16.1003330  62.1766130  41.5776570  13.0268300  62.1996600  35.5749800
  12.4080720  61.8616150  34.9276100  13.0092750  61.5556360  36.2828990
  12.4694860  58.3781140  42.9915610  12.0566040  59.2034850  43.2455600
  11.7370810  57.7926180  42.7991970   4.6027650  61.1641040  37.8534280
   4.1984650  60.4518290  37.3580180   4.6890770  60.8194280  38.7422320
   3.3156270  57.9384250  41.6333320   3.8670860  58.0479590  40.8586570
   3.8299780  58.3121850  42.3488550  11.2033000  61.4383410  32.5822550
  11.6426280  60.6005840  32.4360370  11.9161420  62.0712810  32.6686690
   2.9899000  61.4603610  45.2438660   2.8506770  62.3326410  45.6126060
   2.1080360  61.1176420  45.0986600  14.7850140  52.6926220  30.8963590
  14.4722800  52.7853050  31.7962660  15.5462610  53.2707250  30.8461020
  15.9951430  57.4297720  46.8737730  15.3795700  57.9377390  46.3453190
  15.6747850  56.5296050  46.8163670   3.7695940  53.4021090  38.7364600
   3.3264090  54.1830630  38.4049120   4.3280930  53.7250980  39.4435540
   8.0565750  56.2689610  44.3399920   7.5945120  56.4772630  45.1519860
   7.6543860  55.4548960  44.0370590  13.0570260  57.4898560  45.4696580
  12.2063850  57.1904310  45.7905650  12.8972050  57.7340570  44.5580400
  10.1519970  58.9900310  47.5695370  10.4773380  58.1564060  47.2297600
  10.9400300  59.5128830  47.7173700   6.8854760  53.0231790  33.6170430
   6.2608940  53.0191660  34.3423740   6.7984880  52.1562750  33.2206400
   5.8071840  53.9468420  40.5954200   6.1044170  54.8531250  40.5146220
   6.3557400  53.4587200  39.9813770   3.5610160  58.5254660  36.4645850
   3.3351080  58.3091830  37.3692470   2.7802690  58.9583120  36.1191820
  10.7907920  58.5318030  35.0636500  10.1916810  59.2553830  34.8800120
  11.3387530  58.4694810  34.2812950   6.0009370  59.4240240  47.1306120
   5.9052970  58.4834970  46.9806520   6.8441350  59.6455310  46.7354190
   9.3972790  57.1681570  37.0939780   9.7902360  57.4853770  36.2808470
   9.7589640  56.2893450  37.2084300   7.7064960  55.9188880  48.3536640
   7.0163280  55.7261080  48.9882730   8.4497260  56.2023520  48.8860940
   9.9827930  59.7587320  41.1890560   9.2509050  60.2674130  41.5380660
   9.5852270  58.9417300  40.8879340   6.4205320  56.4341520  39.5943050
   6.4241380  55.9931470  38.7447590   7.3156440  56.7558850  39.7014870
   2.2707700  56.3168010  38.5537260   1.9307750  56.7943240  39.3104310
   1.5085020  55.8633130  38.1938360   6.4825470  57.4353600  32.5849810
   6.6038290  57.3940080  33.5335630   6.0973980  58.2977750  32.4296540
  10.4453840  55.2121000  40.6013500  10.4626580  55.6629650  41.4455350
  10.1969420  54.3126640  40.8146940   5.4946970  59.7454740  31.9833110
   4.9263870  59.2972990  31.3569020   6.2035970  60.1047520  31.4498260
  13.8724590  52.6253180  46.4399880  14.1970360  51.8942840  46.9657860
  13.9081100  52.3066820  45.5380870   6.7213290  60.4943300  41.3408460
   7.0883420  60.0201870  42.0869800   6.5318350  61.3684870  41.6816800
   4.5112660  59.5351940  43.6592670   4.2069730  60.4143920  43.8843030
   5.4659120  59.5951730  43.6950110   3.0394450  63.7412930  34.2559520
   2.2656710  63.2010550  34.0958240   3.7689080  63.2219540  33.9177280
  13.7982430  62.7378290  40.0485910  14.5181550  63.2333580  39.6582020
  13.5964250  62.0596180  39.4039780   9.2592370  54.1316250  34.1915300
   8.4456980  53.6329420  34.1160610   9.0654320  54.9714500  33.7751650
   9.1801230  62.8087350  45.9354910   9.1138540  61.8883020  45.6812500
   8.5506370  62.9062790  46.6499550  11.9740760  58.5035900  32.4877460
  12.8620380  58.8153130  32.3128800  11.9445850  57.6308150  32.0958040
   3.0831850  63.4093310  37.8938330   3.6010520  62.6061570  37.8395220
   2.6315870  63.3472450  38.7355160   3.7689510  60.8338920  47.6903580
   3.4689650  60.9796100  46.7931400   4.5400750  60.2744210  47.5976970
  14.2455030  59.8147740  31.9557320  14.1618750  60.2461960  31.1053760
  14.9649220  60.2746090  32.3884140  15.3229170  62.2715260  45.0327290
  14.5977360  62.8644040  44.8356680  15.8504630  62.2638800  44.2340660
   6.2419250  61.7619150  35.5506910   6.6982030  62.5724400  35.7767100
   5.8907460  61.4442290  36.3825400  10.6363740  56.3570230  43.2337580
  11.0044560  55.5365440  43.5617150   9.7761940  56.4172120  43.6493230
  14.0025770  55.3127170  34.0425140  13.3738930  55.4172840  33.3283370
  13.5077690  55.5323950  34.8319020   5.9709800  57.5913120  35.4583020
   5.2625950  58.0599460  35.8996630   6.2554280  56.9335130  36.0928210
   7.5965730  59.0109820  43.4575550   8.0950980  59.4855640  44.1227400
   7.7388680  58.0873340  43.6645580  10.0025230  54.3163780  36.8978810
   9.8793010  54.3349910  35.9488320  10.9509790  54.3642720  37.0177210
   4.1744820  55.8998200  32.8333730   5.0235350  56.3368350  32.7673920
   3.8076090  56.2118460  33.6605790  14.8032590  55.2277780  44.3003940
  14.3006190  55.9683180  44.6397750  15.6189250  55.6161780  43.9840730
  13.0954600  60.4710960  37.7465300  12.1544740  60.4861190  37.9212990
  13.4098670  59.6846920  38.1925600   3.0736240  62.1530560  31.3069260
   3.8399510  62.0411920  31.8694690   3.1510930  61.4568530  30.6546030
   1.7683000  59.5855630  31.9902150   1.8486590  58.6383140  32.1019550
   2.6602750  59.9162510  32.0962810   6.3491740  62.8141540  46.7593840
   5.5837410  63.3826540  46.6748510   6.5307700  62.5217750  45.8662070
   9.4380150  63.1904770  31.3846600   8.8890250  63.6374070  32.0289340
  10.0599410  62.6854020  31.9084270   5.1055270  62.1495690  33.2811900
   5.5271690  61.9835560  34.1243290   5.2306110  61.3395920  32.7867040
   3.2682690  58.1292240  46.0882880   2.7379150  57.6383190  45.4606220
   3.9370760  58.5576440  45.5540810   7.6182910  61.1733300  30.5289000
   8.1388570  60.4582320  30.1630150   8.2651310  61.8119170  30.8289510
  12.1660750  62.5961700  45.8524070  12.5801770  62.7506780  46.7014490
  11.2311750  62.7216920  46.0149850  12.6382920  59.9357860  47.8563220
  13.2203690  59.1810180  47.7683700  12.8144690  60.4665300  47.0794700
   3.7554990  55.0954610  46.1680170   3.6611860  54.4775360  45.4431040
   3.1752380  55.8220900  45.9410080   6.5216430  53.6527850  43.2007560
   6.0733730  53.6752110  42.3553110   5.8881630  53.2546870  43.7977860
   6.9275980  62.5482180  43.8220000   7.3464090  63.3914910  43.6496240
   6.0084610  62.6854220  43.5926780   9.2639880  60.2798360  45.2057840
   9.3836090  59.6839500  45.9452680  10.1233880  60.3168050  44.7859140
  11.6027780  60.8335550  43.7820350  11.0763000  61.3578170  43.1785490
  11.9459120  61.4662940  44.4130080   4.0014170  58.2228920  30.2270060
   3.8003230  57.3596280  30.5883400   3.8306220  58.1362280  29.2891660
   6.0308650  56.8219710  46.4633660   6.6208340  56.5135560  47.1511480
   5.2128890  56.3499460  46.6193560  10.8502080  56.4385520  46.6966680
  10.1617600  55.7767060  46.6316670  11.5708100  55.9923790  47.1415140
  11.4802480  53.0337150  32.7556940  11.7604770  52.1905050  33.1116360
  10.7068210  53.2660260  33.2695690   2.7996970  55.3229540  30.2147940
   3.1022870  55.3296970  29.3067090   3.5391560  54.9727400  30.7115600
   6.0181900  54.2664160  31.2004140   5.6703900  53.5888150  30.6206590
   6.2194670  53.8053670  32.0147530  15.8583200  62.2713880  33.3660850
  16.6202110  62.8410530  33.4720540  15.8737570  61.7041080  34.1369160
  15.9102370  62.5648250  30.5233370  16.1851210  63.4727130  30.3952590
  15.7213110  62.5010780  31.4595360  12.3077980  55.5893100  31.8187000
  12.7262860  55.4024080  30.9783660  12.0014040  54.7372150  32.1289930
  15.8067710  60.5017240  35.5162800  15.4311310  59.7345170  35.0844090
  15.0770830  60.8839940  36.0037730  15.1967330  59.6488760  45.1502320
  14.9653420  59.4201510  44.2500270  15.4571880  60.5688310  45.1047210
  13.6355400  54.8745190  47.9282020  14.5125580  54.8828590  48.3116020
  13.6476240  54.1376030  47.3174370  15.0818670  58.7274730  38.8170040
  15.6056150  58.2337380  38.1860210  15.6678090  58.8625090  39.5617610
  15.2608390  58.8114600  42.3389590  14.3111100  58.7778140  42.4534580
  15.4421400  59.7214710  42.1039360  14.5718640  57.9848080  34.7562450
  15.0677760  57.7518950  35.5411330  14.3734710  57.1459920  34.3400090
  16.0005800  56.6209030  37.2900130  15.8905080  56.4665070  38.2282400
  16.7613390  56.0929970  37.0475540  14.3471520  52.5603160  43.7483130
  14.9843740  53.1737300  44.1142320  14.4946410  52.5963820  42.8032360
  16.8896070  54.4516950  30.5306270  17.8145380  54.3198130  30.3224560
  16.8671860  54.5309770  31.4842720  16.9634560  55.2227610  33.1562980
  16.1686060  55.1572730  33.6855890  17.1677840  56.1578250  33.1448330
   7.7176000  53.7129350  46.6558230   7.6564890  54.3051180  47.4053640
   8.6576380  53.6055310  46.5108490  10.3550560  53.3699410  46.2950520
  10.9690970  53.6878700  45.6331600  10.9000120  52.8848000  46.9146380
  11.0958600  51.9331550  42.6219810  10.2218440  52.2666660  42.4192740
  10.9869350  51.4604730  43.4471680  12.0030580  54.1402420  44.0061530
  11.6743940  53.3254180  43.6263260  12.9512880  54.0972230  43.8827220
   8.8433420  52.8501390  41.5612720   8.0605210  53.3246890  41.8409480
   8.5496350  51.9456220  41.4525900  13.3954490  53.5524490  39.6061810
  13.8362580  53.4969590  38.7583410  13.1262080  54.4682500  39.6771990
  15.2593060  53.1839730  37.6170630  15.1981460  52.2400950  37.4701650
  16.0385090  53.2919820  38.1624090   6.7287640  55.2688140  37.0728750
   5.9162150  54.8945030  36.7324630   7.2329280  54.5133220  37.3749940
  11.2312620  51.9330590  38.3111820  11.8341990  52.5050800  38.7860340
  10.4905610  52.4970030  38.0885720  14.3747220  52.3352150  33.5852100
  14.5697850  53.2335600  33.8519530  13.5877090  52.1039230  34.0785050
   2.5598980  53.6812920  32.6228410   3.0891740  52.8942720  32.4936360
   3.1927300  54.3604110  32.8563940   4.7536820  53.4188060  35.6773800
   4.1239560  52.7175370  35.8443930   4.2141960  54.1792190  35.4606960
   4.8792380  52.6972040  48.1126290   4.5976650  53.2005640  47.3487110
   5.2612080  51.8993790  47.7468420  11.4807840  52.1125620  48.6906760
  11.3673290  52.4320230  49.5858280  12.2977580  52.5138130  48.3944040
  10.3865990  60.1318090  19.0541500  10.3060040  59.2172700  18.7833210
   9.9730410  60.6285160  18.3481210   8.5184030  61.9097110  20.9350770
   7.7426130  61.4297550  21.2249340   9.1696960  61.2302760  20.7606930
   2.5349860  62.2216920  21.8126530   1.7034740  61.9665630  22.2123040
   3.1430840  62.2927690  22.5484450   8.9898190  57.3924680  21.1689860
   9.3663010  56.5196560  21.0563530   8.8917700  57.7283380  20.2780300
   3.1203200  55.7650310  16.6307300   3.2269950  56.6654040  16.9376060
   2.2095560  55.7168280  16.3401950  12.7722310  54.8875120  18.1018200
  13.5931930  54.3971690  18.1443680  12.8056390  55.4772780  18.8550040
   4.9610930  58.7336680  20.9632480   5.4689150  59.2317650  21.6037500
   5.4924170  57.9571880  20.7871840  17.0621860  56.9041870  24.6661830
  16.3574030  57.2923580  24.1476940  17.3279780  57.5992160  25.2682760
   3.2447030  53.3735240  25.2295900   3.2465470  53.8907630  24.4241800
   2.4151340  52.8965420  25.2065830   4.4949880  63.0130420  23.4069400
   4.1619260  63.6399340  24.0490470   4.6716560  63.5392300  22.6271070
  13.0083790  56.8275500  20.8745740  12.3039360  57.1160390  21.4548850
  13.3695950  57.6375610  20.5145300   2.9262360  55.0845200  23.2366350
   3.2679170  55.9287250  22.9420220   1.9878170  55.2328940  23.3531690
  16.0770710  56.2730290  21.2654950  15.1295620  56.3069270  21.3970380
  16.4020700  57.0869240  21.6504310   6.6090250  52.5727470  19.5610940
   6.9165230  52.0174360  18.8446440   5.6790950  52.7071930  19.3783930
  11.5590750  63.1924600  23.1801010  11.9759540  62.9784710  22.3454470
  12.2830570  63.4497390  23.7509630   8.9971010  60.6376300  16.2971060
   8.0700290  60.5713680  16.5259530   9.1495830  61.5756430  16.1826300
   8.9840090  56.9093300  13.2938220   8.0443760  57.0707260  13.3790680
   9.3023350  57.6278980  12.7474210  15.5052850  61.5911820  23.2717250
  14.6771480  61.6604910  22.7967380  16.1003330  62.1766130  22.8033080
  13.0268300  62.1996600  16.8006310  12.4080720  61.8616150  16.1532610
  13.0092750  61.5556360  17.5085500  12.4694860  58.3781140  24.2172120
  12.0566040  59.2034850  24.4712110  11.7370810  57.7926180  24.0248480
   4.6027650  61.1641040  19.0790790   4.1984650  60.4518290  18.5836690
   4.6890770  60.8194280  19.9678830   3.3156270  57.9384250  22.8589830
   3.8670860  58.0479590  22.0843080   3.8299780  58.3121850  23.5745060
  11.2033000  61.4383410  13.8079060  11.6426280  60.6005840  13.6616880
  11.9161420  62.0712810  13.8943200   2.9899000  61.4603610  26.4695170
   2.8506770  62.3326410  26.8382570   2.1080360  61.1176420  26.3243110
  14.7850140  52.6926220  12.1220100  14.4722800  52.7853050  13.0219170
  15.5462610  53.2707250  12.0717530  15.9951430  57.4297720  28.0994240
  15.3795700  57.9377390  27.5709700  15.6747850  56.5296050  28.0420180
   3.7695940  53.4021090  19.9621110   3.3264090  54.1830630  19.6305630
   4.3280930  53.7250980  20.6692050   8.0565750  56.2689610  25.5656430
   7.5945120  56.4772630  26.3776370   7.6543860  55.4548960  25.2627100
  13.0570260  57.4898560  26.6953090  12.2063850  57.1904310  27.0162160
  12.8972050  57.7340570  25.7836910  10.1519970  58.9900310  28.7951880
  10.4773380  58.1564060  28.4554110  10.9400300  59.5128830  28.9430210
   6.8854760  53.0231790  14.8426940   6.2608940  53.0191660  15.5680250
   6.7984880  52.1562750  14.4462910   5.8071840  53.9468420  21.8210710
   6.1044170  54.8531250  21.7402730   6.3557400  53.4587200  21.2070280
   3.5610160  58.5254660  17.6902360   3.3351080  58.3091830  18.5948980
   2.7802690  58.9583120  17.3448330  10.7907920  58.5318030  16.2893010
  10.1916810  59.2553830  16.1056630  11.3387530  58.4694810  15.5069460
   6.0009370  59.4240240  28.3562630   5.9052970  58.4834970  28.2063030
   6.8441350  59.6455310  27.9610700   9.3972790  57.1681570  18.3196290
   9.7902360  57.4853770  17.5064980   9.7589640  56.2893450  18.4340810
   7.7064960  55.9188880  29.5793150   7.0163280  55.7261080  30.2139240
   8.4497260  56.2023520  30.1117450   9.9827930  59.7587320  22.4147070
   9.2509050  60.2674130  22.7637170   9.5852270  58.9417300  22.1135850
   6.4205320  56.4341520  20.8199560   6.4241380  55.9931470  19.9704100
   7.3156440  56.7558850  20.9271380   2.2707700  56.3168010  19.7793770
   1.9307750  56.7943240  20.5360820   1.5085020  55.8633130  19.4194870
   6.4825470  57.4353600  13.8106320   6.6038290  57.3940080  14.7592140
   6.0973980  58.2977750  13.6553050  10.4453840  55.2121000  21.8270010
  10.4626580  55.6629650  22.6711860  10.1969420  54.3126640  22.0403450
   5.4946970  59.7454740  13.2089620   4.9263870  59.2972990  12.5825530
   6.2035970  60.1047520  12.6754770  13.8724590  52.6253180  27.6656390
  14.1970360  51.8942840  28.1914370  13.9081100  52.3066820  26.7637380
   6.7213290  60.4943300  22.5664970   7.0883420  60.0201870  23.3126310
   6.5318350  61.3684870  22.9073310   4.5112660  59.5351940  24.8849180
   4.2069730  60.4143920  25.1099540   5.4659120  59.5951730  24.9206620
   3.0394450  63.7412930  15.4816030   2.2656710  63.2010550  15.3214750
   3.7689080  63.2219540  15.1433790  13.7982430  62.7378290  21.2742420
  14.5181550  63.2333580  20.8838530  13.5964250  62.0596180  20.6296290
   9.2592370  54.1316250  15.4171810   8.4456980  53.6329420  15.3417120
   9.0654320  54.9714500  15.0008160   9.1801230  62.8087350  27.1611420
   9.1138540  61.8883020  26.9069010   8.5506370  62.9062790  27.8756060
  11.9740760  58.5035900  13.7133970  12.8620380  58.8153130  13.5385310
  11.9445850  57.6308150  13.3214550   3.0831850  63.4093310  19.1194840
   3.6010520  62.6061570  19.0651730   2.6315870  63.3472450  19.9611670
   3.7689510  60.8338920  28.9160090   3.4689650  60.9796100  28.0187910
   4.5400750  60.2744210  28.8233480  14.2455030  59.8147740  13.1813830
  14.1618750  60.2461960  12.3310270  14.9649220  60.2746090  13.6140650
  15.3229170  62.2715260  26.2583800  14.5977360  62.8644040  26.0613190
  15.8504630  62.2638800  25.4597170   6.2419250  61.7619150  16.7763420
   6.6982030  62.5724400  17.0023610   5.8907460  61.4442290  17.6081910
  10.6363740  56.3570230  24.4594090  11.0044560  55.5365440  24.7873660
   9.7761940  56.4172120  24.8749740  14.0025770  55.3127170  15.2681650
  13.3738930  55.4172840  14.5539880  13.5077690  55.5323950  16.0575530
   5.9709800  57.5913120  16.6839530   5.2625950  58.0599460  17.1253140
   6.2554280  56.9335130  17.3184720   7.5965730  59.0109820  24.6832060
   8.0950980  59.4855640  25.3483910   7.7388680  58.0873340  24.8902090
  10.0025230  54.3163780  18.1235320   9.8793010  54.3349910  17.1744830
  10.9509790  54.3642720  18.2433720   4.1744820  55.8998200  14.0590240
   5.0235350  56.3368350  13.9930430   3.8076090  56.2118460  14.8862300
  14.8032590  55.2277780  25.5260450  14.3006190  55.9683180  25.8654260
  15.6189250  55.6161780  25.2097240  13.0954600  60.4710960  18.9721810
  12.1544740  60.4861190  19.1469500  13.4098670  59.6846920  19.4182110
   3.0736240  62.1530560  12.5325770   3.8399510  62.0411920  13.0951200
   3.1510930  61.4568530  11.8802540   1.7683000  59.5855630  13.2158660
   1.8486590  58.6383140  13.3276060   2.6602750  59.9162510  13.3219320
   6.3491740  62.8141540  27.9850350   5.5837410  63.3826540  27.9005020
   6.5307700  62.5217750  27.0918580   9.4380150  63.1904770  12.6103110
   8.8890250  63.6374070  13.2545850  10.0599410  62.6854020  13.1340780
   5.1055270  62.1495690  14.5068410   5.5271690  61.9835560  15.3499800
   5.2306110  61.3395920  14.0123550   3.2682690  58.1292240  27.3139390
   2.7379150  57.6383190  26.6862730   3.9370760  58.5576440  26.7797320
   7.6182910  61.1733300  11.7545510   8.1388570  60.4582320  11.3886660
   8.2651310  61.8119170  12.0546020  12.1660750  62.5961700  27.0780580
  12.5801770  62.7506780  27.9271000  11.2311750  62.7216920  27.2406360
  12.6382920  59.9357860  29.0819730  13.2203690  59.1810180  28.9940210
  12.8144690  60.4665300  28.3051210   3.7554990  55.0954610  27.3936680
   3.6611860  54.4775360  26.6687550   3.1752380  55.8220900  27.1666590
   6.5216430  53.6527850  24.4264070   6.0733730  53.6752110  23.5809620
   5.8881630  53.2546870  25.0234370   6.9275980  62.5482180  25.0476510
   7.3464090  63.3914910  24.8752750   6.0084610  62.6854220  24.8183290
   9.2639880  60.2798360  26.4314350   9.3836090  59.6839500  27.1709190
  10.1233880  60.3168050  26.0115650  11.6027780  60.8335550  25.0076860
  11.0763000  61.3578170  24.4042000  11.9459120  61.4662940  25.6386590
   4.0014170  58.2228920  11.4526570   3.8003230  57.3596280  11.8139910
   3.8306220  58.1362280  10.5148170   6.0308650  56.8219710  27.6890170
   6.6208340  56.5135560  28.3767990   5.2128890  56.3499460  27.8450070
  10.8502080  56.4385520  27.9223190  10.1617600  55.7767060  27.8573180
  11.5708100  55.9923790  28.3671650  11.4802480  53.0337150  13.9813450
  11.7604770  52.1905050  14.3372870  10.7068210  53.2660260  14.4952200
   2.7996970  55.3229540  11.4404450   3.1022870  55.3296970  10.5323600
   3.5391560  54.9727400  11.9372110   6.0181900  54.2664160  12.4260650
   5.6703900  53.5888150  11.8463100   6.2194670  53.8053670  13.2404040
  15.8583200  62.2713880  14.5917360  16.6202110  62.8410530  14.6977050
  15.8737570  61.7041080  15.3625670  15.9102370  62.5648250  11.7489880
  16.1851210  63.4727130  11.6209100  15.7213110  62.5010780  12.6851870
  12.3077980  55.5893100  13.0443510  12.7262860  55.4024080  12.2040170
  12.0014040  54.7372150  13.3546440  15.8067710  60.5017240  16.7419310
  15.4311310  59.7345170  16.3100600  15.0770830  60.8839940  17.2294240
  15.1967330  59.6488760  26.3758830  14.9653420  59.4201510  25.4756780
  15.4571880  60.5688310  26.3303720  13.6355400  54.8745190  29.1538530
  14.5125580  54.8828590  29.5372530  13.6476240  54.1376030  28.5430880
  15.0818670  58.7274730  20.0426550  15.6056150  58.2337380  19.4116720
  15.6678090  58.8625090  20.7874120  15.2608390  58.8114600  23.5646100
  14.3111100  58.7778140  23.6791090  15.4421400  59.7214710  23.3295870
  14.5718640  57.9848080  15.9818960  15.0677760  57.7518950  16.7667840
  14.3734710  57.1459920  15.5656600  16.0005800  56.6209030  18.5156640
  15.8905080  56.4665070  19.4538910  16.7613390  56.0929970  18.2732050
  14.3471520  52.5603160  24.9739640  14.9843740  53.1737300  25.3398830
  14.4946410  52.5963820  24.0288870  16.8896070  54.4516950  11.7562780
  17.8145380  54.3198130  11.5481070  16.8671860  54.5309770  12.7099230
  16.9634560  55.2227610  14.3819490  16.1686060  55.1572730  14.9112400
  17.1677840  56.1578250  14.3704840   7.7176000  53.7129350  27.8814740
   7.6564890  54.3051180  28.6310150   8.6576380  53.6055310  27.7365000
  10.3550560  53.3699410  27.5207030  10.9690970  53.6878700  26.8588110
  10.9000120  52.8848000  28.1402890  11.0958600  51.9331550  23.8476320
  10.2218440  52.2666660  23.6449250  10.9869350  51.4604730  24.6728190
  12.0030580  54.1402420  25.2318040  11.6743940  53.3254180  24.8519770
  12.9512880  54.0972230  25.1083730   8.8433420  52.8501390  22.7869230
   8.0605210  53.3246890  23.0665990   8.5496350  51.9456220  22.6782410
  13.3954490  53.5524490  20.8318320  13.8362580  53.4969590  19.9839920
  13.1262080  54.4682500  20.9028500  15.2593060  53.1839730  18.8427140
  15.1981460  52.2400950  18.6958160  16.0385090  53.2919820  19.3880600
   6.7287640  55.2688140  18.2985260   5.9162150  54.8945030  17.9581140
   7.2329280  54.5133220  18.6006450  11.2312620  51.9330590  19.5368330
  11.8341990  52.5050800  20.0116850  10.4905610  52.4970030  19.3142230
  14.3747220  52.3352150  14.8108610  14.5697850  53.2335600  15.0776040
  13.5877090  52.1039230  15.3041560   2.5598980  53.6812920  13.8484920
   3.0891740  52.8942720  13.7192870   3.1927300  54.3604110  14.0820450
   4.7536820  53.4188060  16.9030310   4.1239560  52.7175370  17.0700440
   4.2141960  54.1792190  16.6863470   4.8792380  52.6972040  29.3382800
   4.5976650  53.2005640  28.5743620   5.2612080  51.8993790  28.9724930
  11.4807840  52.1125620  29.9163270  11.3673290  52.4320230  30.8114790
  12.2977580  52.5138130  29.6200550   8.5184030  61.9097110   2.1607280
   7.7426130  61.4297550   2.4505850   9.1696960  61.2302760   1.9863440
   2.5349860  62.2216920   3.0383040   1.7034740  61.9665630   3.4379550
   3.1430840  62.2927690   3.7740960   4.9610930  58.7336680   2.1888990
   5.4689150  59.2317650   2.8294010   5.4924170  57.9571880   2.0128350
  17.0621860  56.9041870   5.8918340  16.3574030  57.2923580   5.3733450
  17.3279780  57.5992160   6.4939270   3.2447030  53.3735240   6.4552410
   3.2465470  53.8907630   5.6498310   2.4151340  52.8965420   6.4322340
   4.4949880  63.0130420   4.6325910   4.1619260  63.6399340   5.2746980
   4.6716560  63.5392300   3.8527580  13.0083790  56.8275500   2.1002250
  12.3039360  57.1160390   2.6805360  13.3695950  57.6375610   1.7401810
   2.9262360  55.0845200   4.4622860   3.2679170  55.9287250   4.1676730
   1.9878170  55.2328940   4.5788200  16.0770710  56.2730290   2.4911460
  15.1295620  56.3069270   2.6226890  16.4020700  57.0869240   2.8760820
  11.5590750  63.1924600   4.4057520  11.9759540  62.9784710   3.5710980
  12.2830570  63.4497390   4.9766140  15.5052850  61.5911820   4.4973760
  14.6771480  61.6604910   4.0223890  16.1003330  62.1766130   4.0289590
  12.4694860  58.3781140   5.4428630  12.0566040  59.2034850   5.6968620
  11.7370810  57.7926180   5.2504990   3.3156270  57.9384250   4.0846340
   3.8670860  58.0479590   3.3099590   3.8299780  58.3121850   4.8001570
   2.9899000  61.4603610   7.6951680   2.8506770  62.3326410   8.0639080
   2.1080360  61.1176420   7.5499620  15.9951430  57.4297720   9.3250750
  15.3795700  57.9377390   8.7966210  15.6747850  56.5296050   9.2676690
   8.0565750  56.2689610   6.7912940   7.5945120  56.4772630   7.6032880
   7.6543860  55.4548960   6.4883610  13.0570260  57.4898560   7.9209600
  12.2063850  57.1904310   8.2418670  12.8972050  57.7340570   7.0093420
  10.1519970  58.9900310  10.0208390  10.4773380  58.1564060   9.6810620
  10.9400300  59.5128830  10.1686720   5.8071840  53.9468420   3.0467220
   6.1044170  54.8531250   2.9659240   6.3557400  53.4587200   2.4326790
   6.0009370  59.4240240   9.5819140   5.9052970  58.4834970   9.4319540
   6.8441350  59.6455310   9.1867210   7.7064960  55.9188880  10.8049660
   7.0163280  55.7261080  11.4395750   8.4497260  56.2023520  11.3373960
   9.9827930  59.7587320   3.6403580   9.2509050  60.2674130   3.9893680
   9.5852270  58.9417300   3.3392360  10.4453840  55.2121000   3.0526520
  10.4626580  55.6629650   3.8968370  10.1969420  54.3126640   3.2659960
  13.8724590  52.6253180   8.8912900  14.1970360  51.8942840   9.4170880
  13.9081100  52.3066820   7.9893890   6.7213290  60.4943300   3.7921480
   7.0883420  60.0201870   4.5382820   6.5318350  61.3684870   4.1329820
   4.5112660  59.5351940   6.1105690   4.2069730  60.4143920   6.3356050
   5.4659120  59.5951730   6.1463130  13.7982430  62.7378290   2.4998930
  14.5181550  63.2333580   2.1095040  13.5964250  62.0596180   1.8552800
   9.1801230  62.8087350   8.3867930   9.1138540  61.8883020   8.1325520
   8.5506370  62.9062790   9.1012570   3.7689510  60.8338920  10.1416600
   3.4689650  60.9796100   9.2444420   4.5400750  60.2744210  10.0489990
  15.3229170  62.2715260   7.4840310  14.5977360  62.8644040   7.2869700
  15.8504630  62.2638800   6.6853680  10.6363740  56.3570230   5.6850600
  11.0044560  55.5365440   6.0130170   9.7761940  56.4172120   6.1006250
   7.5965730  59.0109820   5.9088570   8.0950980  59.4855640   6.5740420
   7.7388680  58.0873340   6.1158600  14.8032590  55.2277780   6.7516960
  14.3006190  55.9683180   7.0910770  15.6189250  55.6161780   6.4353750
   6.3491740  62.8141540   9.2106860   5.5837410  63.3826540   9.1261530
   6.5307700  62.5217750   8.3175090   3.2682690  58.1292240   8.5395900
   2.7379150  57.6383190   7.9119240   3.9370760  58.5576440   8.0053830
  12.1660750  62.5961700   8.3037090  12.5801770  62.7506780   9.1527510
  11.2311750  62.7216920   8.4662870  12.6382920  59.9357860  10.3076240
  13.2203690  59.1810180  10.2196720  12.8144690  60.4665300   9.5307720
   3.7554990  55.0954610   8.6193190   3.6611860  54.4775360   7.8944060
   3.1752380  55.8220900   8.3923100   6.5216430  53.6527850   5.6520580
   6.0733730  53.6752110   4.8066130   5.8881630  53.2546870   6.2490880
   6.9275980  62.5482180   6.2733020   7.3464090  63.3914910   6.1009260
   6.0084610  62.6854220   6.0439800   9.2639880  60.2798360   7.6570860
   9.3836090  59.6839500   8.3965700  10.1233880  60.3168050   7.2372160
  11.6027780  60.8335550   6.2333370  11.0763000  61.3578170   5.6298510
  11.9459120  61.4662940   6.8643100   6.0308650  56.8219710   8.9146680
   6.6208340  56.5135560   9.6024500   5.2128890  56.3499460   9.0706580
  10.8502080  56.4385520   9.1479700  10.1617600  55.7767060   9.0829690
  11.5708100  55.9923790   9.5928160  15.1967330  59.6488760   7.6015340
  14.9653420  59.4201510   6.7013290  15.4571880  60.5688310   7.5560230
  13.6355400  54.8745190  10.3795040  14.5125580  54.8828590  10.7629040
  13.6476240  54.1376030   9.7687390  15.2608390  58.8114600   4.7902610
  14.3111100  58.7778140   4.9047600  15.4421400  59.7214710   4.5552380
  14.3471520  52.5603160   6.1996150  14.9843740  53.1737300   6.5655340
  14.4946410  52.5963820   5.2545380   7.7176000  53.7129350   9.1071250
   7.6564890  54.3051180   9.8566660   8.6576380  53.6055310   8.9621510
  10.3550560  53.3699410   8.7463540  10.9690970  53.6878700   8.0844620
  10.9000120  52.8848000   9.3659400  11.0958600  51.9331550   5.0732830
  10.2218440  52.2666660   4.8705760  10.9869350  51.4604730   5.8984700
  12.0030580  54.1402420   6.4574550  11.6743940  53.3254180   6.0776280
  12.9512880  54.0972230   6.3340240   8.8433420  52.8501390   4.0125740
   8.0605210  53.3246890   4.2922500   8.5496350  51.9456220   3.9038920
   4.8792380  52.6972040  10.5639310   4.5976650  53.2005640   9.8000130
   5.2612080  51.8993790  10.1981440  11.4807840  52.1125620  11.1419780
  11.3673290  52.4320230  12.0371300  12.2977580  52.5138130  10.8457060
  10.3865990  41.3574600  75.3771970  10.3060040  40.4429210  75.1063680
   9.9730410  41.8541670  74.6711680  12.5391460  47.5413810  76.0380370
  12.0772990  46.7701050  76.3667540  13.3517010  47.5679880  76.5432820
   8.7654770  49.8271820  75.6584360   8.1466210  50.2829320  75.0878800
   9.6206550  49.9823280  75.2574060   3.1203200  36.9906820  72.9537770
   3.2269950  37.8910550  73.2606530   2.2095560  36.9424790  72.6632420
  12.7722310  36.1131630  74.4248670  13.5931930  35.6228200  74.4674150
  12.8056390  36.7029290  75.1780510   9.6318120  44.7111060  73.0516270
   9.0135390  45.1760510  72.4878990  10.1441370  45.4038540  73.4685780
   6.6090250  33.7983980  75.8841410   6.9165230  33.2430870  75.1676910
   5.6790950  33.9328440  75.7014400  13.4550730  46.2367490  73.2639040
  13.3447060  45.2941820  73.3888460  13.4518980  46.5983130  74.1501800
   8.9971010  41.8632810  72.6201530   8.0700290  41.7970190  72.8490000
   9.1495830  42.8012940  72.5056770   8.9840090  38.1349810  69.6168690
   8.0443760  38.2963770  69.7021150   9.3023350  38.8535490  69.0704680
  13.0268300  43.4253110  73.1236780  12.4080720  43.0872660  72.4763080
  13.0092750  42.7812870  73.8315970   4.6027650  42.3897550  75.4021260
   4.1984650  41.6774800  74.9067160   4.6890770  42.0450790  76.2909300
  11.2033000  42.6639920  70.1309530  11.6426280  41.8262350  69.9847350
  11.9161420  43.2969320  70.2173670   9.3128380  47.6035990  74.0990770
   9.7524290  48.3460320  73.6846160   9.2515270  47.8462560  75.0229730
  14.7850140  33.9182730  68.4450570  14.4722800  34.0109560  69.3449640
  15.5462610  34.4963760  68.3948000  11.9798560  50.5905110  71.4553780
  11.8199700  50.3008050  72.3535610  11.8145270  49.8145240  70.9199010
   4.4586940  50.3703640  73.2325400   4.2829420  49.4539180  73.0193200
   3.6042680  50.7290930  73.4723200  11.6824690  48.0992670  70.0151780
  10.9889850  48.0969960  69.3554060  12.4247550  47.6751990  69.5845950
  11.2474620  49.7255380  74.0900270  11.7031570  48.9444760  74.4038890
  11.5867140  50.4362200  74.6341450   3.7695940  34.6277600  76.2851580
   3.3264090  35.4087140  75.9536100   4.3280930  34.9507490  76.9922520
   6.8854760  34.2488300  71.1657410   6.2608940  34.2448170  71.8910720
   6.7984880  33.3819260  70.7693380   3.5610160  39.7511170  74.0132830
   3.3351080  39.5348340  74.9179450   2.7802690  40.1839630  73.6678800
  10.7907920  39.7574540  72.6123480  10.1916810  40.4810340  72.4287100
  11.3387530  39.6951320  71.8299930   9.3972790  38.3938080  74.6426760
   9.7902360  38.7110280  73.8295450   9.7589640  37.5149960  74.7571280
   2.2707700  37.5424520  76.1024240   1.9307750  38.0199750  76.8591290
   1.5085020  37.0889640  75.7425340   6.4825470  38.6610110  70.1336790
   6.6038290  38.6196590  71.0822610   6.0973980  39.5234260  69.9783520
   5.4946970  40.9711250  69.5320090   4.9263870  40.5229500  68.9056000
   6.2035970  41.3304030  68.9985240   3.0394450  44.9669440  71.8046500
   2.2656710  44.4267060  71.6445220   3.7689080  44.4476050  71.4664260
   9.2592370  35.3572760  71.7402280   8.4456980  34.8585930  71.6647590
   9.0654320  36.1971010  71.3238630  11.9740760  39.7292410  70.0364440
  12.8620380  40.0409640  69.8615780  11.9445850  38.8564660  69.6445020
   3.0831850  44.6349820  75.4425310   3.6010520  43.8318080  75.3882200
   2.6315870  44.5728960  76.2842140   7.9701350  45.9016100  70.7152610
   8.3117050  46.6458330  70.2195930   7.1414060  46.2147220  71.0777440
  14.2455030  41.0404250  69.5044300  14.1618750  41.4718470  68.6540740
  14.9649220  41.5002600  69.9371120  15.2742280  47.8946510  72.2326430
  14.6318440  47.2402130  72.5070150  14.8872940  48.3001600  71.4567100
  10.8528760  45.2231940  76.0798120  11.2052580  44.6260070  75.4199490
   9.9691090  44.8976170  76.2506370   6.9392040  45.9829630  73.4868530
   7.6263170  46.5298840  73.8676120   6.1524460  46.5270360  73.5218140
   6.2419250  42.9875660  73.0993890   6.6982030  43.7980910  73.3254080
   5.8907460  42.6698800  73.9312380  13.6639660  46.7862970  68.7702780
  13.4377240  46.0693410  69.3627420  13.2735860  46.5375410  67.9324530
  13.2455910  44.7034910  70.4316940  12.9577610  45.1647600  71.2194820
  14.0408080  44.2432680  70.7001160   5.4624310  48.1961030  70.3620910
   5.4534410  48.9290720  69.7465420   4.5422670  47.9492610  70.4547870
  14.0025770  36.5383680  71.5912120  13.3738930  36.6429350  70.8770350
  13.5077690  36.7580460  72.3806000   8.4483910  48.2589270  69.0246100
   8.5495890  48.0553260  68.0948080   7.5485650  48.0047550  69.2293880
   5.9709800  38.8169630  73.0070000   5.2625950  39.2855970  73.4483610
   6.2554280  38.1591640  73.6415190  10.0025230  35.5420290  74.4465790
   9.8793010  35.5606420  73.4975300  10.9509790  35.5899230  74.5664190
   7.0902020  50.7775590  73.7193770   7.3443520  50.7396980  72.7973140
   6.1414500  50.6508920  73.7122020   4.1744820  37.1254710  70.3820710
   5.0235350  37.5624860  70.3160900   3.8076090  37.4374970  71.2092770
  13.0954600  41.6967470  75.2952280  12.1544740  41.7117700  75.4699970
  13.4098670  40.9103430  75.7412580   3.0736240  43.3787070  68.8556240
   3.8399510  43.2668430  69.4181670   3.1510930  42.6825040  68.2033010
   1.7683000  40.8112140  69.5389130   1.8486590  39.8639650  69.6506530
   2.6602750  41.1419020  69.6449790   2.5697710  50.9607530  76.6423670
   3.3060190  50.4122990  76.9132240   2.9538630  51.8263540  76.5029660
   5.6800020  50.1337840  68.4649240   6.4728630  50.4226670  68.0131030
   5.1604370  49.7030010  67.7861720  14.7330190  49.3607970  69.8885980
  14.4471700  48.9473110  69.0740160  14.5349740  50.2895680  69.7686500
   6.1977420  45.3541250  68.3291590   6.0928060  44.7393600  69.0552970
   6.0301640  44.8307140  67.5454600   9.4380150  44.4161280  68.9333580
   8.8890250  44.8630580  69.5776320  10.0599410  43.9110530  69.4571250
   5.1055270  43.3752200  70.8298880   5.5271690  43.2092070  71.6730270
   5.2306110  42.5652430  70.3354020   7.6182910  42.3989810  68.0775980
   8.1388570  41.6838830  67.7117130   8.2651310  43.0375680  68.3776490
   4.0014170  39.4485430  67.7757040   3.8003230  38.5852790  68.1370380
   3.8306220  39.3618790  66.8378640  11.4802480  34.2593660  70.3043920
  11.7604770  33.4161560  70.6603340  10.7068210  34.4916770  70.8182670
   2.7996970  36.5486050  67.7634920   3.1022870  36.5553480  66.8554070
   3.5391560  36.1983910  68.2602580   6.0181900  35.4920670  68.7491120
   5.6703900  34.8144660  68.1693570   6.2194670  35.0310180  69.5634510
   8.1830940  50.4801420  70.3677720   9.0781730  50.8186390  70.3896480
   8.2148570  49.7580830  69.7402000   1.8227100  45.8528470  68.5964720
   2.2601970  46.3958140  69.2522300   2.3074830  45.0275420  68.6061060
   3.6334820  46.9726510  73.7086950   3.3330360  46.8491480  74.6090860
   3.5272310  46.1135100  73.3002680  16.4026740  46.7522910  68.4113630
  15.5719700  46.8199560  68.8820860  16.5798570  47.6427030  68.1080490
  15.8583200  43.4970390  70.9147830  16.6202110  44.0667040  71.0207520
  15.8737570  42.9297590  71.6856140  16.8643170  44.3520490  75.7589760
  17.2352000  43.5687810  75.3525730  17.5045100  45.0409590  75.5807060
  15.9102370  43.7904760  68.0720350  16.1851210  44.6983640  67.9439570
  15.7213110  43.7267290  69.0082340  12.3077980  36.8149610  69.3673980
  12.7262860  36.6280590  68.5270640  12.0014040  35.9628660  69.6776910
  15.8067710  41.7273750  73.0649780  15.4311310  40.9601680  72.6331070
  15.0770830  42.1096450  73.5524710  15.0818670  39.9531240  76.3657020
  15.6056150  39.4593890  75.7347190  15.6678090  40.0881600  77.1104590
  14.5718640  39.2104590  72.3049430  15.0677760  38.9775460  73.0898310
  14.3734710  38.3716430  71.8887070  16.0005800  37.8465540  74.8387110
  15.8905080  37.6921580  75.7769380  16.7613390  37.3186480  74.5962520
  16.8896070  35.6773460  68.0793250  17.8145380  35.5454640  67.8711540
  16.8671860  35.7566280  69.0329700  16.9634560  36.4484120  70.7049960
  16.1686060  36.3829240  71.2342870  17.1677840  37.3834760  70.6935310
  13.9052980  50.4875670  74.6988350  14.5012050  50.1660240  74.0222770
  14.1631130  50.0147490  75.4901620  15.2593060  34.4096240  75.1657610
  15.1981460  33.4657460  75.0188630  16.0385090  34.5176330  75.7111070
   6.7287640  36.4944650  74.6215730   5.9162150  36.1201540  74.2811610
   7.2329280  35.7389730  74.9236920  11.2312620  33.1587100  75.8598800
  11.8341990  33.7307310  76.3347320  10.4905610  33.7226540  75.6372700
  14.3747220  33.5608660  71.1339080  14.5697850  34.4592110  71.4006510
  13.5877090  33.3295740  71.6272030   2.5598980  34.9069430  70.1715390
   3.0891740  34.1199230  70.0423340   3.1927300  35.5860620  70.4050920
   4.7536820  34.6444570  73.2260780   4.1239560  33.9431880  73.3930910
   4.2141960  35.4048700  73.0093940  15.9273830  50.8009370  72.8945640
  16.1026020  50.1147110  72.2506560  15.2295400  51.3256420  72.5022310
   3.7701480  51.1904210  70.4480950   4.5020300  50.9063490  69.9004840
   4.0295150  50.9517490  71.3380330   2.9316270  47.3068940  70.4527280
   2.3025150  47.7754040  71.0013110   3.0464100  46.4618160  70.8873470
  10.3865990  41.3574600  56.6028480  10.3060040  40.4429210  56.3320190
   9.9730410  41.8541670  55.8968190   8.5184030  43.1353620  58.4837750
   7.7426130  42.6554060  58.7736320   9.1696960  42.4559270  58.3093910
   2.5349860  43.4473430  59.3613510   1.7034740  43.1922140  59.7610020
   3.1430840  43.5184200  60.0971430  12.5391460  47.5413810  57.2636880
  12.0772990  46.7701050  57.5924050  13.3517010  47.5679880  57.7689330
   2.5151120  47.4813520  59.5571530   2.8179160  46.5911260  59.3781750
   3.2594710  48.0383740  59.3293780   8.7654770  49.8271820  56.8840870
   8.1466210  50.2829320  56.3135310   9.6206550  49.9823280  56.4830570
   7.9593020  45.8110810  58.4907910   7.8901300  44.8700750  58.3297040
   8.7212880  45.9012220  59.0630480   8.9898190  38.6181190  58.7176840
   9.3663010  37.7453070  58.6050510   8.8917700  38.9539890  57.8267280
   3.1203200  36.9906820  54.1794280   3.2269950  37.8910550  54.4863040
   2.2095560  36.9424790  53.8888930  12.7722310  36.1131630  55.6505180
  13.5931930  35.6228200  55.6930660  12.8056390  36.7029290  56.4037020
   4.9610930  39.9593190  58.5119460   5.4689150  40.4574160  59.1524480
   5.4924170  39.1828390  58.3358820  17.0621860  38.1298380  62.2148810
  16.3574030  38.5180090  61.6963920  17.3279780  38.8248670  62.8169740
   3.2447030  34.5991750  62.7782880   3.2465470  35.1164140  61.9728780
   2.4151340  34.1221930  62.7552810   9.6318120  44.7111060  54.2772780
   9.0135390  45.1760510  53.7135500  10.1441370  45.4038540  54.6942290
   4.4949880  44.2386930  60.9556380   4.1619260  44.8655850  61.5977450
   4.6716560  44.7648810  60.1758050  13.0083790  38.0532010  58.4232720
  12.3039360  38.3416900  59.0035830  13.3695950  38.8632120  58.0632280
   2.9262360  36.3101710  60.7853330   3.2679170  37.1543760  60.4907200
   1.9878170  36.4585450  60.9018670   3.7068980  46.2067730  62.7705560
   4.3242980  46.8818810  62.4890010   2.8462100  46.6155710  62.6793060
  14.6246570  47.6707140  60.6860200  13.9410090  48.3406250  60.6776870
  15.1640860  47.8687790  59.9205060  16.0770710  37.4986800  58.8141930
  15.1295620  37.5325780  58.9457360  16.4020700  38.3125750  59.1991290
   6.6090250  33.7983980  57.1097920   6.9165230  33.2430870  56.3933420
   5.6790950  33.9328440  56.9270910  12.1605310  49.5151270  59.4005380
  12.1732470  49.1113560  58.5327640  11.6080530  50.2898560  59.2966810
  13.4550730  46.2367490  54.4895550  13.3447060  45.2941820  54.6144970
  13.4518980  46.5983130  55.3758310  11.5590750  44.4181110  60.7287990
  11.9759540  44.2041220  59.8941450  12.2830570  44.6753900  61.2996610
   8.9971010  41.8632810  53.8458040   8.0700290  41.7970190  54.0746510
   9.1495830  42.8012940  53.7313280   8.9840090  38.1349810  50.8425200
   8.0443760  38.2963770  50.9277660   9.3023350  38.8535490  50.2961190
  15.5052850  42.8168330  60.8204230  14.6771480  42.8861420  60.3454360
  16.1003330  43.4022640  60.3520060  13.0268300  43.4253110  54.3493290
  12.4080720  43.0872660  53.7019590  13.0092750  42.7812870  55.0572480
  12.4694860  39.6037650  61.7659100  12.0566040  40.4291360  62.0199090
  11.7370810  39.0182690  61.5735460   4.6027650  42.3897550  56.6277770
   4.1984650  41.6774800  56.1323670   4.6890770  42.0450790  57.5165810
   5.0709350  46.0765110  58.7916980   4.7737640  45.4710580  58.1124760
   6.0209170  46.1142420  58.6806340   3.3156270  39.1640760  60.4076810
   3.8670860  39.2736100  59.6330060   3.8299780  39.5378360  61.1232040
  13.1594960  49.6496980  62.4540080  12.6825520  50.4569170  62.2612690
  12.4756750  48.9975310  62.6066290   4.1627780  45.8146800  65.4424780
   3.2656310  46.0386770  65.6898180   4.1880650  45.9381740  64.4936180
  11.2033000  42.6639920  51.3566040  11.6426280  41.8262350  51.2103860
  11.9161420  43.2969320  51.4430180   2.9899000  42.6860120  64.0182150
   2.8506770  43.5582920  64.3869550   2.1080360  42.3432930  63.8730090
   9.3128380  47.6035990  55.3247280   9.7524290  48.3460320  54.9102670
   9.2515270  47.8462560  56.2486240   4.7879350  48.6281820  66.2267300
   4.7594780  49.0324770  65.3595730   4.6244320  47.6992180  66.0638900
  14.7850140  33.9182730  49.6707080  14.4722800  34.0109560  50.5706150
  15.5462610  34.4963760  49.6204510  16.7394170  49.4108920  67.5231470
  17.2153890  49.8891810  68.2020550  17.3601330  49.3426410  66.7976970
  16.1427420  46.6021770  64.6831480  16.2690480  46.3633650  63.7648660
  16.1848800  45.7706310  65.1553560  10.0044160  50.3049770  63.2526290
  10.5188830  50.2157780  64.0548720   9.1613240  50.6509470  63.5454200
  11.9798560  50.5905110  52.6810290  11.8199700  50.3008050  53.5792120
  11.8145270  49.8145240  52.1455520   4.4586940  50.3703640  54.4581910
   4.2829420  49.4539180  54.2449710   3.6042680  50.7290930  54.6979710
  11.6824690  48.0992670  51.2408290  10.9889850  48.0969960  50.5810570
  12.4247550  47.6751990  50.8102460  11.2474620  49.7255380  55.3156780
  11.7031570  48.9444760  55.6295400  11.5867140  50.4362200  55.8597960
  15.9951430  38.6554230  65.6481220  15.3795700  39.1633900  65.1196680
  15.6747850  37.7552560  65.5907160   3.7695940  34.6277600  57.5108090
   3.3264090  35.4087140  57.1792610   4.3280930  34.9507490  58.2179030
   8.0565750  37.4946120  63.1143410   7.5945120  37.7029140  63.9263350
   7.6543860  36.6805470  62.8114080  13.0570260  38.7155070  64.2440070
  12.2063850  38.4160820  64.5649140  12.8972050  38.9597080  63.3323890
  10.1519970  40.2156820  66.3438860  10.4773380  39.3820570  66.0041090
  10.9400300  40.7385340  66.4917190   6.8854760  34.2488300  52.3913920
   6.2608940  34.2448170  53.1167230   6.7984880  33.3819260  51.9949890
   5.8071840  35.1724930  59.3697690   6.1044170  36.0787760  59.2889710
   6.3557400  34.6843710  58.7557260   3.5610160  39.7511170  55.2389340
   3.3351080  39.5348340  56.1435960   2.7802690  40.1839630  54.8935310
  10.7907920  39.7574540  53.8379990  10.1916810  40.4810340  53.6543610
  11.3387530  39.6951320  53.0556440   6.0009370  40.6496750  65.9049610
   5.9052970  39.7091480  65.7550010   6.8441350  40.8711820  65.5097680
   9.3972790  38.3938080  55.8683270   9.7902360  38.7110280  55.0551960
   9.7589640  37.5149960  55.9827790   7.7064960  37.1445390  67.1280130
   7.0163280  36.9517590  67.7626220   8.4497260  37.4280030  67.6604430
   9.9827930  40.9843830  59.9634050   9.2509050  41.4930640  60.3124150
   9.5852270  40.1673810  59.6622830   6.4205320  37.6598030  58.3686540
   6.4241380  37.2187980  57.5191080   7.3156440  37.9815360  58.4758360
   2.2707700  37.5424520  57.3280750   1.9307750  38.0199750  58.0847800
   1.5085020  37.0889640  56.9681850   6.4825470  38.6610110  51.3593300
   6.6038290  38.6196590  52.3079120   6.0973980  39.5234260  51.2040030
  10.4453840  36.4377510  59.3756990  10.4626580  36.8886160  60.2198840
  10.1969420  35.5383150  59.5890430   5.4946970  40.9711250  50.7576600
   4.9263870  40.5229500  50.1312510   6.2035970  41.3304030  50.2241750
  13.8724590  33.8509690  65.2143370  14.1970360  33.1199350  65.7401350
  13.9081100  33.5323330  64.3124360   6.7213290  41.7199810  60.1151950
   7.0883420  41.2458380  60.8613290   6.5318350  42.5941380  60.4560290
   4.5112660  40.7608450  62.4336160   4.2069730  41.6400430  62.6586520
   5.4659120  40.8208240  62.4693600   3.0394450  44.9669440  53.0303010
   2.2656710  44.4267060  52.8701730   3.7689080  44.4476050  52.6920770
  13.7982430  43.9634800  58.8229400  14.5181550  44.4590090  58.4325510
  13.5964250  43.2852690  58.1783270   9.2592370  35.3572760  52.9658790
   8.4456980  34.8585930  52.8904100   9.0654320  36.1971010  52.5495140
   9.1801230  44.0343860  64.7098400   9.1138540  43.1139530  64.4555990
   8.5506370  44.1319300  65.4243040  11.9740760  39.7292410  51.2620950
  12.8620380  40.0409640  51.0872290  11.9445850  38.8564660  50.8701530
   3.0831850  44.6349820  56.6681820   3.6010520  43.8318080  56.6138710
   2.6315870  44.5728960  57.5098650   7.9701350  45.9016100  51.9409120
   8.3117050  46.6458330  51.4452440   7.1414060  46.2147220  52.3033950
   3.7689510  42.0595430  66.4647070   3.4689650  42.2052610  65.5674890
   4.5400750  41.5000720  66.3720460   9.1117960  46.8564430  64.4602200
   9.1262500  45.9245390  64.2421110   8.4043060  46.9424190  65.0991970
  14.2455030  41.0404250  50.7300810  14.1618750  41.4718470  49.8797250
  14.9649220  41.5002600  51.1627630  15.3229170  43.4971770  63.8070780
  14.5977360  44.0900550  63.6100170  15.8504630  43.4895310  63.0084150
  15.2742280  47.8946510  53.4582940  14.6318440  47.2402130  53.7326660
  14.8872940  48.3001600  52.6823610  10.8528760  45.2231940  57.3054630
  11.2052580  44.6260070  56.6456000   9.9691090  44.8976170  57.4762880
   6.9392040  45.9829630  54.7125040   7.6263170  46.5298840  55.0932630
   6.1524460  46.5270360  54.7474650   6.2419250  42.9875660  54.3250400
   6.6982030  43.7980910  54.5510590   5.8907460  42.6698800  55.1568890
   8.5451860  48.4982000  61.5542700   9.1894080  48.7041380  62.2316120
   8.9081300  47.7370400  61.1013550   9.8183940  46.5014350  60.2720150
  10.4606170  45.8007510  60.3852320  10.3433290  47.2812790  60.0917040
  13.6639660  46.7862970  49.9959290  13.4377240  46.0693410  50.5883930
  13.2735860  46.5375410  49.1581040  11.5921560  47.3009250  63.4756210
  11.9277800  47.8875940  64.1534130  10.6721900  47.1701960  63.7054000
  13.2455910  44.7034910  51.6573450  12.9577610  45.1647600  52.4451330
  14.0408080  44.2432680  51.9257670   7.4210140  47.3500580  66.6444270
   7.1007010  46.6309820  67.1889960   6.7468500  48.0255650  66.7180330
   5.4624310  48.1961030  51.5877420   5.4534410  48.9290720  50.9721930
   4.5422670  47.9492610  51.6804380  10.6363740  37.5826740  62.0081070
  11.0044560  36.7621950  62.3360640   9.7761940  37.6428630  62.4236720
  14.0025770  36.5383680  52.8168630  13.3738930  36.6429350  52.1026860
  13.5077690  36.7580460  53.6062510   8.4483910  48.2589270  50.2502610
   8.5495890  48.0553260  49.3204590   7.5485650  48.0047550  50.4550390
   5.9709800  38.8169630  54.2326510   5.2625950  39.2855970  54.6740120
   6.2554280  38.1591640  54.8671700   7.5965730  40.2366330  62.2319040
   8.0950980  40.7112150  62.8970890   7.7388680  39.3129850  62.4389070
  10.0025230  35.5420290  55.6722300   9.8793010  35.5606420  54.7231810
  10.9509790  35.5899230  55.7920700   7.0902020  50.7775590  54.9450280
   7.3443520  50.7396980  54.0229650   6.1414500  50.6508920  54.9378530
   4.1744820  37.1254710  51.6077220   5.0235350  37.5624860  51.5417410
   3.8076090  37.4374970  52.4349280  14.8032590  36.4534290  63.0747430
  14.3006190  37.1939690  63.4141240  15.6189250  36.8418290  62.7584220
  13.0954600  41.6967470  56.5208790  12.1544740  41.7117700  56.6956480
  13.4098670  40.9103430  56.9669090   3.0736240  43.3787070  50.0812750
   3.8399510  43.2668430  50.6438180   3.1510930  42.6825040  49.4289520
   1.7683000  40.8112140  50.7645640   1.8486590  39.8639650  50.8763040
   2.6602750  41.1419020  50.8706300  15.0980180  48.8676320  58.1963050
  15.2227600  49.6907490  58.6686860  15.9645740  48.6567050  57.8487200
   2.5697710  50.9607530  57.8680180   3.3060190  50.4122990  58.1388750
   2.9538630  51.8263540  57.7286170   5.6800020  50.1337840  49.6905750
   6.4728630  50.4226670  49.2387540   5.1604370  49.7030010  49.0118230
  10.4120620  46.2533470  67.0041170   9.8058780  46.2765070  66.2636920
  10.1074730  45.5216510  67.5408420  11.8420990  49.9813760  65.6150580
  12.7942740  49.8971780  65.5650820  11.6949210  50.6455470  66.2884370
  14.7330190  49.3607970  51.1142490  14.4471700  48.9473110  50.2996670
  14.5349740  50.2895680  50.9943010   6.1977420  45.3541250  49.5548100
   6.0928060  44.7393600  50.2809480   6.0301640  44.8307140  48.7711110
   6.3491740  44.0398050  65.5337330   5.5837410  44.6083050  65.4492000
   6.5307700  43.7474260  64.6405560   9.4380150  44.4161280  50.1590090
   8.8890250  44.8630580  50.8032830  10.0599410  43.9110530  50.6827760
  13.4915090  45.7703380  66.0912350  14.2324560  46.1079140  65.5879810
  12.7287770  45.9395440  65.5382120   5.1055270  43.3752200  52.0555390
   5.5271690  43.2092070  52.8986780   5.2306110  42.5652430  51.5610530
   3.2682690  39.3548750  64.8626370   2.7379150  38.8639700  64.2349710
   3.9370760  39.7832950  64.3284300   7.6182910  42.3989810  49.3032490
   8.1388570  41.6838830  48.9373640   8.2651310  43.0375680  49.6033000
  12.1660750  43.8218210  64.6267560  12.5801770  43.9763290  65.4757980
  11.2311750  43.9473430  64.7893340  12.6382920  41.1614370  66.6306710
  13.2203690  40.4066690  66.5427190  12.8144690  41.6921810  65.8538190
   3.7554990  36.3211120  64.9423660   3.6611860  35.7031870  64.2174530
   3.1752380  37.0477410  64.7153570   6.5216430  34.8784360  61.9751050
   6.0733730  34.9008620  61.1296600   5.8881630  34.4803380  62.5721350
   6.9275980  43.7738690  62.5963490   7.3464090  44.6171420  62.4239730
   6.0084610  43.9110730  62.3670270   9.2639880  41.5054870  63.9801330
   9.3836090  40.9096010  64.7196170  10.1233880  41.5424560  63.5602630
  11.6027780  42.0592060  62.5563840  11.0763000  42.5834680  61.9528980
  11.9459120  42.6919450  63.1873570   4.0014170  39.4485430  49.0013550
   3.8003230  38.5852790  49.3626890   3.8306220  39.3618790  48.0635150
   4.7783400  50.0791700  63.7121220   4.2404490  50.8037760  63.3929920
   5.0317360  49.6022040  62.9218560   6.0308650  38.0476220  65.2377150
   6.6208340  37.7392070  65.9254970   5.2128890  37.5755970  65.3937050
  10.8502080  37.6642030  65.4710170  10.1617600  37.0023570  65.4060160
  11.5708100  37.2180300  65.9158630  11.4802480  34.2593660  51.5300430
  11.7604770  33.4161560  51.8859850  10.7068210  34.4916770  52.0439180
   2.7996970  36.5486050  48.9891430   3.1022870  36.5553480  48.0810580
   3.5391560  36.1983910  49.4859090   7.6345610  51.3142910  63.9707870
   7.5604310  52.2178050  64.2780240   6.7324450  50.9954810  63.9429940
   6.0181900  35.4920670  49.9747630   5.6703900  34.8144660  49.3950080
   6.2194670  35.0310180  50.7891020   8.1830940  50.4801420  51.5934230
   9.0781730  50.8186390  51.6152990   8.2148570  49.7580830  50.9658510
   1.8227100  45.8528470  49.8221230   2.2601970  46.3958140  50.4778810
   2.3074830  45.0275420  49.8317570   3.6334820  46.9726510  54.9343460
   3.3330360  46.8491480  55.8347370   3.5272310  46.1135100  54.5259190
  15.1625290  49.0105090  64.3000430  14.5627280  49.0697650  63.5564350
  15.2919190  48.0710070  64.4297280  16.4026740  46.7522910  49.6370140
  15.5719700  46.8199560  50.1077370  16.5798570  47.6427030  49.3337000
  15.8583200  43.4970390  52.1404340  16.6202110  44.0667040  52.2464030
  15.8737570  42.9297590  52.9112650  16.8643170  44.3520490  56.9846270
  17.2352000  43.5687810  56.5782240  17.5045100  45.0409590  56.8063570
  13.8476930  45.7357070  62.3976590  13.0336770  46.1654230  62.6602380
  14.2551130  46.3475480  61.7845640  15.9102370  43.7904760  49.2976860
  16.1851210  44.6983640  49.1696080  15.7213110  43.7267290  50.2338850
  12.3077980  36.8149610  50.5930490  12.7262860  36.6280590  49.7527150
  12.0014040  35.9628660  50.9033420  15.8067710  41.7273750  54.2906290
  15.4311310  40.9601680  53.8587580  15.0770830  42.1096450  54.7781220
  15.1967330  40.8745270  63.9245810  14.9653420  40.6458020  63.0243760
  15.4571880  41.7944820  63.8790700  13.6355400  36.1001700  66.7025510
  14.5125580  36.1085100  67.0859510  13.6476240  35.3632540  66.0917860
  15.0818670  39.9531240  57.5913530  15.6056150  39.4593890  56.9603700
  15.6678090  40.0881600  58.3361100  15.2608390  40.0371110  61.1133080
  14.3111100  40.0034650  61.2278070  15.4421400  40.9471220  60.8782850
  14.5718640  39.2104590  53.5305940  15.0677760  38.9775460  54.3154820
  14.3734710  38.3716430  53.1143580  16.0005800  37.8465540  56.0643620
  15.8905080  37.6921580  57.0025890  16.7613390  37.3186480  55.8219030
  14.3471520  33.7859670  62.5226620  14.9843740  34.3993810  62.8885810
  14.4946410  33.8220330  61.5775850  16.9634560  36.4484120  51.9306470
  16.1686060  36.3829240  52.4599380  17.1677840  37.3834760  51.9191820
  13.9052980  50.4875670  55.9244860  14.5012050  50.1660240  55.2479280
  14.1631130  50.0147490  56.7158130   1.8115550  46.9193580  66.0735490
   1.7685180  46.5486490  66.9549950   1.9426560  47.8571150  66.2137310
   5.5121580  48.4753170  61.6745210   5.2712940  48.7427730  60.7875730
   6.4524220  48.6458900  61.7296070   7.7176000  34.9385860  65.4301720
   7.6564890  35.5307690  66.1797130   8.6576380  34.8311820  65.2851980
  10.3550560  34.5955920  65.0694010  10.9690970  34.9135210  64.4075090
  10.9000120  34.1104510  65.6889870  16.7725740  50.4947550  62.4755850
  16.2784020  50.8916420  61.7582980  16.1639030  49.8696760  62.8693130
  11.0958600  33.1588060  61.3963300  10.2218440  33.4923170  61.1936230
  10.9869350  32.6861240  62.2215170  12.0030580  35.3658930  62.7805020
  11.6743940  34.5510690  62.4006750  12.9512880  35.3228740  62.6570710
  14.4565190  51.1370970  59.7542590  13.9968160  51.8886780  59.3800610
  13.8277650  50.4177440  59.6957390   4.8860910  49.4459210  58.9290720
   5.4025930  48.8346570  58.4038980   5.5358290  49.9487990  59.4201730
   7.6256410  50.3367700  59.7559700   7.9134220  50.0822000  58.8792710
   8.1379630  49.7845060  60.3465270   8.8433420  34.0757900  60.3356210
   8.0605210  34.5503400  60.6152970   8.5496350  33.1712730  60.2269390
  13.3954490  34.7781000  58.3805300  13.8362580  34.7226100  57.5326900
  13.1262080  35.6939010  58.4515480  15.2593060  34.4096240  56.3914120
  15.1981460  33.4657460  56.2445140  16.0385090  34.5176330  56.9367580
   6.7287640  36.4944650  55.8472240   5.9162150  36.1201540  55.5068120
   7.2329280  35.7389730  56.1493430  11.2312620  33.1587100  57.0855310
  11.8341990  33.7307310  57.5603830  10.4905610  33.7226540  56.8629210
  14.3747220  33.5608660  52.3595590  14.5697850  34.4592110  52.6263020
  13.5877090  33.3295740  52.8528540   2.5598980  34.9069430  51.3971900
   3.0891740  34.1199230  51.2679850   3.1927300  35.5860620  51.6307430
   4.7536820  34.6444570  54.4517290   4.1239560  33.9431880  54.6187420
   4.2141960  35.4048700  54.2350450   7.6928770  51.2583800  67.1227900
   8.6196080  51.0228070  67.1663860   7.6779200  52.0855800  66.6413930
  15.9273830  50.8009370  54.1202150  16.1026020  50.1147110  53.4763070
  15.2295400  51.3256420  53.7278820   4.8792380  33.9228550  66.8869780
   4.5976650  34.4262150  66.1230600   5.2612080  33.1250300  66.5211910
   3.7701480  51.1904210  51.6737460   4.5020300  50.9063490  51.1261350
   4.0295150  50.9517490  52.5636840   2.9316270  47.3068940  51.6783790
   2.3025150  47.7754040  52.2269620   3.0464100  46.4618160  52.1129980
  11.4807840  33.3382130  67.4650250  11.3673290  33.6576740  68.3601770
  12.2977580  33.7394640  67.1687530  14.2606330  50.4853660  66.9468940
  15.0531650  49.9902890  66.7394900  14.5539480  51.1643800  67.5544550
  10.3865990  41.3574600  37.8284990  10.3060040  40.4429210  37.5576700
   9.9730410  41.8541670  37.1224700   8.5184030  43.1353620  39.7094260
   7.7426130  42.6554060  39.9992830   9.1696960  42.4559270  39.5350420
   2.5349860  43.4473430  40.5870020   1.7034740  43.1922140  40.9866530
   3.1430840  43.5184200  41.3227940  12.5391460  47.5413810  38.4893390
  12.0772990  46.7701050  38.8180560  13.3517010  47.5679880  38.9945840
   2.5151120  47.4813520  40.7828040   2.8179160  46.5911260  40.6038260
   3.2594710  48.0383740  40.5550290   8.7654770  49.8271820  38.1097380
   8.1466210  50.2829320  37.5391820   9.6206550  49.9823280  37.7087080
   7.9593020  45.8110810  39.7164420   7.8901300  44.8700750  39.5553550
   8.7212880  45.9012220  40.2886990   8.9898190  38.6181190  39.9433350
   9.3663010  37.7453070  39.8307020   8.8917700  38.9539890  39.0523790
   3.1203200  36.9906820  35.4050790   3.2269950  37.8910550  35.7119550
   2.2095560  36.9424790  35.1145440  12.7722310  36.1131630  36.8761690
  13.5931930  35.6228200  36.9187170  12.8056390  36.7029290  37.6293530
   4.9610930  39.9593190  39.7375970   5.4689150  40.4574160  40.3780990
   5.4924170  39.1828390  39.5615330   3.2447030  34.5991750  44.0039390
   3.2465470  35.1164140  43.1985290   2.4151340  34.1221930  43.9809320
   9.6318120  44.7111060  35.5029290   9.0135390  45.1760510  34.9392010
  10.1441370  45.4038540  35.9198800   4.4949880  44.2386930  42.1812890
   4.1619260  44.8655850  42.8233960   4.6716560  44.7648810  41.4014560
  13.0083790  38.0532010  39.6489230  12.3039360  38.3416900  40.2292340
  13.3695950  38.8632120  39.2888790   2.9262360  36.3101710  42.0109840
   3.2679170  37.1543760  41.7163710   1.9878170  36.4585450  42.1275180
   3.7068980  46.2067730  43.9962070   4.3242980  46.8818810  43.7146520
   2.8462100  46.6155710  43.9049570  14.6246570  47.6707140  41.9116710
  13.9410090  48.3406250  41.9033380  15.1640860  47.8687790  41.1461570
  16.0770710  37.4986800  40.0398440  15.1295620  37.5325780  40.1713870
  16.4020700  38.3125750  40.4247800   6.6090250  33.7983980  38.3354430
   6.9165230  33.2430870  37.6189930   5.6790950  33.9328440  38.1527420
  12.1605310  49.5151270  40.6261890  12.1732470  49.1113560  39.7584150
  11.6080530  50.2898560  40.5223320  13.4550730  46.2367490  35.7152060
  13.3447060  45.2941820  35.8401480  13.4518980  46.5983130  36.6014820
  11.5590750  44.4181110  41.9544500  11.9759540  44.2041220  41.1197960
  12.2830570  44.6753900  42.5253120   8.9971010  41.8632810  35.0714550
   8.0700290  41.7970190  35.3003020   9.1495830  42.8012940  34.9569790
   8.9840090  38.1349810  32.0681710   8.0443760  38.2963770  32.1534170
   9.3023350  38.8535490  31.5217700  15.5052850  42.8168330  42.0460740
  14.6771480  42.8861420  41.5710870  16.1003330  43.4022640  41.5776570
  13.0268300  43.4253110  35.5749800  12.4080720  43.0872660  34.9276100
  13.0092750  42.7812870  36.2828990  12.4694860  39.6037650  42.9915610
  12.0566040  40.4291360  43.2455600  11.7370810  39.0182690  42.7991970
   4.6027650  42.3897550  37.8534280   4.1984650  41.6774800  37.3580180
   4.6890770  42.0450790  38.7422320   5.0709350  46.0765110  40.0173490
   4.7737640  45.4710580  39.3381270   6.0209170  46.1142420  39.9062850
   3.3156270  39.1640760  41.6333320   3.8670860  39.2736100  40.8586570
   3.8299780  39.5378360  42.3488550  13.1594960  49.6496980  43.6796590
  12.6825520  50.4569170  43.4869200  12.4756750  48.9975310  43.8322800
   4.1627780  45.8146800  46.6681290   3.2656310  46.0386770  46.9154690
   4.1880650  45.9381740  45.7192690  11.2033000  42.6639920  32.5822550
  11.6426280  41.8262350  32.4360370  11.9161420  43.2969320  32.6686690
   2.9899000  42.6860120  45.2438660   2.8506770  43.5582920  45.6126060
   2.1080360  42.3432930  45.0986600   9.3128380  47.6035990  36.5503790
   9.7524290  48.3460320  36.1359180   9.2515270  47.8462560  37.4742750
   4.7879350  48.6281820  47.4523810   4.7594780  49.0324770  46.5852240
   4.6244320  47.6992180  47.2895410  14.7850140  33.9182730  30.8963590
  14.4722800  34.0109560  31.7962660  15.5462610  34.4963760  30.8461020
  16.7394170  49.4108920  48.7487980  17.2153890  49.8891810  49.4277060
  17.3601330  49.3426410  48.0233480  16.1427420  46.6021770  45.9087990
  16.2690480  46.3633650  44.9905170  16.1848800  45.7706310  46.3810070
  10.0044160  50.3049770  44.4782800  10.5188830  50.2157780  45.2805230
   9.1613240  50.6509470  44.7710710  11.9798560  50.5905110  33.9066800
  11.8199700  50.3008050  34.8048630  11.8145270  49.8145240  33.3712030
   4.4586940  50.3703640  35.6838420   4.2829420  49.4539180  35.4706220
   3.6042680  50.7290930  35.9236220  11.6824690  48.0992670  32.4664800
  10.9889850  48.0969960  31.8067080  12.4247550  47.6751990  32.0358970
  11.2474620  49.7255380  36.5413290  11.7031570  48.9444760  36.8551910
  11.5867140  50.4362200  37.0854470  15.9951430  38.6554230  46.8737730
  15.3795700  39.1633900  46.3453190  15.6747850  37.7552560  46.8163670
   3.7695940  34.6277600  38.7364600   3.3264090  35.4087140  38.4049120
   4.3280930  34.9507490  39.4435540   8.0565750  37.4946120  44.3399920
   7.5945120  37.7029140  45.1519860   7.6543860  36.6805470  44.0370590
  13.0570260  38.7155070  45.4696580  12.2063850  38.4160820  45.7905650
  12.8972050  38.9597080  44.5580400  10.1519970  40.2156820  47.5695370
  10.4773380  39.3820570  47.2297600  10.9400300  40.7385340  47.7173700
   6.8854760  34.2488300  33.6170430   6.2608940  34.2448170  34.3423740
   6.7984880  33.3819260  33.2206400   5.8071840  35.1724930  40.5954200
   6.1044170  36.0787760  40.5146220   6.3557400  34.6843710  39.9813770
   3.5610160  39.7511170  36.4645850   3.3351080  39.5348340  37.3692470
   2.7802690  40.1839630  36.1191820  10.7907920  39.7574540  35.0636500
  10.1916810  40.4810340  34.8800120  11.3387530  39.6951320  34.2812950
   6.0009370  40.6496750  47.1306120   5.9052970  39.7091480  46.9806520
   6.8441350  40.8711820  46.7354190   9.3972790  38.3938080  37.0939780
   9.7902360  38.7110280  36.2808470   9.7589640  37.5149960  37.2084300
   7.7064960  37.1445390  48.3536640   7.0163280  36.9517590  48.9882730
   8.4497260  37.4280030  48.8860940   9.9827930  40.9843830  41.1890560
   9.2509050  41.4930640  41.5380660   9.5852270  40.1673810  40.8879340
   6.4205320  37.6598030  39.5943050   6.4241380  37.2187980  38.7447590
   7.3156440  37.9815360  39.7014870   2.2707700  37.5424520  38.5537260
   1.9307750  38.0199750  39.3104310   1.5085020  37.0889640  38.1938360
   6.4825470  38.6610110  32.5849810   6.6038290  38.6196590  33.5335630
   6.0973980  39.5234260  32.4296540  10.4453840  36.4377510  40.6013500
  10.4626580  36.8886160  41.4455350  10.1969420  35.5383150  40.8146940
   5.4946970  40.9711250  31.9833110   4.9263870  40.5229500  31.3569020
   6.2035970  41.3304030  31.4498260  13.8724590  33.8509690  46.4399880
  14.1970360  33.1199350  46.9657860  13.9081100  33.5323330  45.5380870
   6.7213290  41.7199810  41.3408460   7.0883420  41.2458380  42.0869800
   6.5318350  42.5941380  41.6816800   4.5112660  40.7608450  43.6592670
   4.2069730  41.6400430  43.8843030   5.4659120  40.8208240  43.6950110
   3.0394450  44.9669440  34.2559520   2.2656710  44.4267060  34.0958240
   3.7689080  44.4476050  33.9177280  13.7982430  43.9634800  40.0485910
  14.5181550  44.4590090  39.6582020  13.5964250  43.2852690  39.4039780
   9.2592370  35.3572760  34.1915300   8.4456980  34.8585930  34.1160610
   9.0654320  36.1971010  33.7751650   9.1801230  44.0343860  45.9354910
   9.1138540  43.1139530  45.6812500   8.5506370  44.1319300  46.6499550
  11.9740760  39.7292410  32.4877460  12.8620380  40.0409640  32.3128800
  11.9445850  38.8564660  32.0958040   3.0831850  44.6349820  37.8938330
   3.6010520  43.8318080  37.8395220   2.6315870  44.5728960  38.7355160
   7.9701350  45.9016100  33.1665630   8.3117050  46.6458330  32.6708950
   7.1414060  46.2147220  33.5290460   3.7689510  42.0595430  47.6903580
   3.4689650  42.2052610  46.7931400   4.5400750  41.5000720  47.5976970
   9.1117960  46.8564430  45.6858710   9.1262500  45.9245390  45.4677620
   8.4043060  46.9424190  46.3248480  14.2455030  41.0404250  31.9557320
  14.1618750  41.4718470  31.1053760  14.9649220  41.5002600  32.3884140
  15.3229170  43.4971770  45.0327290  14.5977360  44.0900550  44.8356680
  15.8504630  43.4895310  44.2340660  15.2742280  47.8946510  34.6839450
  14.6318440  47.2402130  34.9583170  14.8872940  48.3001600  33.9080120
  10.8528760  45.2231940  38.5311140  11.2052580  44.6260070  37.8712510
   9.9691090  44.8976170  38.7019390   6.9392040  45.9829630  35.9381550
   7.6263170  46.5298840  36.3189140   6.1524460  46.5270360  35.9731160
   6.2419250  42.9875660  35.5506910   6.6982030  43.7980910  35.7767100
   5.8907460  42.6698800  36.3825400   8.5451860  48.4982000  42.7799210
   9.1894080  48.7041380  43.4572630   8.9081300  47.7370400  42.3270060
   9.8183940  46.5014350  41.4976660  10.4606170  45.8007510  41.6108830
  10.3433290  47.2812790  41.3173550  13.6639660  46.7862970  31.2215800
  13.4377240  46.0693410  31.8140440  13.2735860  46.5375410  30.3837550
  11.5921560  47.3009250  44.7012720  11.9277800  47.8875940  45.3790640
  10.6721900  47.1701960  44.9310510  13.2455910  44.7034910  32.8829960
  12.9577610  45.1647600  33.6707840  14.0408080  44.2432680  33.1514180
   7.4210140  47.3500580  47.8700780   7.1007010  46.6309820  48.4146470
   6.7468500  48.0255650  47.9436840   5.4624310  48.1961030  32.8133930
   5.4534410  48.9290720  32.1978440   4.5422670  47.9492610  32.9060890
  10.6363740  37.5826740  43.2337580  11.0044560  36.7621950  43.5617150
   9.7761940  37.6428630  43.6493230  14.0025770  36.5383680  34.0425140
  13.3738930  36.6429350  33.3283370  13.5077690  36.7580460  34.8319020
   8.4483910  48.2589270  31.4759120   8.5495890  48.0553260  30.5461100
   7.5485650  48.0047550  31.6806900   5.9709800  38.8169630  35.4583020
   5.2625950  39.2855970  35.8996630   6.2554280  38.1591640  36.0928210
   7.5965730  40.2366330  43.4575550   8.0950980  40.7112150  44.1227400
   7.7388680  39.3129850  43.6645580  10.0025230  35.5420290  36.8978810
   9.8793010  35.5606420  35.9488320  10.9509790  35.5899230  37.0177210
   7.0902020  50.7775590  36.1706790   7.3443520  50.7396980  35.2486160
   6.1414500  50.6508920  36.1635040   4.1744820  37.1254710  32.8333730
   5.0235350  37.5624860  32.7673920   3.8076090  37.4374970  33.6605790
  13.0954600  41.6967470  37.7465300  12.1544740  41.7117700  37.9212990
  13.4098670  40.9103430  38.1925600   3.0736240  43.3787070  31.3069260
   3.8399510  43.2668430  31.8694690   3.1510930  42.6825040  30.6546030
   1.7683000  40.8112140  31.9902150   1.8486590  39.8639650  32.1019550
   2.6602750  41.1419020  32.0962810  15.0980180  48.8676320  39.4219560
  15.2227600  49.6907490  39.8943370  15.9645740  48.6567050  39.0743710
   2.5697710  50.9607530  39.0936690   3.3060190  50.4122990  39.3645260
   2.9538630  51.8263540  38.9542680   5.6800020  50.1337840  30.9162260
   6.4728630  50.4226670  30.4644050   5.1604370  49.7030010  30.2374740
  10.4120620  46.2533470  48.2297680   9.8058780  46.2765070  47.4893430
  10.1074730  45.5216510  48.7664930  11.8420990  49.9813760  46.8407090
  12.7942740  49.8971780  46.7907330  11.6949210  50.6455470  47.5140880
  14.7330190  49.3607970  32.3399000  14.4471700  48.9473110  31.5253180
  14.5349740  50.2895680  32.2199520   6.1977420  45.3541250  30.7804610
   6.0928060  44.7393600  31.5065990   6.0301640  44.8307140  29.9967620
   6.3491740  44.0398050  46.7593840   5.5837410  44.6083050  46.6748510
   6.5307700  43.7474260  45.8662070   9.4380150  44.4161280  31.3846600
   8.8890250  44.8630580  32.0289340  10.0599410  43.9110530  31.9084270
  13.4915090  45.7703380  47.3168860  14.2324560  46.1079140  46.8136320
  12.7287770  45.9395440  46.7638630   5.1055270  43.3752200  33.2811900
   5.5271690  43.2092070  34.1243290   5.2306110  42.5652430  32.7867040
   3.2682690  39.3548750  46.0882880   2.7379150  38.8639700  45.4606220
   3.9370760  39.7832950  45.5540810   7.6182910  42.3989810  30.5289000
   8.1388570  41.6838830  30.1630150   8.2651310  43.0375680  30.8289510
  12.1660750  43.8218210  45.8524070  12.5801770  43.9763290  46.7014490
  11.2311750  43.9473430  46.0149850  12.6382920  41.1614370  47.8563220
  13.2203690  40.4066690  47.7683700  12.8144690  41.6921810  47.0794700
   3.7554990  36.3211120  46.1680170   3.6611860  35.7031870  45.4431040
   3.1752380  37.0477410  45.9410080   6.5216430  34.8784360  43.2007560
   6.0733730  34.9008620  42.3553110   5.8881630  34.4803380  43.7977860
   6.9275980  43.7738690  43.8220000   7.3464090  44.6171420  43.6496240
   6.0084610  43.9110730  43.5926780   9.2639880  41.5054870  45.2057840
   9.3836090  40.9096010  45.9452680  10.1233880  41.5424560  44.7859140
  11.6027780  42.0592060  43.7820350  11.0763000  42.5834680  43.1785490
  11.9459120  42.6919450  44.4130080   4.0014170  39.4485430  30.2270060
   3.8003230  38.5852790  30.5883400   3.8306220  39.3618790  29.2891660
   4.7783400  50.0791700  44.9377730   4.2404490  50.8037760  44.6186430
   5.0317360  49.6022040  44.1475070   6.0308650  38.0476220  46.4633660
   6.6208340  37.7392070  47.1511480   5.2128890  37.5755970  46.6193560
  10.8502080  37.6642030  46.6966680  10.1617600  37.0023570  46.6316670
  11.5708100  37.2180300  47.1415140  11.4802480  34.2593660  32.7556940
  11.7604770  33.4161560  33.1116360  10.7068210  34.4916770  33.2695690
   2.7996970  36.5486050  30.2147940   3.1022870  36.5553480  29.3067090
   3.5391560  36.1983910  30.7115600   7.6345610  51.3142910  45.1964380
   7.5604310  52.2178050  45.5036750   6.7324450  50.9954810  45.1686450
   6.0181900  35.4920670  31.2004140   5.6703900  34.8144660  30.6206590
   6.2194670  35.0310180  32.0147530   8.1830940  50.4801420  32.8190740
   9.0781730  50.8186390  32.8409500   8.2148570  49.7580830  32.1915020
   1.8227100  45.8528470  31.0477740   2.2601970  46.3958140  31.7035320
   2.3074830  45.0275420  31.0574080   3.6334820  46.9726510  36.1599970
   3.3330360  46.8491480  37.0603880   3.5272310  46.1135100  35.7515700
  15.1625290  49.0105090  45.5256940  14.5627280  49.0697650  44.7820860
  15.2919190  48.0710070  45.6553790  16.4026740  46.7522910  30.8626650
  15.5719700  46.8199560  31.3333880  16.5798570  47.6427030  30.5593510
  15.8583200  43.4970390  33.3660850  16.6202110  44.0667040  33.4720540
  15.8737570  42.9297590  34.1369160  16.8643170  44.3520490  38.2102780
  17.2352000  43.5687810  37.8038750  17.5045100  45.0409590  38.0320080
  13.8476930  45.7357070  43.6233100  13.0336770  46.1654230  43.8858890
  14.2551130  46.3475480  43.0102150  15.9102370  43.7904760  30.5233370
  16.1851210  44.6983640  30.3952590  15.7213110  43.7267290  31.4595360
  12.3077980  36.8149610  31.8187000  12.7262860  36.6280590  30.9783660
  12.0014040  35.9628660  32.1289930  15.8067710  41.7273750  35.5162800
  15.4311310  40.9601680  35.0844090  15.0770830  42.1096450  36.0037730
  15.1967330  40.8745270  45.1502320  14.9653420  40.6458020  44.2500270
  15.4571880  41.7944820  45.1047210  13.6355400  36.1001700  47.9282020
  14.5125580  36.1085100  48.3116020  13.6476240  35.3632540  47.3174370
  15.0818670  39.9531240  38.8170040  15.6056150  39.4593890  38.1860210
  15.6678090  40.0881600  39.5617610  15.2608390  40.0371110  42.3389590
  14.3111100  40.0034650  42.4534580  15.4421400  40.9471220  42.1039360
  14.5718640  39.2104590  34.7562450  15.0677760  38.9775460  35.5411330
  14.3734710  38.3716430  34.3400090  16.0005800  37.8465540  37.2900130
  15.8905080  37.6921580  38.2282400  16.7613390  37.3186480  37.0475540
  16.8896070  35.6773460  30.5306270  17.8145380  35.5454640  30.3224560
  16.8671860  35.7566280  31.4842720  16.9634560  36.4484120  33.1562980
  16.1686060  36.3829240  33.6855890  17.1677840  37.3834760  33.1448330
  13.9052980  50.4875670  37.1501370  14.5012050  50.1660240  36.4735790
  14.1631130  50.0147490  37.9414640   1.8115550  46.9193580  47.2992000
   1.7685180  46.5486490  48.1806460   1.9426560  47.8571150  47.4393820
   5.5121580  48.4753170  42.9001720   5.2712940  48.7427730  42.0132240
   6.4524220  48.6458900  42.9552580   7.7176000  34.9385860  46.6558230
   7.6564890  35.5307690  47.4053640   8.6576380  34.8311820  46.5108490
  10.3550560  34.5955920  46.2950520  10.9690970  34.9135210  45.6331600
  10.9000120  34.1104510  46.9146380  16.7725740  50.4947550  43.7012360
  16.2784020  50.8916420  42.9839490  16.1639030  49.8696760  44.0949640
  11.0958600  33.1588060  42.6219810  10.2218440  33.4923170  42.4192740
  10.9869350  32.6861240  43.4471680  12.0030580  35.3658930  44.0061530
  11.6743940  34.5510690  43.6263260  12.9512880  35.3228740  43.8827220
  14.4565190  51.1370970  40.9799100  13.9968160  51.8886780  40.6057120
  13.8277650  50.4177440  40.9213900   4.8860910  49.4459210  40.1547230
   5.4025930  48.8346570  39.6295490   5.5358290  49.9487990  40.6458240
   7.6256410  50.3367700  40.9816210   7.9134220  50.0822000  40.1049220
   8.1379630  49.7845060  41.5721780   8.8433420  34.0757900  41.5612720
   8.0605210  34.5503400  41.8409480   8.5496350  33.1712730  41.4525900
  13.3954490  34.7781000  39.6061810  13.8362580  34.7226100  38.7583410
  13.1262080  35.6939010  39.6771990  15.2593060  34.4096240  37.6170630
  15.1981460  33.4657460  37.4701650  16.0385090  34.5176330  38.1624090
   6.7287640  36.4944650  37.0728750   5.9162150  36.1201540  36.7324630
   7.2329280  35.7389730  37.3749940  11.2312620  33.1587100  38.3111820
  11.8341990  33.7307310  38.7860340  10.4905610  33.7226540  38.0885720
  14.3747220  33.5608660  33.5852100  14.5697850  34.4592110  33.8519530
  13.5877090  33.3295740  34.0785050   2.5598980  34.9069430  32.6228410
   3.0891740  34.1199230  32.4936360   3.1927300  35.5860620  32.8563940
   4.7536820  34.6444570  35.6773800   4.1239560  33.9431880  35.8443930
   4.2141960  35.4048700  35.4606960   7.6928770  51.2583800  48.3484410
   8.6196080  51.0228070  48.3920370   7.6779200  52.0855800  47.8670440
  15.9273830  50.8009370  35.3458660  16.1026020  50.1147110  34.7019580
  15.2295400  51.3256420  34.9535330   4.8792380  33.9228550  48.1126290
   4.5976650  34.4262150  47.3487110   5.2612080  33.1250300  47.7468420
   3.7701480  51.1904210  32.8993970   4.5020300  50.9063490  32.3517860
   4.0295150  50.9517490  33.7893350   2.9316270  47.3068940  32.9040300
   2.3025150  47.7754040  33.4526130   3.0464100  46.4618160  33.3386490
  11.4807840  33.3382130  48.6906760  11.3673290  33.6576740  49.5858280
  12.2977580  33.7394640  48.3944040  14.2606330  50.4853660  48.1725450
  15.0531650  49.9902890  47.9651410  14.5539480  51.1643800  48.7801060
  10.3865990  41.3574600  19.0541500  10.3060040  40.4429210  18.7833210
   9.9730410  41.8541670  18.3481210   8.5184030  43.1353620  20.9350770
   7.7426130  42.6554060  21.2249340   9.1696960  42.4559270  20.7606930
   2.5349860  43.4473430  21.8126530   1.7034740  43.1922140  22.2123040
   3.1430840  43.5184200  22.5484450  12.5391460  47.5413810  19.7149900
  12.0772990  46.7701050  20.0437070  13.3517010  47.5679880  20.2202350
   2.5151120  47.4813520  22.0084550   2.8179160  46.5911260  21.8294770
   3.2594710  48.0383740  21.7806800   8.7654770  49.8271820  19.3353890
   8.1466210  50.2829320  18.7648330   9.6206550  49.9823280  18.9343590
   7.9593020  45.8110810  20.9420930   7.8901300  44.8700750  20.7810060
   8.7212880  45.9012220  21.5143500   8.9898190  38.6181190  21.1689860
   9.3663010  37.7453070  21.0563530   8.8917700  38.9539890  20.2780300
   3.1203200  36.9906820  16.6307300   3.2269950  37.8910550  16.9376060
   2.2095560  36.9424790  16.3401950  12.7722310  36.1131630  18.1018200
  13.5931930  35.6228200  18.1443680  12.8056390  36.7029290  18.8550040
   4.9610930  39.9593190  20.9632480   5.4689150  40.4574160  21.6037500
   5.4924170  39.1828390  20.7871840  17.0621860  38.1298380  24.6661830
  16.3574030  38.5180090  24.1476940  17.3279780  38.8248670  25.2682760
   3.2447030  34.5991750  25.2295900   3.2465470  35.1164140  24.4241800
   2.4151340  34.1221930  25.2065830   9.6318120  44.7111060  16.7285800
   9.0135390  45.1760510  16.1648520  10.1441370  45.4038540  17.1455310
   4.4949880  44.2386930  23.4069400   4.1619260  44.8655850  24.0490470
   4.6716560  44.7648810  22.6271070  13.0083790  38.0532010  20.8745740
  12.3039360  38.3416900  21.4548850  13.3695950  38.8632120  20.5145300
   2.9262360  36.3101710  23.2366350   3.2679170  37.1543760  22.9420220
   1.9878170  36.4585450  23.3531690   3.7068980  46.2067730  25.2218580
   4.3242980  46.8818810  24.9403030   2.8462100  46.6155710  25.1306080
  14.6246570  47.6707140  23.1373220  13.9410090  48.3406250  23.1289890
  15.1640860  47.8687790  22.3718080  16.0770710  37.4986800  21.2654950
  15.1295620  37.5325780  21.3970380  16.4020700  38.3125750  21.6504310
   6.6090250  33.7983980  19.5610940   6.9165230  33.2430870  18.8446440
   5.6790950  33.9328440  19.3783930  12.1605310  49.5151270  21.8518400
  12.1732470  49.1113560  20.9840660  11.6080530  50.2898560  21.7479830
  13.4550730  46.2367490  16.9408570  13.3447060  45.2941820  17.0657990
  13.4518980  46.5983130  17.8271330  11.5590750  44.4181110  23.1801010
  11.9759540  44.2041220  22.3454470  12.2830570  44.6753900  23.7509630
   8.9971010  41.8632810  16.2971060   8.0700290  41.7970190  16.5259530
   9.1495830  42.8012940  16.1826300   8.9840090  38.1349810  13.2938220
   8.0443760  38.2963770  13.3790680   9.3023350  38.8535490  12.7474210
  15.5052850  42.8168330  23.2717250  14.6771480  42.8861420  22.7967380
  16.1003330  43.4022640  22.8033080  13.0268300  43.4253110  16.8006310
  12.4080720  43.0872660  16.1532610  13.0092750  42.7812870  17.5085500
  12.4694860  39.6037650  24.2172120  12.0566040  40.4291360  24.4712110
  11.7370810  39.0182690  24.0248480   4.6027650  42.3897550  19.0790790
   4.1984650  41.6774800  18.5836690   4.6890770  42.0450790  19.9678830
   5.0709350  46.0765110  21.2430000   4.7737640  45.4710580  20.5637780
   6.0209170  46.1142420  21.1319360   3.3156270  39.1640760  22.8589830
   3.8670860  39.2736100  22.0843080   3.8299780  39.5378360  23.5745060
  13.1594960  49.6496980  24.9053100  12.6825520  50.4569170  24.7125710
  12.4756750  48.9975310  25.0579310   4.1627780  45.8146800  27.8937800
   3.2656310  46.0386770  28.1411200   4.1880650  45.9381740  26.9449200
  11.2033000  42.6639920  13.8079060  11.6426280  41.8262350  13.6616880
  11.9161420  43.2969320  13.8943200   2.9899000  42.6860120  26.4695170
   2.8506770  43.5582920  26.8382570   2.1080360  42.3432930  26.3243110
   9.3128380  47.6035990  17.7760300   9.7524290  48.3460320  17.3615690
   9.2515270  47.8462560  18.6999260   4.7879350  48.6281820  28.6780320
   4.7594780  49.0324770  27.8108750   4.6244320  47.6992180  28.5151920
  14.7850140  33.9182730  12.1220100  14.4722800  34.0109560  13.0219170
  15.5462610  34.4963760  12.0717530  16.7394170  49.4108920  29.9744490
  17.2153890  49.8891810  30.6533570  17.3601330  49.3426410  29.2489990
  16.1427420  46.6021770  27.1344500  16.2690480  46.3633650  26.2161680
  16.1848800  45.7706310  27.6066580  10.0044160  50.3049770  25.7039310
  10.5188830  50.2157780  26.5061740   9.1613240  50.6509470  25.9967220
  11.9798560  50.5905110  15.1323310  11.8199700  50.3008050  16.0305140
  11.8145270  49.8145240  14.5968540   4.4586940  50.3703640  16.9094930
   4.2829420  49.4539180  16.6962730   3.6042680  50.7290930  17.1492730
  11.6824690  48.0992670  13.6921310  10.9889850  48.0969960  13.0323590
  12.4247550  47.6751990  13.2615480  11.2474620  49.7255380  17.7669800
  11.7031570  48.9444760  18.0808420  11.5867140  50.4362200  18.3110980
  15.9951430  38.6554230  28.0994240  15.3795700  39.1633900  27.5709700
  15.6747850  37.7552560  28.0420180   3.7695940  34.6277600  19.9621110
   3.3264090  35.4087140  19.6305630   4.3280930  34.9507490  20.6692050
   8.0565750  37.4946120  25.5656430   7.5945120  37.7029140  26.3776370
   7.6543860  36.6805470  25.2627100  13.0570260  38.7155070  26.6953090
  12.2063850  38.4160820  27.0162160  12.8972050  38.9597080  25.7836910
  10.1519970  40.2156820  28.7951880  10.4773380  39.3820570  28.4554110
  10.9400300  40.7385340  28.9430210   6.8854760  34.2488300  14.8426940
   6.2608940  34.2448170  15.5680250   6.7984880  33.3819260  14.4462910
   5.8071840  35.1724930  21.8210710   6.1044170  36.0787760  21.7402730
   6.3557400  34.6843710  21.2070280   3.5610160  39.7511170  17.6902360
   3.3351080  39.5348340  18.5948980   2.7802690  40.1839630  17.3448330
  10.7907920  39.7574540  16.2893010  10.1916810  40.4810340  16.1056630
  11.3387530  39.6951320  15.5069460   6.0009370  40.6496750  28.3562630
   5.9052970  39.7091480  28.2063030   6.8441350  40.8711820  27.9610700
   9.3972790  38.3938080  18.3196290   9.7902360  38.7110280  17.5064980
   9.7589640  37.5149960  18.4340810   7.7064960  37.1445390  29.5793150
   7.0163280  36.9517590  30.2139240   8.4497260  37.4280030  30.1117450
   9.9827930  40.9843830  22.4147070   9.2509050  41.4930640  22.7637170
   9.5852270  40.1673810  22.1135850   6.4205320  37.6598030  20.8199560
   6.4241380  37.2187980  19.9704100   7.3156440  37.9815360  20.9271380
   2.2707700  37.5424520  19.7793770   1.9307750  38.0199750  20.5360820
   1.5085020  37.0889640  19.4194870   6.4825470  38.6610110  13.8106320
   6.6038290  38.6196590  14.7592140   6.0973980  39.5234260  13.6553050
  10.4453840  36.4377510  21.8270010  10.4626580  36.8886160  22.6711860
  10.1969420  35.5383150  22.0403450   5.4946970  40.9711250  13.2089620
   4.9263870  40.5229500  12.5825530   6.2035970  41.3304030  12.6754770
  13.8724590  33.8509690  27.6656390  14.1970360  33.1199350  28.1914370
  13.9081100  33.5323330  26.7637380   6.7213290  41.7199810  22.5664970
   7.0883420  41.2458380  23.3126310   6.5318350  42.5941380  22.9073310
   4.5112660  40.7608450  24.8849180   4.2069730  41.6400430  25.1099540
   5.4659120  40.8208240  24.9206620   3.0394450  44.9669440  15.4816030
   2.2656710  44.4267060  15.3214750   3.7689080  44.4476050  15.1433790
  13.7982430  43.9634800  21.2742420  14.5181550  44.4590090  20.8838530
  13.5964250  43.2852690  20.6296290   9.2592370  35.3572760  15.4171810
   8.4456980  34.8585930  15.3417120   9.0654320  36.1971010  15.0008160
   9.1801230  44.0343860  27.1611420   9.1138540  43.1139530  26.9069010
   8.5506370  44.1319300  27.8756060  11.9740760  39.7292410  13.7133970
  12.8620380  40.0409640  13.5385310  11.9445850  38.8564660  13.3214550
   3.0831850  44.6349820  19.1194840   3.6010520  43.8318080  19.0651730
   2.6315870  44.5728960  19.9611670   7.9701350  45.9016100  14.3922140
   8.3117050  46.6458330  13.8965460   7.1414060  46.2147220  14.7546970
   3.7689510  42.0595430  28.9160090   3.4689650  42.2052610  28.0187910
   4.5400750  41.5000720  28.8233480   9.1117960  46.8564430  26.9115220
   9.1262500  45.9245390  26.6934130   8.4043060  46.9424190  27.5504990
  14.2455030  41.0404250  13.1813830  14.1618750  41.4718470  12.3310270
  14.9649220  41.5002600  13.6140650  15.3229170  43.4971770  26.2583800
  14.5977360  44.0900550  26.0613190  15.8504630  43.4895310  25.4597170
  15.2742280  47.8946510  15.9095960  14.6318440  47.2402130  16.1839680
  14.8872940  48.3001600  15.1336630  10.8528760  45.2231940  19.7567650
  11.2052580  44.6260070  19.0969020   9.9691090  44.8976170  19.9275900
   6.9392040  45.9829630  17.1638060   7.6263170  46.5298840  17.5445650
   6.1524460  46.5270360  17.1987670   6.2419250  42.9875660  16.7763420
   6.6982030  43.7980910  17.0023610   5.8907460  42.6698800  17.6081910
   8.5451860  48.4982000  24.0055720   9.1894080  48.7041380  24.6829140
   8.9081300  47.7370400  23.5526570   9.8183940  46.5014350  22.7233170
  10.4606170  45.8007510  22.8365340  10.3433290  47.2812790  22.5430060
  13.6639660  46.7862970  12.4472310  13.4377240  46.0693410  13.0396950
  13.2735860  46.5375410  11.6094060  11.5921560  47.3009250  25.9269230
  11.9277800  47.8875940  26.6047150  10.6721900  47.1701960  26.1567020
  13.2455910  44.7034910  14.1086470  12.9577610  45.1647600  14.8964350
  14.0408080  44.2432680  14.3770690   7.4210140  47.3500580  29.0957290
   7.1007010  46.6309820  29.6402980   6.7468500  48.0255650  29.1693350
   5.4624310  48.1961030  14.0390440   5.4534410  48.9290720  13.4234950
   4.5422670  47.9492610  14.1317400  10.6363740  37.5826740  24.4594090
  11.0044560  36.7621950  24.7873660   9.7761940  37.6428630  24.8749740
  14.0025770  36.5383680  15.2681650  13.3738930  36.6429350  14.5539880
  13.5077690  36.7580460  16.0575530   8.4483910  48.2589270  12.7015630
   8.5495890  48.0553260  11.7717610   7.5485650  48.0047550  12.9063410
   5.9709800  38.8169630  16.6839530   5.2625950  39.2855970  17.1253140
   6.2554280  38.1591640  17.3184720   7.5965730  40.2366330  24.6832060
   8.0950980  40.7112150  25.3483910   7.7388680  39.3129850  24.8902090
  10.0025230  35.5420290  18.1235320   9.8793010  35.5606420  17.1744830
  10.9509790  35.5899230  18.2433720   7.0902020  50.7775590  17.3963300
   7.3443520  50.7396980  16.4742670   6.1414500  50.6508920  17.3891550
   4.1744820  37.1254710  14.0590240   5.0235350  37.5624860  13.9930430
   3.8076090  37.4374970  14.8862300  14.8032590  36.4534290  25.5260450
  14.3006190  37.1939690  25.8654260  15.6189250  36.8418290  25.2097240
  13.0954600  41.6967470  18.9721810  12.1544740  41.7117700  19.1469500
  13.4098670  40.9103430  19.4182110   3.0736240  43.3787070  12.5325770
   3.8399510  43.2668430  13.0951200   3.1510930  42.6825040  11.8802540
   1.7683000  40.8112140  13.2158660   1.8486590  39.8639650  13.3276060
   2.6602750  41.1419020  13.3219320  15.0980180  48.8676320  20.6476070
  15.2227600  49.6907490  21.1199880  15.9645740  48.6567050  20.3000220
   2.5697710  50.9607530  20.3193200   3.3060190  50.4122990  20.5901770
   2.9538630  51.8263540  20.1799190   5.6800020  50.1337840  12.1418770
   6.4728630  50.4226670  11.6900560   5.1604370  49.7030010  11.4631250
  10.4120620  46.2533470  29.4554190   9.8058780  46.2765070  28.7149940
  10.1074730  45.5216510  29.9921440  11.8420990  49.9813760  28.0663600
  12.7942740  49.8971780  28.0163840  11.6949210  50.6455470  28.7397390
  14.7330190  49.3607970  13.5655510  14.4471700  48.9473110  12.7509690
  14.5349740  50.2895680  13.4456030   6.1977420  45.3541250  12.0061120
   6.0928060  44.7393600  12.7322500   6.0301640  44.8307140  11.2224130
   6.3491740  44.0398050  27.9850350   5.5837410  44.6083050  27.9005020
   6.5307700  43.7474260  27.0918580   9.4380150  44.4161280  12.6103110
   8.8890250  44.8630580  13.2545850  10.0599410  43.9110530  13.1340780
  13.4915090  45.7703380  28.5425370  14.2324560  46.1079140  28.0392830
  12.7287770  45.9395440  27.9895140   5.1055270  43.3752200  14.5068410
   5.5271690  43.2092070  15.3499800   5.2306110  42.5652430  14.0123550
   3.2682690  39.3548750  27.3139390   2.7379150  38.8639700  26.6862730
   3.9370760  39.7832950  26.7797320   7.6182910  42.3989810  11.7545510
   8.1388570  41.6838830  11.3886660   8.2651310  43.0375680  12.0546020
  12.1660750  43.8218210  27.0780580  12.5801770  43.9763290  27.9271000
  11.2311750  43.9473430  27.2406360  12.6382920  41.1614370  29.0819730
  13.2203690  40.4066690  28.9940210  12.8144690  41.6921810  28.3051210
   3.7554990  36.3211120  27.3936680   3.6611860  35.7031870  26.6687550
   3.1752380  37.0477410  27.1666590   6.5216430  34.8784360  24.4264070
   6.0733730  34.9008620  23.5809620   5.8881630  34.4803380  25.0234370
   6.9275980  43.7738690  25.0476510   7.3464090  44.6171420  24.8752750
   6.0084610  43.9110730  24.8183290   9.2639880  41.5054870  26.4314350
   9.3836090  40.9096010  27.1709190  10.1233880  41.5424560  26.0115650
  11.6027780  42.0592060  25.0076860  11.0763000  42.5834680  24.4042000
  11.9459120  42.6919450  25.6386590   4.0014170  39.4485430  11.4526570
   3.8003230  38.5852790  11.8139910   3.8306220  39.3618790  10.5148170
   4.7783400  50.0791700  26.1634240   4.2404490  50.8037760  25.8442940
   5.0317360  49.6022040  25.3731580   6.0308650  38.0476220  27.6890170
   6.6208340  37.7392070  28.3767990   5.2128890  37.5755970  27.8450070
  10.8502080  37.6642030  27.9223190  10.1617600  37.0023570  27.8573180
  11.5708100  37.2180300  28.3671650  11.4802480  34.2593660  13.9813450
  11.7604770  33.4161560  14.3372870  10.7068210  34.4916770  14.4952200
   2.7996970  36.5486050  11.4404450   3.1022870  36.5553480  10.5323600
   3.5391560  36.1983910  11.9372110   7.6345610  51.3142910  26.4220890
   7.5604310  52.2178050  26.7293260   6.7324450  50.9954810  26.3942960
   6.0181900  35.4920670  12.4260650   5.6703900  34.8144660  11.8463100
   6.2194670  35.0310180  13.2404040   8.1830940  50.4801420  14.0447250
   9.0781730  50.8186390  14.0666010   8.2148570  49.7580830  13.4171530
   1.8227100  45.8528470  12.2734250   2.2601970  46.3958140  12.9291830
   2.3074830  45.0275420  12.2830590   3.6334820  46.9726510  17.3856480
   3.3330360  46.8491480  18.2860390   3.5272310  46.1135100  16.9772210
  15.1625290  49.0105090  26.7513450  14.5627280  49.0697650  26.0077370
  15.2919190  48.0710070  26.8810300  16.4026740  46.7522910  12.0883160
  15.5719700  46.8199560  12.5590390  16.5798570  47.6427030  11.7850020
  15.8583200  43.4970390  14.5917360  16.6202110  44.0667040  14.6977050
  15.8737570  42.9297590  15.3625670  16.8643170  44.3520490  19.4359290
  17.2352000  43.5687810  19.0295260  17.5045100  45.0409590  19.2576590
  13.8476930  45.7357070  24.8489610  13.0336770  46.1654230  25.1115400
  14.2551130  46.3475480  24.2358660  15.9102370  43.7904760  11.7489880
  16.1851210  44.6983640  11.6209100  15.7213110  43.7267290  12.6851870
  12.3077980  36.8149610  13.0443510  12.7262860  36.6280590  12.2040170
  12.0014040  35.9628660  13.3546440  15.8067710  41.7273750  16.7419310
  15.4311310  40.9601680  16.3100600  15.0770830  42.1096450  17.2294240
  15.1967330  40.8745270  26.3758830  14.9653420  40.6458020  25.4756780
  15.4571880  41.7944820  26.3303720  13.6355400  36.1001700  29.1538530
  14.5125580  36.1085100  29.5372530  13.6476240  35.3632540  28.5430880
  15.0818670  39.9531240  20.0426550  15.6056150  39.4593890  19.4116720
  15.6678090  40.0881600  20.7874120  15.2608390  40.0371110  23.5646100
  14.3111100  40.0034650  23.6791090  15.4421400  40.9471220  23.3295870
  14.5718640  39.2104590  15.9818960  15.0677760  38.9775460  16.7667840
  14.3734710  38.3716430  15.5656600  16.0005800  37.8465540  18.5156640
  15.8905080  37.6921580  19.4538910  16.7613390  37.3186480  18.2732050
  14.3471520  33.7859670  24.9739640  14.9843740  34.3993810  25.3398830
  14.4946410  33.8220330  24.0288870  16.8896070  35.6773460  11.7562780
  17.8145380  35.5454640  11.5481070  16.8671860  35.7566280  12.7099230
  16.9634560  36.4484120  14.3819490  16.1686060  36.3829240  14.9112400
  17.1677840  37.3834760  14.3704840  13.9052980  50.4875670  18.3757880
  14.5012050  50.1660240  17.6992300  14.1631130  50.0147490  19.1671150
   1.8115550  46.9193580  28.5248510   1.7685180  46.5486490  29.4062970
   1.9426560  47.8571150  28.6650330   5.5121580  48.4753170  24.1258230
   5.2712940  48.7427730  23.2388750   6.4524220  48.6458900  24.1809090
   7.7176000  34.9385860  27.8814740   7.6564890  35.5307690  28.6310150
   8.6576380  34.8311820  27.7365000  10.3550560  34.5955920  27.5207030
  10.9690970  34.9135210  26.8588110  10.9000120  34.1104510  28.1402890
  16.7725740  50.4947550  24.9268870  16.2784020  50.8916420  24.2096000
  16.1639030  49.8696760  25.3206150  11.0958600  33.1588060  23.8476320
  10.2218440  33.4923170  23.6449250  10.9869350  32.6861240  24.6728190
  12.0030580  35.3658930  25.2318040  11.6743940  34.5510690  24.8519770
  12.9512880  35.3228740  25.1083730  14.4565190  51.1370970  22.2055610
  13.9968160  51.8886780  21.8313630  13.8277650  50.4177440  22.1470410
   4.8860910  49.4459210  21.3803740   5.4025930  48.8346570  20.8552000
   5.5358290  49.9487990  21.8714750   7.6256410  50.3367700  22.2072720
   7.9134220  50.0822000  21.3305730   8.1379630  49.7845060  22.7978290
   8.8433420  34.0757900  22.7869230   8.0605210  34.5503400  23.0665990
   8.5496350  33.1712730  22.6782410  13.3954490  34.7781000  20.8318320
  13.8362580  34.7226100  19.9839920  13.1262080  35.6939010  20.9028500
  15.2593060  34.4096240  18.8427140  15.1981460  33.4657460  18.6958160
  16.0385090  34.5176330  19.3880600   6.7287640  36.4944650  18.2985260
   5.9162150  36.1201540  17.9581140   7.2329280  35.7389730  18.6006450
  11.2312620  33.1587100  19.5368330  11.8341990  33.7307310  20.0116850
  10.4905610  33.7226540  19.3142230  14.3747220  33.5608660  14.8108610
  14.5697850  34.4592110  15.0776040  13.5877090  33.3295740  15.3041560
   2.5598980  34.9069430  13.8484920   3.0891740  34.1199230  13.7192870
   3.1927300  35.5860620  14.0820450   4.7536820  34.6444570  16.9030310
   4.1239560  33.9431880  17.0700440   4.2141960  35.4048700  16.6863470
   7.6928770  51.2583800  29.5740920   8.6196080  51.0228070  29.6176880
   7.6779200  52.0855800  29.0926950  15.9273830  50.8009370  16.5715170
  16.1026020  50.1147110  15.9276090  15.2295400  51.3256420  16.1791840
   4.8792380  33.9228550  29.3382800   4.5976650  34.4262150  28.5743620
   5.2612080  33.1250300  28.9724930   3.7701480  51.1904210  14.1250480
   4.5020300  50.9063490  13.5774370   4.0295150  50.9517490  15.0149860
   2.9316270  47.3068940  14.1296810   2.3025150  47.7754040  14.6782640
   3.0464100  46.4618160  14.5643000  11.4807840  33.3382130  29.9163270
  11.3673290  33.6576740  30.8114790  12.2977580  33.7394640  29.6200550
  14.2606330  50.4853660  29.3981960  15.0531650  49.9902890  29.1907920
  14.5539480  51.1643800  30.0057570   8.5184030  43.1353620   2.1607280
   7.7426130  42.6554060   2.4505850   9.1696960  42.4559270   1.9863440
   2.5349860  43.4473430   3.0383040   1.7034740  43.1922140   3.4379550
   3.1430840  43.5184200   3.7740960   2.5151120  47.4813520   3.2341060
   2.8179160  46.5911260   3.0551280   3.2594710  48.0383740   3.0063310
   7.9593020  45.8110810   2.1677440   7.8901300  44.8700750   2.0066570
   8.7212880  45.9012220   2.7400010   4.9610930  39.9593190   2.1888990
   5.4689150  40.4574160   2.8294010   5.4924170  39.1828390   2.0128350
  17.0621860  38.1298380   5.8918340  16.3574030  38.5180090   5.3733450
  17.3279780  38.8248670   6.4939270   3.2447030  34.5991750   6.4552410
   3.2465470  35.1164140   5.6498310   2.4151340  34.1221930   6.4322340
   4.4949880  44.2386930   4.6325910   4.1619260  44.8655850   5.2746980
   4.6716560  44.7648810   3.8527580  13.0083790  38.0532010   2.1002250
  12.3039360  38.3416900   2.6805360  13.3695950  38.8632120   1.7401810
   2.9262360  36.3101710   4.4622860   3.2679170  37.1543760   4.1676730
   1.9878170  36.4585450   4.5788200   3.7068980  46.2067730   6.4475090
   4.3242980  46.8818810   6.1659540   2.8462100  46.6155710   6.3562590
  14.6246570  47.6707140   4.3629730  13.9410090  48.3406250   4.3546400
  15.1640860  47.8687790   3.5974590  16.0770710  37.4986800   2.4911460
  15.1295620  37.5325780   2.6226890  16.4020700  38.3125750   2.8760820
  12.1605310  49.5151270   3.0774910  12.1732470  49.1113560   2.2097170
  11.6080530  50.2898560   2.9736340  11.5590750  44.4181110   4.4057520
  11.9759540  44.2041220   3.5710980  12.2830570  44.6753900   4.9766140
  15.5052850  42.8168330   4.4973760  14.6771480  42.8861420   4.0223890
  16.1003330  43.4022640   4.0289590  12.4694860  39.6037650   5.4428630
  12.0566040  40.4291360   5.6968620  11.7370810  39.0182690   5.2504990
   5.0709350  46.0765110   2.4686510   4.7737640  45.4710580   1.7894290
   6.0209170  46.1142420   2.3575870   3.3156270  39.1640760   4.0846340
   3.8670860  39.2736100   3.3099590   3.8299780  39.5378360   4.8001570
  13.1594960  49.6496980   6.1309610  12.6825520  50.4569170   5.9382220
  12.4756750  48.9975310   6.2835820   4.1627780  45.8146800   9.1194310
   3.2656310  46.0386770   9.3667710   4.1880650  45.9381740   8.1705710
   2.9899000  42.6860120   7.6951680   2.8506770  43.5582920   8.0639080
   2.1080360  42.3432930   7.5499620   4.7879350  48.6281820   9.9036830
   4.7594780  49.0324770   9.0365260   4.6244320  47.6992180   9.7408430
  16.7394170  49.4108920  11.2001000  17.2153890  49.8891810  11.8790080
  17.3601330  49.3426410  10.4746500  16.1427420  46.6021770   8.3601010
  16.2690480  46.3633650   7.4418190  16.1848800  45.7706310   8.8323090
  10.0044160  50.3049770   6.9295820  10.5188830  50.2157780   7.7318250
   9.1613240  50.6509470   7.2223730  15.9951430  38.6554230   9.3250750
  15.3795700  39.1633900   8.7966210  15.6747850  37.7552560   9.2676690
   8.0565750  37.4946120   6.7912940   7.5945120  37.7029140   7.6032880
   7.6543860  36.6805470   6.4883610  13.0570260  38.7155070   7.9209600
  12.2063850  38.4160820   8.2418670  12.8972050  38.9597080   7.0093420
  10.1519970  40.2156820  10.0208390  10.4773380  39.3820570   9.6810620
  10.9400300  40.7385340  10.1686720   5.8071840  35.1724930   3.0467220
   6.1044170  36.0787760   2.9659240   6.3557400  34.6843710   2.4326790
   6.0009370  40.6496750   9.5819140   5.9052970  39.7091480   9.4319540
   6.8441350  40.8711820   9.1867210   7.7064960  37.1445390  10.8049660
   7.0163280  36.9517590  11.4395750   8.4497260  37.4280030  11.3373960
   9.9827930  40.9843830   3.6403580   9.2509050  41.4930640   3.9893680
   9.5852270  40.1673810   3.3392360  10.4453840  36.4377510   3.0526520
  10.4626580  36.8886160   3.8968370  10.1969420  35.5383150   3.2659960
  13.8724590  33.8509690   8.8912900  14.1970360  33.1199350   9.4170880
  13.9081100  33.5323330   7.9893890   6.7213290  41.7199810   3.7921480
   7.0883420  41.2458380   4.5382820   6.5318350  42.5941380   4.1329820
   4.5112660  40.7608450   6.1105690   4.2069730  41.6400430   6.3356050
   5.4659120  40.8208240   6.1463130  13.7982430  43.9634800   2.4998930
  14.5181550  44.4590090   2.1095040  13.5964250  43.2852690   1.8552800
   9.1801230  44.0343860   8.3867930   9.1138540  43.1139530   8.1325520
   8.5506370  44.1319300   9.1012570   3.7689510  42.0595430  10.1416600
   3.4689650  42.2052610   9.2444420   4.5400750  41.5000720  10.0489990
   9.1117960  46.8564430   8.1371730   9.1262500  45.9245390   7.9190640
   8.4043060  46.9424190   8.7761500  15.3229170  43.4971770   7.4840310
  14.5977360  44.0900550   7.2869700  15.8504630  43.4895310   6.6853680
   8.5451860  48.4982000   5.2312230   9.1894080  48.7041380   5.9085650
   8.9081300  47.7370400   4.7783080   9.8183940  46.5014350   3.9489680
  10.4606170  45.8007510   4.0621850  10.3433290  47.2812790   3.7686570
  11.5921560  47.3009250   7.1525740  11.9277800  47.8875940   7.8303660
  10.6721900  47.1701960   7.3823530   7.4210140  47.3500580  10.3213800
   7.1007010  46.6309820  10.8659490   6.7468500  48.0255650  10.3949860
  10.6363740  37.5826740   5.6850600  11.0044560  36.7621950   6.0130170
   9.7761940  37.6428630   6.1006250   7.5965730  40.2366330   5.9088570
   8.0950980  40.7112150   6.5740420   7.7388680  39.3129850   6.1158600
  14.8032590  36.4534290   6.7516960  14.3006190  37.1939690   7.0910770
  15.6189250  36.8418290   6.4353750  10.4120620  46.2533470  10.6810700
   9.8058780  46.2765070   9.9406450  10.1074730  45.5216510  11.2177950
  11.8420990  49.9813760   9.2920110  12.7942740  49.8971780   9.2420350
  11.6949210  50.6455470   9.9653900   6.3491740  44.0398050   9.2106860
   5.5837410  44.6083050   9.1261530   6.5307700  43.7474260   8.3175090
  13.4915090  45.7703380   9.7681880  14.2324560  46.1079140   9.2649340
  12.7287770  45.9395440   9.2151650   3.2682690  39.3548750   8.5395900
   2.7379150  38.8639700   7.9119240   3.9370760  39.7832950   8.0053830
  12.1660750  43.8218210   8.3037090  12.5801770  43.9763290   9.1527510
  11.2311750  43.9473430   8.4662870  12.6382920  41.1614370  10.3076240
  13.2203690  40.4066690  10.2196720  12.8144690  41.6921810   9.5307720
   3.7554990  36.3211120   8.6193190   3.6611860  35.7031870   7.8944060
   3.1752380  37.0477410   8.3923100   6.5216430  34.8784360   5.6520580
   6.0733730  34.9008620   4.8066130   5.8881630  34.4803380   6.2490880
   6.9275980  43.7738690   6.2733020   7.3464090  44.6171420   6.1009260
   6.0084610  43.9110730   6.0439800   9.2639880  41.5054870   7.6570860
   9.3836090  40.9096010   8.3965700  10.1233880  41.5424560   7.2372160
  11.6027780  42.0592060   6.2333370  11.0763000  42.5834680   5.6298510
  11.9459120  42.6919450   6.8643100   4.7783400  50.0791700   7.3890750
   4.2404490  50.8037760   7.0699450   5.0317360  49.6022040   6.5988090
   6.0308650  38.0476220   8.9146680   6.6208340  37.7392070   9.6024500
   5.2128890  37.5755970   9.0706580  10.8502080  37.6642030   9.1479700
  10.1617600  37.0023570   9.0829690  11.5708100  37.2180300   9.5928160
   7.6345610  51.3142910   7.6477400   7.5604310  52.2178050   7.9549770
   6.7324450  50.9954810   7.6199470  15.1625290  49.0105090   7.9769960
  14.5627280  49.0697650   7.2333880  15.2919190  48.0710070   8.1066810
  13.8476930  45.7357070   6.0746120  13.0336770  46.1654230   6.3371910
  14.2551130  46.3475480   5.4615170  15.1967330  40.8745270   7.6015340
  14.9653420  40.6458020   6.7013290  15.4571880  41.7944820   7.5560230
  13.6355400  36.1001700  10.3795040  14.5125580  36.1085100  10.7629040
  13.6476240  35.3632540   9.7687390  15.2608390  40.0371110   4.7902610
  14.3111100  40.0034650   4.9047600  15.4421400  40.9471220   4.5552380
  14.3471520  33.7859670   6.1996150  14.9843740  34.3993810   6.5655340
  14.4946410  33.8220330   5.2545380   1.8115550  46.9193580   9.7505020
   1.7685180  46.5486490  10.6319480   1.9426560  47.8571150   9.8906840
   5.5121580  48.4753170   5.3514740   5.2712940  48.7427730   4.4645260
   6.4524220  48.6458900   5.4065600   7.7176000  34.9385860   9.1071250
   7.6564890  35.5307690   9.8566660   8.6576380  34.8311820   8.9621510
  10.3550560  34.5955920   8.7463540  10.9690970  34.9135210   8.0844620
  10.9000120  34.1104510   9.3659400  16.7725740  50.4947550   6.1525380
  16.2784020  50.8916420   5.4352510  16.1639030  49.8696760   6.5462660
  11.0958600  33.1588060   5.0732830  10.2218440  33.4923170   4.8705760
  10.9869350  32.6861240   5.8984700  12.0030580  35.3658930   6.4574550
  11.6743940  34.5510690   6.0776280  12.9512880  35.3228740   6.3340240
  14.4565190  51.1370970   3.4312120  13.9968160  51.8886780   3.0570140
  13.8277650  50.4177440   3.3726920   4.8860910  49.4459210   2.6060250
   5.4025930  48.8346570   2.0808510   5.5358290  49.9487990   3.0971260
   7.6256410  50.3367700   3.4329230   7.9134220  50.0822000   2.5562240
   8.1379630  49.7845060   4.0234800   8.8433420  34.0757900   4.0125740
   8.0605210  34.5503400   4.2922500   8.5496350  33.1712730   3.9038920
   7.6928770  51.2583800  10.7997430   8.6196080  51.0228070  10.8433390
   7.6779200  52.0855800  10.3183460   4.8792380  33.9228550  10.5639310
   4.5976650  34.4262150   9.8000130   5.2612080  33.1250300  10.1981440
  11.4807840  33.3382130  11.1419780  11.3673290  33.6576740  12.0371300
  12.2977580  33.7394640  10.8457060  14.2606330  50.4853660  10.6238470
  15.0531650  49.9902890  10.4164430  14.5539480  51.1643800  11.2314080
  10.3865990  22.5831110  75.3771970  10.3060040  21.6685720  75.1063680
   9.9730410  23.0798180  74.6711680  12.5391460  28.7670320  76.0380370
  12.0772990  27.9957560  76.3667540  13.3517010  28.7936390  76.5432820
   8.7654770  31.0528330  75.6584360   8.1466210  31.5085830  75.0878800
   9.6206550  31.2079790  75.2574060   3.1203200  18.2163330  72.9537770
   3.2269950  19.1167060  73.2606530   2.2095560  18.1681300  72.6632420
  12.7722310  17.3388140  74.4248670  13.5931930  16.8484710  74.4674150
  12.8056390  17.9285800  75.1780510   9.6318120  25.9367570  73.0516270
   9.0135390  26.4017020  72.4878990  10.1441370  26.6295050  73.4685780
   6.6090250  15.0240490  75.8841410   6.9165230  14.4687380  75.1676910
   5.6790950  15.1584950  75.7014400  13.4550730  27.4624000  73.2639040
  13.3447060  26.5198330  73.3888460  13.4518980  27.8239640  74.1501800
   8.9971010  23.0889320  72.6201530   8.0700290  23.0226700  72.8490000
   9.1495830  24.0269450  72.5056770   8.9840090  19.3606320  69.6168690
   8.0443760  19.5220280  69.7021150   9.3023350  20.0792000  69.0704680
  13.0268300  24.6509620  73.1236780  12.4080720  24.3129170  72.4763080
  13.0092750  24.0069380  73.8315970   4.6027650  23.6154060  75.4021260
   4.1984650  22.9031310  74.9067160   4.6890770  23.2707300  76.2909300
  11.2033000  23.8896430  70.1309530  11.6426280  23.0518860  69.9847350
  11.9161420  24.5225830  70.2173670   9.3128380  28.8292500  74.0990770
   9.7524290  29.5716830  73.6846160   9.2515270  29.0719070  75.0229730
  14.7850140  15.1439240  68.4450570  14.4722800  15.2366070  69.3449640
  15.5462610  15.7220270  68.3948000  11.9798560  31.8161620  71.4553780
  11.8199700  31.5264560  72.3535610  11.8145270  31.0401750  70.9199010
   4.4586940  31.5960150  73.2325400   4.2829420  30.6795690  73.0193200
   3.6042680  31.9547440  73.4723200  11.6824690  29.3249180  70.0151780
  10.9889850  29.3226470  69.3554060  12.4247550  28.9008500  69.5845950
  11.2474620  30.9511890  74.0900270  11.7031570  30.1701270  74.4038890
  11.5867140  31.6618710  74.6341450   3.7695940  15.8534110  76.2851580
   3.3264090  16.6343650  75.9536100   4.3280930  16.1764000  76.9922520
   6.8854760  15.4744810  71.1657410   6.2608940  15.4704680  71.8910720
   6.7984880  14.6075770  70.7693380   3.5610160  20.9767680  74.0132830
   3.3351080  20.7604850  74.9179450   2.7802690  21.4096140  73.6678800
  10.7907920  20.9831050  72.6123480  10.1916810  21.7066850  72.4287100
  11.3387530  20.9207830  71.8299930   9.3972790  19.6194590  74.6426760
   9.7902360  19.9366790  73.8295450   9.7589640  18.7406470  74.7571280
   2.2707700  18.7681030  76.1024240   1.9307750  19.2456260  76.8591290
   1.5085020  18.3146150  75.7425340   6.4825470  19.8866620  70.1336790
   6.6038290  19.8453100  71.0822610   6.0973980  20.7490770  69.9783520
   5.4946970  22.1967760  69.5320090   4.9263870  21.7486010  68.9056000
   6.2035970  22.5560540  68.9985240   3.0394450  26.1925950  71.8046500
   2.2656710  25.6523570  71.6445220   3.7689080  25.6732560  71.4664260
   9.2592370  16.5829270  71.7402280   8.4456980  16.0842440  71.6647590
   9.0654320  17.4227520  71.3238630  11.9740760  20.9548920  70.0364440
  12.8620380  21.2666150  69.8615780  11.9445850  20.0821170  69.6445020
   3.0831850  25.8606330  75.4425310   3.6010520  25.0574590  75.3882200
   2.6315870  25.7985470  76.2842140   7.9701350  27.1272610  70.7152610
   8.3117050  27.8714840  70.2195930   7.1414060  27.4403730  71.0777440
  14.2455030  22.2660760  69.5044300  14.1618750  22.6974980  68.6540740
  14.9649220  22.7259110  69.9371120  15.2742280  29.1203020  72.2326430
  14.6318440  28.4658640  72.5070150  14.8872940  29.5258110  71.4567100
  10.8528760  26.4488450  76.0798120  11.2052580  25.8516580  75.4199490
   9.9691090  26.1232680  76.2506370   6.9392040  27.2086140  73.4868530
   7.6263170  27.7555350  73.8676120   6.1524460  27.7526870  73.5218140
   6.2419250  24.2132170  73.0993890   6.6982030  25.0237420  73.3254080
   5.8907460  23.8955310  73.9312380  13.6639660  28.0119480  68.7702780
  13.4377240  27.2949920  69.3627420  13.2735860  27.7631920  67.9324530
  13.2455910  25.9291420  70.4316940  12.9577610  26.3904110  71.2194820
  14.0408080  25.4689190  70.7001160   5.4624310  29.4217540  70.3620910
   5.4534410  30.1547230  69.7465420   4.5422670  29.1749120  70.4547870
  14.0025770  17.7640190  71.5912120  13.3738930  17.8685860  70.8770350
  13.5077690  17.9836970  72.3806000   8.4483910  29.4845780  69.0246100
   8.5495890  29.2809770  68.0948080   7.5485650  29.2304060  69.2293880
   5.9709800  20.0426140  73.0070000   5.2625950  20.5112480  73.4483610
   6.2554280  19.3848150  73.6415190  10.0025230  16.7676800  74.4465790
   9.8793010  16.7862930  73.4975300  10.9509790  16.8155740  74.5664190
   7.0902020  32.0032100  73.7193770   7.3443520  31.9653490  72.7973140
   6.1414500  31.8765430  73.7122020   4.1744820  18.3511220  70.3820710
   5.0235350  18.7881370  70.3160900   3.8076090  18.6631480  71.2092770
  13.0954600  22.9223980  75.2952280  12.1544740  22.9374210  75.4699970
  13.4098670  22.1359940  75.7412580   3.0736240  24.6043580  68.8556240
   3.8399510  24.4924940  69.4181670   3.1510930  23.9081550  68.2033010
   1.7683000  22.0368650  69.5389130   1.8486590  21.0896160  69.6506530
   2.6602750  22.3675530  69.6449790   2.5697710  32.1864040  76.6423670
   3.3060190  31.6379500  76.9132240   2.9538630  33.0520050  76.5029660
   5.6800020  31.3594350  68.4649240   6.4728630  31.6483180  68.0131030
   5.1604370  30.9286520  67.7861720  14.7330190  30.5864480  69.8885980
  14.4471700  30.1729620  69.0740160  14.5349740  31.5152190  69.7686500
   6.1977420  26.5797760  68.3291590   6.0928060  25.9650110  69.0552970
   6.0301640  26.0563650  67.5454600   9.4380150  25.6417790  68.9333580
   8.8890250  26.0887090  69.5776320  10.0599410  25.1367040  69.4571250
   5.1055270  24.6008710  70.8298880   5.5271690  24.4348580  71.6730270
   5.2306110  23.7908940  70.3354020   7.6182910  23.6246320  68.0775980
   8.1388570  22.9095340  67.7117130   8.2651310  24.2632190  68.3776490
   4.0014170  20.6741940  67.7757040   3.8003230  19.8109300  68.1370380
   3.8306220  20.5875300  66.8378640  11.4802480  15.4850170  70.3043920
  11.7604770  14.6418070  70.6603340  10.7068210  15.7173280  70.8182670
   2.7996970  17.7742560  67.7634920   3.1022870  17.7809990  66.8554070
   3.5391560  17.4240420  68.2602580   6.0181900  16.7177180  68.7491120
   5.6703900  16.0401170  68.1693570   6.2194670  16.2566690  69.5634510
   8.1830940  31.7057930  70.3677720   9.0781730  32.0442900  70.3896480
   8.2148570  30.9837340  69.7402000   1.8227100  27.0784980  68.5964720
   2.2601970  27.6214650  69.2522300   2.3074830  26.2531930  68.6061060
   3.6334820  28.1983020  73.7086950   3.3330360  28.0747990  74.6090860
   3.5272310  27.3391610  73.3002680  16.4026740  27.9779420  68.4113630
  15.5719700  28.0456070  68.8820860  16.5798570  28.8683540  68.1080490
  15.8583200  24.7226900  70.9147830  16.6202110  25.2923550  71.0207520
  15.8737570  24.1554100  71.6856140  16.8643170  25.5777000  75.7589760
  17.2352000  24.7944320  75.3525730  17.5045100  26.2666100  75.5807060
  15.9102370  25.0161270  68.0720350  16.1851210  25.9240150  67.9439570
  15.7213110  24.9523800  69.0082340  12.3077980  18.0406120  69.3673980
  12.7262860  17.8537100  68.5270640  12.0014040  17.1885170  69.6776910
  15.8067710  22.9530260  73.0649780  15.4311310  22.1858190  72.6331070
  15.0770830  23.3352960  73.5524710  15.0818670  21.1787750  76.3657020
  15.6056150  20.6850400  75.7347190  15.6678090  21.3138110  77.1104590
  14.5718640  20.4361100  72.3049430  15.0677760  20.2031970  73.0898310
  14.3734710  19.5972940  71.8887070  16.0005800  19.0722050  74.8387110
  15.8905080  18.9178090  75.7769380  16.7613390  18.5442990  74.5962520
  16.8896070  16.9029970  68.0793250  17.8145380  16.7711150  67.8711540
  16.8671860  16.9822790  69.0329700  16.9634560  17.6740630  70.7049960
  16.1686060  17.6085750  71.2342870  17.1677840  18.6091270  70.6935310
  13.9052980  31.7132180  74.6988350  14.5012050  31.3916750  74.0222770
  14.1631130  31.2404000  75.4901620  15.2593060  15.6352750  75.1657610
  15.1981460  14.6913970  75.0188630  16.0385090  15.7432840  75.7111070
   6.7287640  17.7201160  74.6215730   5.9162150  17.3458050  74.2811610
   7.2329280  16.9646240  74.9236920  11.2312620  14.3843610  75.8598800
  11.8341990  14.9563820  76.3347320  10.4905610  14.9483050  75.6372700
  14.3747220  14.7865170  71.1339080  14.5697850  15.6848620  71.4006510
  13.5877090  14.5552250  71.6272030   2.5598980  16.1325940  70.1715390
   3.0891740  15.3455740  70.0423340   3.1927300  16.8117130  70.4050920
   4.7536820  15.8701080  73.2260780   4.1239560  15.1688390  73.3930910
   4.2141960  16.6305210  73.0093940  15.9273830  32.0265880  72.8945640
  16.1026020  31.3403620  72.2506560  15.2295400  32.5512930  72.5022310
   3.7701480  32.4160720  70.4480950   4.5020300  32.1320000  69.9004840
   4.0295150  32.1774000  71.3380330   2.9316270  28.5325450  70.4527280
   2.3025150  29.0010550  71.0013110   3.0464100  27.6874670  70.8873470
  10.3865990  22.5831110  56.6028480  10.3060040  21.6685720  56.3320190
   9.9730410  23.0798180  55.8968190   8.5184030  24.3610130  58.4837750
   7.7426130  23.8810570  58.7736320   9.1696960  23.6815780  58.3093910
   2.5349860  24.6729940  59.3613510   1.7034740  24.4178650  59.7610020
   3.1430840  24.7440710  60.0971430  12.5391460  28.7670320  57.2636880
  12.0772990  27.9957560  57.5924050  13.3517010  28.7936390  57.7689330
   2.5151120  28.7070030  59.5571530   2.8179160  27.8167770  59.3781750
   3.2594710  29.2640250  59.3293780   8.7654770  31.0528330  56.8840870
   8.1466210  31.5085830  56.3135310   9.6206550  31.2079790  56.4830570
   7.9593020  27.0367320  58.4907910   7.8901300  26.0957260  58.3297040
   8.7212880  27.1268730  59.0630480   8.9898190  19.8437700  58.7176840
   9.3663010  18.9709580  58.6050510   8.8917700  20.1796400  57.8267280
   3.1203200  18.2163330  54.1794280   3.2269950  19.1167060  54.4863040
   2.2095560  18.1681300  53.8888930  12.7722310  17.3388140  55.6505180
  13.5931930  16.8484710  55.6930660  12.8056390  17.9285800  56.4037020
   4.9610930  21.1849700  58.5119460   5.4689150  21.6830670  59.1524480
   5.4924170  20.4084900  58.3358820  17.0621860  19.3554890  62.2148810
  16.3574030  19.7436600  61.6963920  17.3279780  20.0505180  62.8169740
   3.2447030  15.8248260  62.7782880   3.2465470  16.3420650  61.9728780
   2.4151340  15.3478440  62.7552810   9.6318120  25.9367570  54.2772780
   9.0135390  26.4017020  53.7135500  10.1441370  26.6295050  54.6942290
   4.4949880  25.4643440  60.9556380   4.1619260  26.0912360  61.5977450
   4.6716560  25.9905320  60.1758050  13.0083790  19.2788520  58.4232720
  12.3039360  19.5673410  59.0035830  13.3695950  20.0888630  58.0632280
   2.9262360  17.5358220  60.7853330   3.2679170  18.3800270  60.4907200
   1.9878170  17.6841960  60.9018670   3.7068980  27.4324240  62.7705560
   4.3242980  28.1075320  62.4890010   2.8462100  27.8412220  62.6793060
  14.6246570  28.8963650  60.6860200  13.9410090  29.5662760  60.6776870
  15.1640860  29.0944300  59.9205060  16.0770710  18.7243310  58.8141930
  15.1295620  18.7582290  58.9457360  16.4020700  19.5382260  59.1991290
   6.6090250  15.0240490  57.1097920   6.9165230  14.4687380  56.3933420
   5.6790950  15.1584950  56.9270910  12.1605310  30.7407780  59.4005380
  12.1732470  30.3370070  58.5327640  11.6080530  31.5155070  59.2966810
  13.4550730  27.4624000  54.4895550  13.3447060  26.5198330  54.6144970
  13.4518980  27.8239640  55.3758310  11.5590750  25.6437620  60.7287990
  11.9759540  25.4297730  59.8941450  12.2830570  25.9010410  61.2996610
   8.9971010  23.0889320  53.8458040   8.0700290  23.0226700  54.0746510
   9.1495830  24.0269450  53.7313280   8.9840090  19.3606320  50.8425200
   8.0443760  19.5220280  50.9277660   9.3023350  20.0792000  50.2961190
  15.5052850  24.0424840  60.8204230  14.6771480  24.1117930  60.3454360
  16.1003330  24.6279150  60.3520060  13.0268300  24.6509620  54.3493290
  12.4080720  24.3129170  53.7019590  13.0092750  24.0069380  55.0572480
  12.4694860  20.8294160  61.7659100  12.0566040  21.6547870  62.0199090
  11.7370810  20.2439200  61.5735460   4.6027650  23.6154060  56.6277770
   4.1984650  22.9031310  56.1323670   4.6890770  23.2707300  57.5165810
   5.0709350  27.3021620  58.7916980   4.7737640  26.6967090  58.1124760
   6.0209170  27.3398930  58.6806340   3.3156270  20.3897270  60.4076810
   3.8670860  20.4992610  59.6330060   3.8299780  20.7634870  61.1232040
  13.1594960  30.8753490  62.4540080  12.6825520  31.6825680  62.2612690
  12.4756750  30.2231820  62.6066290   4.1627780  27.0403310  65.4424780
   3.2656310  27.2643280  65.6898180   4.1880650  27.1638250  64.4936180
  11.2033000  23.8896430  51.3566040  11.6426280  23.0518860  51.2103860
  11.9161420  24.5225830  51.4430180   2.9899000  23.9116630  64.0182150
   2.8506770  24.7839430  64.3869550   2.1080360  23.5689440  63.8730090
   9.3128380  28.8292500  55.3247280   9.7524290  29.5716830  54.9102670
   9.2515270  29.0719070  56.2486240   4.7879350  29.8538330  66.2267300
   4.7594780  30.2581280  65.3595730   4.6244320  28.9248690  66.0638900
  14.7850140  15.1439240  49.6707080  14.4722800  15.2366070  50.5706150
  15.5462610  15.7220270  49.6204510  16.7394170  30.6365430  67.5231470
  17.2153890  31.1148320  68.2020550  17.3601330  30.5682920  66.7976970
  16.1427420  27.8278280  64.6831480  16.2690480  27.5890160  63.7648660
  16.1848800  26.9962820  65.1553560  10.0044160  31.5306280  63.2526290
  10.5188830  31.4414290  64.0548720   9.1613240  31.8765980  63.5454200
  11.9798560  31.8161620  52.6810290  11.8199700  31.5264560  53.5792120
  11.8145270  31.0401750  52.1455520   4.4586940  31.5960150  54.4581910
   4.2829420  30.6795690  54.2449710   3.6042680  31.9547440  54.6979710
  11.6824690  29.3249180  51.2408290  10.9889850  29.3226470  50.5810570
  12.4247550  28.9008500  50.8102460  11.2474620  30.9511890  55.3156780
  11.7031570  30.1701270  55.6295400  11.5867140  31.6618710  55.8597960
  15.9951430  19.8810740  65.6481220  15.3795700  20.3890410  65.1196680
  15.6747850  18.9809070  65.5907160   3.7695940  15.8534110  57.5108090
   3.3264090  16.6343650  57.1792610   4.3280930  16.1764000  58.2179030
   8.0565750  18.7202630  63.1143410   7.5945120  18.9285650  63.9263350
   7.6543860  17.9061980  62.8114080  13.0570260  19.9411580  64.2440070
  12.2063850  19.6417330  64.5649140  12.8972050  20.1853590  63.3323890
  10.1519970  21.4413330  66.3438860  10.4773380  20.6077080  66.0041090
  10.9400300  21.9641850  66.4917190   6.8854760  15.4744810  52.3913920
   6.2608940  15.4704680  53.1167230   6.7984880  14.6075770  51.9949890
   5.8071840  16.3981440  59.3697690   6.1044170  17.3044270  59.2889710
   6.3557400  15.9100220  58.7557260   3.5610160  20.9767680  55.2389340
   3.3351080  20.7604850  56.1435960   2.7802690  21.4096140  54.8935310
  10.7907920  20.9831050  53.8379990  10.1916810  21.7066850  53.6543610
  11.3387530  20.9207830  53.0556440   6.0009370  21.8753260  65.9049610
   5.9052970  20.9347990  65.7550010   6.8441350  22.0968330  65.5097680
   9.3972790  19.6194590  55.8683270   9.7902360  19.9366790  55.0551960
   9.7589640  18.7406470  55.9827790   7.7064960  18.3701900  67.1280130
   7.0163280  18.1774100  67.7626220   8.4497260  18.6536540  67.6604430
   9.9827930  22.2100340  59.9634050   9.2509050  22.7187150  60.3124150
   9.5852270  21.3930320  59.6622830   6.4205320  18.8854540  58.3686540
   6.4241380  18.4444490  57.5191080   7.3156440  19.2071870  58.4758360
   2.2707700  18.7681030  57.3280750   1.9307750  19.2456260  58.0847800
   1.5085020  18.3146150  56.9681850   6.4825470  19.8866620  51.3593300
   6.6038290  19.8453100  52.3079120   6.0973980  20.7490770  51.2040030
  10.4453840  17.6634020  59.3756990  10.4626580  18.1142670  60.2198840
  10.1969420  16.7639660  59.5890430   5.4946970  22.1967760  50.7576600
   4.9263870  21.7486010  50.1312510   6.2035970  22.5560540  50.2241750
  13.8724590  15.0766200  65.2143370  14.1970360  14.3455860  65.7401350
  13.9081100  14.7579840  64.3124360   6.7213290  22.9456320  60.1151950
   7.0883420  22.4714890  60.8613290   6.5318350  23.8197890  60.4560290
   4.5112660  21.9864960  62.4336160   4.2069730  22.8656940  62.6586520
   5.4659120  22.0464750  62.4693600   3.0394450  26.1925950  53.0303010
   2.2656710  25.6523570  52.8701730   3.7689080  25.6732560  52.6920770
  13.7982430  25.1891310  58.8229400  14.5181550  25.6846600  58.4325510
  13.5964250  24.5109200  58.1783270   9.2592370  16.5829270  52.9658790
   8.4456980  16.0842440  52.8904100   9.0654320  17.4227520  52.5495140
   9.1801230  25.2600370  64.7098400   9.1138540  24.3396040  64.4555990
   8.5506370  25.3575810  65.4243040  11.9740760  20.9548920  51.2620950
  12.8620380  21.2666150  51.0872290  11.9445850  20.0821170  50.8701530
   3.0831850  25.8606330  56.6681820   3.6010520  25.0574590  56.6138710
   2.6315870  25.7985470  57.5098650   7.9701350  27.1272610  51.9409120
   8.3117050  27.8714840  51.4452440   7.1414060  27.4403730  52.3033950
   3.7689510  23.2851940  66.4647070   3.4689650  23.4309120  65.5674890
   4.5400750  22.7257230  66.3720460   9.1117960  28.0820940  64.4602200
   9.1262500  27.1501900  64.2421110   8.4043060  28.1680700  65.0991970
  14.2455030  22.2660760  50.7300810  14.1618750  22.6974980  49.8797250
  14.9649220  22.7259110  51.1627630  15.3229170  24.7228280  63.8070780
  14.5977360  25.3157060  63.6100170  15.8504630  24.7151820  63.0084150
  15.2742280  29.1203020  53.4582940  14.6318440  28.4658640  53.7326660
  14.8872940  29.5258110  52.6823610  10.8528760  26.4488450  57.3054630
  11.2052580  25.8516580  56.6456000   9.9691090  26.1232680  57.4762880
   6.9392040  27.2086140  54.7125040   7.6263170  27.7555350  55.0932630
   6.1524460  27.7526870  54.7474650   6.2419250  24.2132170  54.3250400
   6.6982030  25.0237420  54.5510590   5.8907460  23.8955310  55.1568890
   8.5451860  29.7238510  61.5542700   9.1894080  29.9297890  62.2316120
   8.9081300  28.9626910  61.1013550   9.8183940  27.7270860  60.2720150
  10.4606170  27.0264020  60.3852320  10.3433290  28.5069300  60.0917040
  13.6639660  28.0119480  49.9959290  13.4377240  27.2949920  50.5883930
  13.2735860  27.7631920  49.1581040  11.5921560  28.5265760  63.4756210
  11.9277800  29.1132450  64.1534130  10.6721900  28.3958470  63.7054000
  13.2455910  25.9291420  51.6573450  12.9577610  26.3904110  52.4451330
  14.0408080  25.4689190  51.9257670   7.4210140  28.5757090  66.6444270
   7.1007010  27.8566330  67.1889960   6.7468500  29.2512160  66.7180330
   5.4624310  29.4217540  51.5877420   5.4534410  30.1547230  50.9721930
   4.5422670  29.1749120  51.6804380  10.6363740  18.8083250  62.0081070
  11.0044560  17.9878460  62.3360640   9.7761940  18.8685140  62.4236720
  14.0025770  17.7640190  52.8168630  13.3738930  17.8685860  52.1026860
  13.5077690  17.9836970  53.6062510   8.4483910  29.4845780  50.2502610
   8.5495890  29.2809770  49.3204590   7.5485650  29.2304060  50.4550390
   5.9709800  20.0426140  54.2326510   5.2625950  20.5112480  54.6740120
   6.2554280  19.3848150  54.8671700   7.5965730  21.4622840  62.2319040
   8.0950980  21.9368660  62.8970890   7.7388680  20.5386360  62.4389070
  10.0025230  16.7676800  55.6722300   9.8793010  16.7862930  54.7231810
  10.9509790  16.8155740  55.7920700   7.0902020  32.0032100  54.9450280
   7.3443520  31.9653490  54.0229650   6.1414500  31.8765430  54.9378530
   4.1744820  18.3511220  51.6077220   5.0235350  18.7881370  51.5417410
   3.8076090  18.6631480  52.4349280  14.8032590  17.6790800  63.0747430
  14.3006190  18.4196200  63.4141240  15.6189250  18.0674800  62.7584220
  13.0954600  22.9223980  56.5208790  12.1544740  22.9374210  56.6956480
  13.4098670  22.1359940  56.9669090   3.0736240  24.6043580  50.0812750
   3.8399510  24.4924940  50.6438180   3.1510930  23.9081550  49.4289520
   1.7683000  22.0368650  50.7645640   1.8486590  21.0896160  50.8763040
   2.6602750  22.3675530  50.8706300  15.0980180  30.0932830  58.1963050
  15.2227600  30.9164000  58.6686860  15.9645740  29.8823560  57.8487200
   2.5697710  32.1864040  57.8680180   3.3060190  31.6379500  58.1388750
   2.9538630  33.0520050  57.7286170   5.6800020  31.3594350  49.6905750
   6.4728630  31.6483180  49.2387540   5.1604370  30.9286520  49.0118230
  10.4120620  27.4789980  67.0041170   9.8058780  27.5021580  66.2636920
  10.1074730  26.7473020  67.5408420  11.8420990  31.2070270  65.6150580
  12.7942740  31.1228290  65.5650820  11.6949210  31.8711980  66.2884370
  14.7330190  30.5864480  51.1142490  14.4471700  30.1729620  50.2996670
  14.5349740  31.5152190  50.9943010   6.1977420  26.5797760  49.5548100
   6.0928060  25.9650110  50.2809480   6.0301640  26.0563650  48.7711110
   6.3491740  25.2654560  65.5337330   5.5837410  25.8339560  65.4492000
   6.5307700  24.9730770  64.6405560   9.4380150  25.6417790  50.1590090
   8.8890250  26.0887090  50.8032830  10.0599410  25.1367040  50.6827760
  13.4915090  26.9959890  66.0912350  14.2324560  27.3335650  65.5879810
  12.7287770  27.1651950  65.5382120   5.1055270  24.6008710  52.0555390
   5.5271690  24.4348580  52.8986780   5.2306110  23.7908940  51.5610530
   3.2682690  20.5805260  64.8626370   2.7379150  20.0896210  64.2349710
   3.9370760  21.0089460  64.3284300   7.6182910  23.6246320  49.3032490
   8.1388570  22.9095340  48.9373640   8.2651310  24.2632190  49.6033000
  12.1660750  25.0474720  64.6267560  12.5801770  25.2019800  65.4757980
  11.2311750  25.1729940  64.7893340  12.6382920  22.3870880  66.6306710
  13.2203690  21.6323200  66.5427190  12.8144690  22.9178320  65.8538190
   3.7554990  17.5467630  64.9423660   3.6611860  16.9288380  64.2174530
   3.1752380  18.2733920  64.7153570   6.5216430  16.1040870  61.9751050
   6.0733730  16.1265130  61.1296600   5.8881630  15.7059890  62.5721350
   6.9275980  24.9995200  62.5963490   7.3464090  25.8427930  62.4239730
   6.0084610  25.1367240  62.3670270   9.2639880  22.7311380  63.9801330
   9.3836090  22.1352520  64.7196170  10.1233880  22.7681070  63.5602630
  11.6027780  23.2848570  62.5563840  11.0763000  23.8091190  61.9528980
  11.9459120  23.9175960  63.1873570   4.0014170  20.6741940  49.0013550
   3.8003230  19.8109300  49.3626890   3.8306220  20.5875300  48.0635150
   4.7783400  31.3048210  63.7121220   4.2404490  32.0294270  63.3929920
   5.0317360  30.8278550  62.9218560   6.0308650  19.2732730  65.2377150
   6.6208340  18.9648580  65.9254970   5.2128890  18.8012480  65.3937050
  10.8502080  18.8898540  65.4710170  10.1617600  18.2280080  65.4060160
  11.5708100  18.4436810  65.9158630  11.4802480  15.4850170  51.5300430
  11.7604770  14.6418070  51.8859850  10.7068210  15.7173280  52.0439180
   2.7996970  17.7742560  48.9891430   3.1022870  17.7809990  48.0810580
   3.5391560  17.4240420  49.4859090   7.6345610  32.5399420  63.9707870
   7.5604310  33.4434560  64.2780240   6.7324450  32.2211320  63.9429940
   6.0181900  16.7177180  49.9747630   5.6703900  16.0401170  49.3950080
   6.2194670  16.2566690  50.7891020   8.1830940  31.7057930  51.5934230
   9.0781730  32.0442900  51.6152990   8.2148570  30.9837340  50.9658510
   1.8227100  27.0784980  49.8221230   2.2601970  27.6214650  50.4778810
   2.3074830  26.2531930  49.8317570   3.6334820  28.1983020  54.9343460
   3.3330360  28.0747990  55.8347370   3.5272310  27.3391610  54.5259190
  15.1625290  30.2361600  64.3000430  14.5627280  30.2954160  63.5564350
  15.2919190  29.2966580  64.4297280  16.4026740  27.9779420  49.6370140
  15.5719700  28.0456070  50.1077370  16.5798570  28.8683540  49.3337000
  15.8583200  24.7226900  52.1404340  16.6202110  25.2923550  52.2464030
  15.8737570  24.1554100  52.9112650  16.8643170  25.5777000  56.9846270
  17.2352000  24.7944320  56.5782240  17.5045100  26.2666100  56.8063570
  13.8476930  26.9613580  62.3976590  13.0336770  27.3910740  62.6602380
  14.2551130  27.5731990  61.7845640  15.9102370  25.0161270  49.2976860
  16.1851210  25.9240150  49.1696080  15.7213110  24.9523800  50.2338850
  12.3077980  18.0406120  50.5930490  12.7262860  17.8537100  49.7527150
  12.0014040  17.1885170  50.9033420  15.8067710  22.9530260  54.2906290
  15.4311310  22.1858190  53.8587580  15.0770830  23.3352960  54.7781220
  15.1967330  22.1001780  63.9245810  14.9653420  21.8714530  63.0243760
  15.4571880  23.0201330  63.8790700  13.6355400  17.3258210  66.7025510
  14.5125580  17.3341610  67.0859510  13.6476240  16.5889050  66.0917860
  15.0818670  21.1787750  57.5913530  15.6056150  20.6850400  56.9603700
  15.6678090  21.3138110  58.3361100  15.2608390  21.2627620  61.1133080
  14.3111100  21.2291160  61.2278070  15.4421400  22.1727730  60.8782850
  14.5718640  20.4361100  53.5305940  15.0677760  20.2031970  54.3154820
  14.3734710  19.5972940  53.1143580  16.0005800  19.0722050  56.0643620
  15.8905080  18.9178090  57.0025890  16.7613390  18.5442990  55.8219030
  14.3471520  15.0116180  62.5226620  14.9843740  15.6250320  62.8885810
  14.4946410  15.0476840  61.5775850  16.8896070  16.9029970  49.3049760
  17.8145380  16.7711150  49.0968050  16.8671860  16.9822790  50.2586210
  16.9634560  17.6740630  51.9306470  16.1686060  17.6085750  52.4599380
  17.1677840  18.6091270  51.9191820  13.9052980  31.7132180  55.9244860
  14.5012050  31.3916750  55.2479280  14.1631130  31.2404000  56.7158130
   1.8115550  28.1450090  66.0735490   1.7685180  27.7743000  66.9549950
   1.9426560  29.0827660  66.2137310   5.5121580  29.7009680  61.6745210
   5.2712940  29.9684240  60.7875730   6.4524220  29.8715410  61.7296070
   7.7176000  16.1642370  65.4301720   7.6564890  16.7564200  66.1797130
   8.6576380  16.0568330  65.2851980  10.3550560  15.8212430  65.0694010
  10.9690970  16.1391720  64.4075090  10.9000120  15.3361020  65.6889870
  16.7725740  31.7204060  62.4755850  16.2784020  32.1172930  61.7582980
  16.1639030  31.0953270  62.8693130  11.0958600  14.3844570  61.3963300
  10.2218440  14.7179680  61.1936230  10.9869350  13.9117750  62.2215170
  12.0030580  16.5915440  62.7805020  11.6743940  15.7767200  62.4006750
  12.9512880  16.5485250  62.6570710  14.4565190  32.3627480  59.7542590
  13.9968160  33.1143290  59.3800610  13.8277650  31.6433950  59.6957390
   4.8860910  30.6715720  58.9290720   5.4025930  30.0603080  58.4038980
   5.5358290  31.1744500  59.4201730   7.6256410  31.5624210  59.7559700
   7.9134220  31.3078510  58.8792710   8.1379630  31.0101570  60.3465270
   8.8433420  15.3014410  60.3356210   8.0605210  15.7759910  60.6152970
   8.5496350  14.3969240  60.2269390  13.3954490  16.0037510  58.3805300
  13.8362580  15.9482610  57.5326900  13.1262080  16.9195520  58.4515480
  15.2593060  15.6352750  56.3914120  15.1981460  14.6913970  56.2445140
  16.0385090  15.7432840  56.9367580   6.7287640  17.7201160  55.8472240
   5.9162150  17.3458050  55.5068120   7.2329280  16.9646240  56.1493430
  11.2312620  14.3843610  57.0855310  11.8341990  14.9563820  57.5603830
  10.4905610  14.9483050  56.8629210  14.3747220  14.7865170  52.3595590
  14.5697850  15.6848620  52.6263020  13.5877090  14.5552250  52.8528540
   2.5598980  16.1325940  51.3971900   3.0891740  15.3455740  51.2679850
   3.1927300  16.8117130  51.6307430   4.7536820  15.8701080  54.4517290
   4.1239560  15.1688390  54.6187420   4.2141960  16.6305210  54.2350450
   7.6928770  32.4840310  67.1227900   8.6196080  32.2484580  67.1663860
   7.6779200  33.3112310  66.6413930  15.9273830  32.0265880  54.1202150
  16.1026020  31.3403620  53.4763070  15.2295400  32.5512930  53.7278820
   4.8792380  15.1485060  66.8869780   4.5976650  15.6518660  66.1230600
   5.2612080  14.3506810  66.5211910   3.7701480  32.4160720  51.6737460
   4.5020300  32.1320000  51.1261350   4.0295150  32.1774000  52.5636840
   2.9316270  28.5325450  51.6783790   2.3025150  29.0010550  52.2269620
   3.0464100  27.6874670  52.1129980  11.4807840  14.5638640  67.4650250
  11.3673290  14.8833250  68.3601770  12.2977580  14.9651150  67.1687530
  14.2606330  31.7110170  66.9468940  15.0531650  31.2159400  66.7394900
  14.5539480  32.3900310  67.5544550  10.3865990  22.5831110  37.8284990
  10.3060040  21.6685720  37.5576700   9.9730410  23.0798180  37.1224700
   8.5184030  24.3610130  39.7094260   7.7426130  23.8810570  39.9992830
   9.1696960  23.6815780  39.5350420   2.5349860  24.6729940  40.5870020
   1.7034740  24.4178650  40.9866530   3.1430840  24.7440710  41.3227940
  12.5391460  28.7670320  38.4893390  12.0772990  27.9957560  38.8180560
  13.3517010  28.7936390  38.9945840   2.5151120  28.7070030  40.7828040
   2.8179160  27.8167770  40.6038260   3.2594710  29.2640250  40.5550290
   8.7654770  31.0528330  38.1097380   8.1466210  31.5085830  37.5391820
   9.6206550  31.2079790  37.7087080   7.9593020  27.0367320  39.7164420
   7.8901300  26.0957260  39.5553550   8.7212880  27.1268730  40.2886990
   8.9898190  19.8437700  39.9433350   9.3663010  18.9709580  39.8307020
   8.8917700  20.1796400  39.0523790   3.1203200  18.2163330  35.4050790
   3.2269950  19.1167060  35.7119550   2.2095560  18.1681300  35.1145440
  12.7722310  17.3388140  36.8761690  13.5931930  16.8484710  36.9187170
  12.8056390  17.9285800  37.6293530   4.9610930  21.1849700  39.7375970
   5.4689150  21.6830670  40.3780990   5.4924170  20.4084900  39.5615330
   3.2447030  15.8248260  44.0039390   3.2465470  16.3420650  43.1985290
   2.4151340  15.3478440  43.9809320   9.6318120  25.9367570  35.5029290
   9.0135390  26.4017020  34.9392010  10.1441370  26.6295050  35.9198800
   4.4949880  25.4643440  42.1812890   4.1619260  26.0912360  42.8233960
   4.6716560  25.9905320  41.4014560   2.9262360  17.5358220  42.0109840
   3.2679170  18.3800270  41.7163710   1.9878170  17.6841960  42.1275180
   3.7068980  27.4324240  43.9962070   4.3242980  28.1075320  43.7146520
   2.8462100  27.8412220  43.9049570  14.6246570  28.8963650  41.9116710
  13.9410090  29.5662760  41.9033380  15.1640860  29.0944300  41.1461570
   6.6090250  15.0240490  38.3354430   6.9165230  14.4687380  37.6189930
   5.6790950  15.1584950  38.1527420  12.1605310  30.7407780  40.6261890
  12.1732470  30.3370070  39.7584150  11.6080530  31.5155070  40.5223320
  13.4550730  27.4624000  35.7152060  13.3447060  26.5198330  35.8401480
  13.4518980  27.8239640  36.6014820  11.5590750  25.6437620  41.9544500
  11.9759540  25.4297730  41.1197960  12.2830570  25.9010410  42.5253120
   8.9971010  23.0889320  35.0714550   8.0700290  23.0226700  35.3003020
   9.1495830  24.0269450  34.9569790   8.9840090  19.3606320  32.0681710
   8.0443760  19.5220280  32.1534170   9.3023350  20.0792000  31.5217700
  13.0268300  24.6509620  35.5749800  12.4080720  24.3129170  34.9276100
  13.0092750  24.0069380  36.2828990  12.4694860  20.8294160  42.9915610
  12.0566040  21.6547870  43.2455600  11.7370810  20.2439200  42.7991970
   4.6027650  23.6154060  37.8534280   4.1984650  22.9031310  37.3580180
   4.6890770  23.2707300  38.7422320   5.0709350  27.3021620  40.0173490
   4.7737640  26.6967090  39.3381270   6.0209170  27.3398930  39.9062850
   3.3156270  20.3897270  41.6333320   3.8670860  20.4992610  40.8586570
   3.8299780  20.7634870  42.3488550  13.1594960  30.8753490  43.6796590
  12.6825520  31.6825680  43.4869200  12.4756750  30.2231820  43.8322800
   4.1627780  27.0403310  46.6681290   3.2656310  27.2643280  46.9154690
   4.1880650  27.1638250  45.7192690  11.2033000  23.8896430  32.5822550
  11.6426280  23.0518860  32.4360370  11.9161420  24.5225830  32.6686690
   2.9899000  23.9116630  45.2438660   2.8506770  24.7839430  45.6126060
   2.1080360  23.5689440  45.0986600   9.3128380  28.8292500  36.5503790
   9.7524290  29.5716830  36.1359180   9.2515270  29.0719070  37.4742750
   4.7879350  29.8538330  47.4523810   4.7594780  30.2581280  46.5852240
   4.6244320  28.9248690  47.2895410  14.7850140  15.1439240  30.8963590
  14.4722800  15.2366070  31.7962660  15.5462610  15.7220270  30.8461020
  16.7394170  30.6365430  48.7487980  17.2153890  31.1148320  49.4277060
  17.3601330  30.5682920  48.0233480  16.1427420  27.8278280  45.9087990
  16.2690480  27.5890160  44.9905170  16.1848800  26.9962820  46.3810070
  10.0044160  31.5306280  44.4782800  10.5188830  31.4414290  45.2805230
   9.1613240  31.8765980  44.7710710  11.9798560  31.8161620  33.9066800
  11.8199700  31.5264560  34.8048630  11.8145270  31.0401750  33.3712030
   4.4586940  31.5960150  35.6838420   4.2829420  30.6795690  35.4706220
   3.6042680  31.9547440  35.9236220  11.6824690  29.3249180  32.4664800
  10.9889850  29.3226470  31.8067080  12.4247550  28.9008500  32.0358970
  11.2474620  30.9511890  36.5413290  11.7031570  30.1701270  36.8551910
  11.5867140  31.6618710  37.0854470  15.9951430  19.8810740  46.8737730
  15.3795700  20.3890410  46.3453190  15.6747850  18.9809070  46.8163670
   3.7695940  15.8534110  38.7364600   3.3264090  16.6343650  38.4049120
   4.3280930  16.1764000  39.4435540   8.0565750  18.7202630  44.3399920
   7.5945120  18.9285650  45.1519860   7.6543860  17.9061980  44.0370590
  13.0570260  19.9411580  45.4696580  12.2063850  19.6417330  45.7905650
  12.8972050  20.1853590  44.5580400  10.1519970  21.4413330  47.5695370
  10.4773380  20.6077080  47.2297600  10.9400300  21.9641850  47.7173700
   6.8854760  15.4744810  33.6170430   6.2608940  15.4704680  34.3423740
   6.7984880  14.6075770  33.2206400   5.8071840  16.3981440  40.5954200
   6.1044170  17.3044270  40.5146220   6.3557400  15.9100220  39.9813770
   3.5610160  20.9767680  36.4645850   3.3351080  20.7604850  37.3692470
   2.7802690  21.4096140  36.1191820  10.7907920  20.9831050  35.0636500
  10.1916810  21.7066850  34.8800120  11.3387530  20.9207830  34.2812950
   6.0009370  21.8753260  47.1306120   5.9052970  20.9347990  46.9806520
   6.8441350  22.0968330  46.7354190   9.3972790  19.6194590  37.0939780
   9.7902360  19.9366790  36.2808470   9.7589640  18.7406470  37.2084300
   7.7064960  18.3701900  48.3536640   7.0163280  18.1774100  48.9882730
   8.4497260  18.6536540  48.8860940   9.9827930  22.2100340  41.1890560
   9.2509050  22.7187150  41.5380660   9.5852270  21.3930320  40.8879340
   6.4205320  18.8854540  39.5943050   6.4241380  18.4444490  38.7447590
   7.3156440  19.2071870  39.7014870   2.2707700  18.7681030  38.5537260
   1.9307750  19.2456260  39.3104310   1.5085020  18.3146150  38.1938360
   6.4825470  19.8866620  32.5849810   6.6038290  19.8453100  33.5335630
   6.0973980  20.7490770  32.4296540  10.4453840  17.6634020  40.6013500
  10.4626580  18.1142670  41.4455350  10.1969420  16.7639660  40.8146940
   5.4946970  22.1967760  31.9833110   4.9263870  21.7486010  31.3569020
   6.2035970  22.5560540  31.4498260  13.8724590  15.0766200  46.4399880
  14.1970360  14.3455860  46.9657860  13.9081100  14.7579840  45.5380870
   6.7213290  22.9456320  41.3408460   7.0883420  22.4714890  42.0869800
   6.5318350  23.8197890  41.6816800   4.5112660  21.9864960  43.6592670
   4.2069730  22.8656940  43.8843030   5.4659120  22.0464750  43.6950110
   3.0394450  26.1925950  34.2559520   2.2656710  25.6523570  34.0958240
   3.7689080  25.6732560  33.9177280  13.7982430  25.1891310  40.0485910
  14.5181550  25.6846600  39.6582020  13.5964250  24.5109200  39.4039780
   9.2592370  16.5829270  34.1915300   8.4456980  16.0842440  34.1160610
   9.0654320  17.4227520  33.7751650   9.1801230  25.2600370  45.9354910
   9.1138540  24.3396040  45.6812500   8.5506370  25.3575810  46.6499550
  11.9740760  20.9548920  32.4877460  12.8620380  21.2666150  32.3128800
  11.9445850  20.0821170  32.0958040   3.0831850  25.8606330  37.8938330
   3.6010520  25.0574590  37.8395220   2.6315870  25.7985470  38.7355160
   7.9701350  27.1272610  33.1665630   8.3117050  27.8714840  32.6708950
   7.1414060  27.4403730  33.5290460   3.7689510  23.2851940  47.6903580
   3.4689650  23.4309120  46.7931400   4.5400750  22.7257230  47.5976970
   9.1117960  28.0820940  45.6858710   9.1262500  27.1501900  45.4677620
   8.4043060  28.1680700  46.3248480  14.2455030  22.2660760  31.9557320
  14.1618750  22.6974980  31.1053760  14.9649220  22.7259110  32.3884140
  15.3229170  24.7228280  45.0327290  14.5977360  25.3157060  44.8356680
  15.8504630  24.7151820  44.2340660  15.2742280  29.1203020  34.6839450
  14.6318440  28.4658640  34.9583170  14.8872940  29.5258110  33.9080120
  10.8528760  26.4488450  38.5311140  11.2052580  25.8516580  37.8712510
   9.9691090  26.1232680  38.7019390   6.9392040  27.2086140  35.9381550
   7.6263170  27.7555350  36.3189140   6.1524460  27.7526870  35.9731160
   6.2419250  24.2132170  35.5506910   6.6982030  25.0237420  35.7767100
   5.8907460  23.8955310  36.3825400   8.5451860  29.7238510  42.7799210
   9.1894080  29.9297890  43.4572630   8.9081300  28.9626910  42.3270060
   9.8183940  27.7270860  41.4976660  10.4606170  27.0264020  41.6108830
  10.3433290  28.5069300  41.3173550  13.6639660  28.0119480  31.2215800
  13.4377240  27.2949920  31.8140440  13.2735860  27.7631920  30.3837550
  11.5921560  28.5265760  44.7012720  11.9277800  29.1132450  45.3790640
  10.6721900  28.3958470  44.9310510  13.2455910  25.9291420  32.8829960
  12.9577610  26.3904110  33.6707840  14.0408080  25.4689190  33.1514180
   7.4210140  28.5757090  47.8700780   7.1007010  27.8566330  48.4146470
   6.7468500  29.2512160  47.9436840   5.4624310  29.4217540  32.8133930
   5.4534410  30.1547230  32.1978440   4.5422670  29.1749120  32.9060890
  10.6363740  18.8083250  43.2337580  11.0044560  17.9878460  43.5617150
   9.7761940  18.8685140  43.6493230  14.0025770  17.7640190  34.0425140
  13.3738930  17.8685860  33.3283370  13.5077690  17.9836970  34.8319020
   8.4483910  29.4845780  31.4759120   8.5495890  29.2809770  30.5461100
   7.5485650  29.2304060  31.6806900   5.9709800  20.0426140  35.4583020
   5.2625950  20.5112480  35.8996630   6.2554280  19.3848150  36.0928210
   7.5965730  21.4622840  43.4575550   8.0950980  21.9368660  44.1227400
   7.7388680  20.5386360  43.6645580  10.0025230  16.7676800  36.8978810
   9.8793010  16.7862930  35.9488320  10.9509790  16.8155740  37.0177210
   7.0902020  32.0032100  36.1706790   7.3443520  31.9653490  35.2486160
   6.1414500  31.8765430  36.1635040   4.1744820  18.3511220  32.8333730
   5.0235350  18.7881370  32.7673920   3.8076090  18.6631480  33.6605790
  14.8032590  17.6790800  44.3003940  14.3006190  18.4196200  44.6397750
  15.6189250  18.0674800  43.9840730   3.0736240  24.6043580  31.3069260
   3.8399510  24.4924940  31.8694690   3.1510930  23.9081550  30.6546030
   1.7683000  22.0368650  31.9902150   1.8486590  21.0896160  32.1019550
   2.6602750  22.3675530  32.0962810  15.0980180  30.0932830  39.4219560
  15.2227600  30.9164000  39.8943370  15.9645740  29.8823560  39.0743710
   2.5697710  32.1864040  39.0936690   3.3060190  31.6379500  39.3645260
   2.9538630  33.0520050  38.9542680   5.6800020  31.3594350  30.9162260
   6.4728630  31.6483180  30.4644050   5.1604370  30.9286520  30.2374740
  10.4120620  27.4789980  48.2297680   9.8058780  27.5021580  47.4893430
  10.1074730  26.7473020  48.7664930  11.8420990  31.2070270  46.8407090
  12.7942740  31.1228290  46.7907330  11.6949210  31.8711980  47.5140880
  14.7330190  30.5864480  32.3399000  14.4471700  30.1729620  31.5253180
  14.5349740  31.5152190  32.2199520   6.1977420  26.5797760  30.7804610
   6.0928060  25.9650110  31.5065990   6.0301640  26.0563650  29.9967620
   6.3491740  25.2654560  46.7593840   5.5837410  25.8339560  46.6748510
   6.5307700  24.9730770  45.8662070   9.4380150  25.6417790  31.3846600
   8.8890250  26.0887090  32.0289340  10.0599410  25.1367040  31.9084270
  13.4915090  26.9959890  47.3168860  14.2324560  27.3335650  46.8136320
  12.7287770  27.1651950  46.7638630   5.1055270  24.6008710  33.2811900
   5.5271690  24.4348580  34.1243290   5.2306110  23.7908940  32.7867040
   3.2682690  20.5805260  46.0882880   2.7379150  20.0896210  45.4606220
   3.9370760  21.0089460  45.5540810   7.6182910  23.6246320  30.5289000
   8.1388570  22.9095340  30.1630150   8.2651310  24.2632190  30.8289510
  12.1660750  25.0474720  45.8524070  12.5801770  25.2019800  46.7014490
  11.2311750  25.1729940  46.0149850  12.6382920  22.3870880  47.8563220
  13.2203690  21.6323200  47.7683700  12.8144690  22.9178320  47.0794700
   3.7554990  17.5467630  46.1680170   3.6611860  16.9288380  45.4431040
   3.1752380  18.2733920  45.9410080   6.5216430  16.1040870  43.2007560
   6.0733730  16.1265130  42.3553110   5.8881630  15.7059890  43.7977860
   6.9275980  24.9995200  43.8220000   7.3464090  25.8427930  43.6496240
   6.0084610  25.1367240  43.5926780   9.2639880  22.7311380  45.2057840
   9.3836090  22.1352520  45.9452680  10.1233880  22.7681070  44.7859140
  11.6027780  23.2848570  43.7820350  11.0763000  23.8091190  43.1785490
  11.9459120  23.9175960  44.4130080   4.0014170  20.6741940  30.2270060
   3.8003230  19.8109300  30.5883400   3.8306220  20.5875300  29.2891660
   4.7783400  31.3048210  44.9377730   4.2404490  32.0294270  44.6186430
   5.0317360  30.8278550  44.1475070   6.0308650  19.2732730  46.4633660
   6.6208340  18.9648580  47.1511480   5.2128890  18.8012480  46.6193560
  10.8502080  18.8898540  46.6966680  10.1617600  18.2280080  46.6316670
  11.5708100  18.4436810  47.1415140  11.4802480  15.4850170  32.7556940
  11.7604770  14.6418070  33.1116360  10.7068210  15.7173280  33.2695690
   2.7996970  17.7742560  30.2147940   3.1022870  17.7809990  29.3067090
   3.5391560  17.4240420  30.7115600   7.6345610  32.5399420  45.1964380
   7.5604310  33.4434560  45.5036750   6.7324450  32.2211320  45.1686450
   6.0181900  16.7177180  31.2004140   5.6703900  16.0401170  30.6206590
   6.2194670  16.2566690  32.0147530   8.1830940  31.7057930  32.8190740
   9.0781730  32.0442900  32.8409500   8.2148570  30.9837340  32.1915020
   1.8227100  27.0784980  31.0477740   2.2601970  27.6214650  31.7035320
   2.3074830  26.2531930  31.0574080   3.6334820  28.1983020  36.1599970
   3.3330360  28.0747990  37.0603880   3.5272310  27.3391610  35.7515700
  15.1625290  30.2361600  45.5256940  14.5627280  30.2954160  44.7820860
  15.2919190  29.2966580  45.6553790  16.4026740  27.9779420  30.8626650
  15.5719700  28.0456070  31.3333880  16.5798570  28.8683540  30.5593510
  15.8583200  24.7226900  33.3660850  16.6202110  25.2923550  33.4720540
  15.8737570  24.1554100  34.1369160  16.8643170  25.5777000  38.2102780
  17.2352000  24.7944320  37.8038750  17.5045100  26.2666100  38.0320080
  13.8476930  26.9613580  43.6233100  13.0336770  27.3910740  43.8858890
  14.2551130  27.5731990  43.0102150  15.9102370  25.0161270  30.5233370
  16.1851210  25.9240150  30.3952590  15.7213110  24.9523800  31.4595360
  12.3077980  18.0406120  31.8187000  12.7262860  17.8537100  30.9783660
  12.0014040  17.1885170  32.1289930  15.1967330  22.1001780  45.1502320
  14.9653420  21.8714530  44.2500270  15.4571880  23.0201330  45.1047210
  13.6355400  17.3258210  47.9282020  14.5125580  17.3341610  48.3116020
  13.6476240  16.5889050  47.3174370  14.3471520  15.0116180  43.7483130
  14.9843740  15.6250320  44.1142320  14.4946410  15.0476840  42.8032360
  16.8896070  16.9029970  30.5306270  17.8145380  16.7711150  30.3224560
  16.8671860  16.9822790  31.4842720  16.9634560  17.6740630  33.1562980
  16.1686060  17.6085750  33.6855890  17.1677840  18.6091270  33.1448330
  13.9052980  31.7132180  37.1501370  14.5012050  31.3916750  36.4735790
  14.1631130  31.2404000  37.9414640   1.8115550  28.1450090  47.2992000
   1.7685180  27.7743000  48.1806460   1.9426560  29.0827660  47.4393820
   5.5121580  29.7009680  42.9001720   5.2712940  29.9684240  42.0132240
   6.4524220  29.8715410  42.9552580   7.7176000  16.1642370  46.6558230
   7.6564890  16.7564200  47.4053640   8.6576380  16.0568330  46.5108490
  10.3550560  15.8212430  46.2950520  10.9690970  16.1391720  45.6331600
  10.9000120  15.3361020  46.9146380  11.0958600  14.3844570  42.6219810
  10.2218440  14.7179680  42.4192740  10.9869350  13.9117750  43.4471680
  12.0030580  16.5915440  44.0061530  11.6743940  15.7767200  43.6263260
  12.9512880  16.5485250  43.8827220  14.4565190  32.3627480  40.9799100
  13.9968160  33.1143290  40.6057120  13.8277650  31.6433950  40.9213900
   4.8860910  30.6715720  40.1547230   5.4025930  30.0603080  39.6295490
   5.5358290  31.1744500  40.6458240   7.6256410  31.5624210  40.9816210
   7.9134220  31.3078510  40.1049220   8.1379630  31.0101570  41.5721780
   8.8433420  15.3014410  41.5612720   8.0605210  15.7759910  41.8409480
   8.5496350  14.3969240  41.4525900  13.3954490  16.0037510  39.6061810
  13.8362580  15.9482610  38.7583410  13.1262080  16.9195520  39.6771990
  15.2593060  15.6352750  37.6170630  15.1981460  14.6913970  37.4701650
  16.0385090  15.7432840  38.1624090   6.7287640  17.7201160  37.0728750
   5.9162150  17.3458050  36.7324630   7.2329280  16.9646240  37.3749940
  11.2312620  14.3843610  38.3111820  11.8341990  14.9563820  38.7860340
  10.4905610  14.9483050  38.0885720  14.3747220  14.7865170  33.5852100
  14.5697850  15.6848620  33.8519530  13.5877090  14.5552250  34.0785050
   2.5598980  16.1325940  32.6228410   3.0891740  15.3455740  32.4936360
   3.1927300  16.8117130  32.8563940   4.7536820  15.8701080  35.6773800
   4.1239560  15.1688390  35.8443930   4.2141960  16.6305210  35.4606960
   7.6928770  32.4840310  48.3484410   8.6196080  32.2484580  48.3920370
   7.6779200  33.3112310  47.8670440   4.8792380  15.1485060  48.1126290
   4.5976650  15.6518660  47.3487110   5.2612080  14.3506810  47.7468420
   3.7701480  32.4160720  32.8993970   4.5020300  32.1320000  32.3517860
   4.0295150  32.1774000  33.7893350   2.9316270  28.5325450  32.9040300
   2.3025150  29.0010550  33.4526130   3.0464100  27.6874670  33.3386490
  11.4807840  14.5638640  48.6906760  11.3673290  14.8833250  49.5858280
  12.2977580  14.9651150  48.3944040  14.2606330  31.7110170  48.1725450
  15.0531650  31.2159400  47.9651410  14.5539480  32.3900310  48.7801060
  10.3865990  22.5831110  19.0541500  10.3060040  21.6685720  18.7833210
   9.9730410  23.0798180  18.3481210   8.5184030  24.3610130  20.9350770
   7.7426130  23.8810570  21.2249340   9.1696960  23.6815780  20.7606930
   2.5349860  24.6729940  21.8126530   1.7034740  24.4178650  22.2123040
   3.1430840  24.7440710  22.5484450  12.5391460  28.7670320  19.7149900
  12.0772990  27.9957560  20.0437070  13.3517010  28.7936390  20.2202350
   2.5151120  28.7070030  22.0084550   2.8179160  27.8167770  21.8294770
   3.2594710  29.2640250  21.7806800   8.7654770  31.0528330  19.3353890
   8.1466210  31.5085830  18.7648330   9.6206550  31.2079790  18.9343590
   7.9593020  27.0367320  20.9420930   7.8901300  26.0957260  20.7810060
   8.7212880  27.1268730  21.5143500   8.9898190  19.8437700  21.1689860
   9.3663010  18.9709580  21.0563530   8.8917700  20.1796400  20.2780300
   3.1203200  18.2163330  16.6307300   3.2269950  19.1167060  16.9376060
   2.2095560  18.1681300  16.3401950  12.7722310  17.3388140  18.1018200
  13.5931930  16.8484710  18.1443680  12.8056390  17.9285800  18.8550040
   4.9610930  21.1849700  20.9632480   5.4689150  21.6830670  21.6037500
   5.4924170  20.4084900  20.7871840  17.0621860  19.3554890  24.6661830
  16.3574030  19.7436600  24.1476940  17.3279780  20.0505180  25.2682760
   3.2447030  15.8248260  25.2295900   3.2465470  16.3420650  24.4241800
   2.4151340  15.3478440  25.2065830   9.6318120  25.9367570  16.7285800
   9.0135390  26.4017020  16.1648520  10.1441370  26.6295050  17.1455310
   4.4949880  25.4643440  23.4069400   4.1619260  26.0912360  24.0490470
   4.6716560  25.9905320  22.6271070  13.0083790  19.2788520  20.8745740
  12.3039360  19.5673410  21.4548850  13.3695950  20.0888630  20.5145300
   2.9262360  17.5358220  23.2366350   3.2679170  18.3800270  22.9420220
   1.9878170  17.6841960  23.3531690   3.7068980  27.4324240  25.2218580
   4.3242980  28.1075320  24.9403030   2.8462100  27.8412220  25.1306080
  14.6246570  28.8963650  23.1373220  13.9410090  29.5662760  23.1289890
  15.1640860  29.0944300  22.3718080  16.0770710  18.7243310  21.2654950
  15.1295620  18.7582290  21.3970380  16.4020700  19.5382260  21.6504310
   6.6090250  15.0240490  19.5610940   6.9165230  14.4687380  18.8446440
   5.6790950  15.1584950  19.3783930  12.1605310  30.7407780  21.8518400
  12.1732470  30.3370070  20.9840660  11.6080530  31.5155070  21.7479830
  13.4550730  27.4624000  16.9408570  13.3447060  26.5198330  17.0657990
  13.4518980  27.8239640  17.8271330  11.5590750  25.6437620  23.1801010
  11.9759540  25.4297730  22.3454470  12.2830570  25.9010410  23.7509630
   8.9971010  23.0889320  16.2971060   8.0700290  23.0226700  16.5259530
   9.1495830  24.0269450  16.1826300   8.9840090  19.3606320  13.2938220
   8.0443760  19.5220280  13.3790680   9.3023350  20.0792000  12.7474210
  15.5052850  24.0424840  23.2717250  14.6771480  24.1117930  22.7967380
  16.1003330  24.6279150  22.8033080  13.0268300  24.6509620  16.8006310
  12.4080720  24.3129170  16.1532610  13.0092750  24.0069380  17.5085500
  12.4694860  20.8294160  24.2172120  12.0566040  21.6547870  24.4712110
  11.7370810  20.2439200  24.0248480   4.6027650  23.6154060  19.0790790
   4.1984650  22.9031310  18.5836690   4.6890770  23.2707300  19.9678830
   5.0709350  27.3021620  21.2430000   4.7737640  26.6967090  20.5637780
   6.0209170  27.3398930  21.1319360   3.3156270  20.3897270  22.8589830
   3.8670860  20.4992610  22.0843080   3.8299780  20.7634870  23.5745060
  13.1594960  30.8753490  24.9053100  12.6825520  31.6825680  24.7125710
  12.4756750  30.2231820  25.0579310   4.1627780  27.0403310  27.8937800
   3.2656310  27.2643280  28.1411200   4.1880650  27.1638250  26.9449200
  11.2033000  23.8896430  13.8079060  11.6426280  23.0518860  13.6616880
  11.9161420  24.5225830  13.8943200   2.9899000  23.9116630  26.4695170
   2.8506770  24.7839430  26.8382570   2.1080360  23.5689440  26.3243110
   9.3128380  28.8292500  17.7760300   9.7524290  29.5716830  17.3615690
   9.2515270  29.0719070  18.6999260   4.7879350  29.8538330  28.6780320
   4.7594780  30.2581280  27.8108750   4.6244320  28.9248690  28.5151920
  14.7850140  15.1439240  12.1220100  14.4722800  15.2366070  13.0219170
  15.5462610  15.7220270  12.0717530  16.1427420  27.8278280  27.1344500
  16.2690480  27.5890160  26.2161680  16.1848800  26.9962820  27.6066580
  10.0044160  31.5306280  25.7039310  10.5188830  31.4414290  26.5061740
   9.1613240  31.8765980  25.9967220  11.9798560  31.8161620  15.1323310
  11.8199700  31.5264560  16.0305140  11.8145270  31.0401750  14.5968540
   4.4586940  31.5960150  16.9094930   4.2829420  30.6795690  16.6962730
   3.6042680  31.9547440  17.1492730  11.6824690  29.3249180  13.6921310
  10.9889850  29.3226470  13.0323590  12.4247550  28.9008500  13.2615480
  11.2474620  30.9511890  17.7669800  11.7031570  30.1701270  18.0808420
  11.5867140  31.6618710  18.3110980  15.9951430  19.8810740  28.0994240
  15.3795700  20.3890410  27.5709700  15.6747850  18.9809070  28.0420180
   3.7695940  15.8534110  19.9621110   3.3264090  16.6343650  19.6305630
   4.3280930  16.1764000  20.6692050   8.0565750  18.7202630  25.5656430
   7.5945120  18.9285650  26.3776370   7.6543860  17.9061980  25.2627100
  13.0570260  19.9411580  26.6953090  12.2063850  19.6417330  27.0162160
  12.8972050  20.1853590  25.7836910  10.1519970  21.4413330  28.7951880
  10.4773380  20.6077080  28.4554110  10.9400300  21.9641850  28.9430210
   6.8854760  15.4744810  14.8426940   6.2608940  15.4704680  15.5680250
   6.7984880  14.6075770  14.4462910   5.8071840  16.3981440  21.8210710
   6.1044170  17.3044270  21.7402730   6.3557400  15.9100220  21.2070280
   3.5610160  20.9767680  17.6902360   3.3351080  20.7604850  18.5948980
   2.7802690  21.4096140  17.3448330  10.7907920  20.9831050  16.2893010
  10.1916810  21.7066850  16.1056630  11.3387530  20.9207830  15.5069460
   6.0009370  21.8753260  28.3562630   5.9052970  20.9347990  28.2063030
   6.8441350  22.0968330  27.9610700   9.3972790  19.6194590  18.3196290
   9.7902360  19.9366790  17.5064980   9.7589640  18.7406470  18.4340810
   7.7064960  18.3701900  29.5793150   7.0163280  18.1774100  30.2139240
   8.4497260  18.6536540  30.1117450   9.9827930  22.2100340  22.4147070
   9.2509050  22.7187150  22.7637170   9.5852270  21.3930320  22.1135850
   6.4205320  18.8854540  20.8199560   6.4241380  18.4444490  19.9704100
   7.3156440  19.2071870  20.9271380   2.2707700  18.7681030  19.7793770
   1.9307750  19.2456260  20.5360820   1.5085020  18.3146150  19.4194870
   6.4825470  19.8866620  13.8106320   6.6038290  19.8453100  14.7592140
   6.0973980  20.7490770  13.6553050  10.4453840  17.6634020  21.8270010
  10.4626580  18.1142670  22.6711860  10.1969420  16.7639660  22.0403450
   5.4946970  22.1967760  13.2089620   4.9263870  21.7486010  12.5825530
   6.2035970  22.5560540  12.6754770  13.8724590  15.0766200  27.6656390
  14.1970360  14.3455860  28.1914370  13.9081100  14.7579840  26.7637380
   6.7213290  22.9456320  22.5664970   7.0883420  22.4714890  23.3126310
   6.5318350  23.8197890  22.9073310   4.5112660  21.9864960  24.8849180
   4.2069730  22.8656940  25.1099540   5.4659120  22.0464750  24.9206620
   3.0394450  26.1925950  15.4816030   2.2656710  25.6523570  15.3214750
   3.7689080  25.6732560  15.1433790  13.7982430  25.1891310  21.2742420
  14.5181550  25.6846600  20.8838530  13.5964250  24.5109200  20.6296290
   9.2592370  16.5829270  15.4171810   8.4456980  16.0842440  15.3417120
   9.0654320  17.4227520  15.0008160   9.1801230  25.2600370  27.1611420
   9.1138540  24.3396040  26.9069010   8.5506370  25.3575810  27.8756060
  11.9740760  20.9548920  13.7133970  12.8620380  21.2666150  13.5385310
  11.9445850  20.0821170  13.3214550   3.0831850  25.8606330  19.1194840
   3.6010520  25.0574590  19.0651730   2.6315870  25.7985470  19.9611670
   7.9701350  27.1272610  14.3922140   8.3117050  27.8714840  13.8965460
   7.1414060  27.4403730  14.7546970   3.7689510  23.2851940  28.9160090
   3.4689650  23.4309120  28.0187910   4.5400750  22.7257230  28.8233480
   9.1117960  28.0820940  26.9115220   9.1262500  27.1501900  26.6934130
   8.4043060  28.1680700  27.5504990  14.2455030  22.2660760  13.1813830
  14.1618750  22.6974980  12.3310270  14.9649220  22.7259110  13.6140650
  15.3229170  24.7228280  26.2583800  14.5977360  25.3157060  26.0613190
  15.8504630  24.7151820  25.4597170  15.2742280  29.1203020  15.9095960
  14.6318440  28.4658640  16.1839680  14.8872940  29.5258110  15.1336630
  10.8528760  26.4488450  19.7567650  11.2052580  25.8516580  19.0969020
   9.9691090  26.1232680  19.9275900   6.9392040  27.2086140  17.1638060
   7.6263170  27.7555350  17.5445650   6.1524460  27.7526870  17.1987670
   6.2419250  24.2132170  16.7763420   6.6982030  25.0237420  17.0023610
   5.8907460  23.8955310  17.6081910   8.5451860  29.7238510  24.0055720
   9.1894080  29.9297890  24.6829140   8.9081300  28.9626910  23.5526570
   9.8183940  27.7270860  22.7233170  10.4606170  27.0264020  22.8365340
  10.3433290  28.5069300  22.5430060  13.6639660  28.0119480  12.4472310
  13.4377240  27.2949920  13.0396950  13.2735860  27.7631920  11.6094060
  11.5921560  28.5265760  25.9269230  11.9277800  29.1132450  26.6047150
  10.6721900  28.3958470  26.1567020  13.2455910  25.9291420  14.1086470
  12.9577610  26.3904110  14.8964350  14.0408080  25.4689190  14.3770690
   7.4210140  28.5757090  29.0957290   7.1007010  27.8566330  29.6402980
   6.7468500  29.2512160  29.1693350   5.4624310  29.4217540  14.0390440
   5.4534410  30.1547230  13.4234950   4.5422670  29.1749120  14.1317400
  10.6363740  18.8083250  24.4594090  11.0044560  17.9878460  24.7873660
   9.7761940  18.8685140  24.8749740  14.0025770  17.7640190  15.2681650
  13.3738930  17.8685860  14.5539880  13.5077690  17.9836970  16.0575530
   8.4483910  29.4845780  12.7015630   8.5495890  29.2809770  11.7717610
   7.5485650  29.2304060  12.9063410   5.9709800  20.0426140  16.6839530
   5.2625950  20.5112480  17.1253140   6.2554280  19.3848150  17.3184720
   7.5965730  21.4622840  24.6832060   8.0950980  21.9368660  25.3483910
   7.7388680  20.5386360  24.8902090  10.0025230  16.7676800  18.1235320
   9.8793010  16.7862930  17.1744830  10.9509790  16.8155740  18.2433720
   7.0902020  32.0032100  17.3963300   7.3443520  31.9653490  16.4742670
   6.1414500  31.8765430  17.3891550   4.1744820  18.3511220  14.0590240
   5.0235350  18.7881370  13.9930430   3.8076090  18.6631480  14.8862300
  14.8032590  17.6790800  25.5260450  14.3006190  18.4196200  25.8654260
  15.6189250  18.0674800  25.2097240  13.0954600  22.9223980  18.9721810
  12.1544740  22.9374210  19.1469500  13.4098670  22.1359940  19.4182110
   3.0736240  24.6043580  12.5325770   3.8399510  24.4924940  13.0951200
   3.1510930  23.9081550  11.8802540   1.7683000  22.0368650  13.2158660
   1.8486590  21.0896160  13.3276060   2.6602750  22.3675530  13.3219320
  15.0980180  30.0932830  20.6476070  15.2227600  30.9164000  21.1199880
  15.9645740  29.8823560  20.3000220   2.5697710  32.1864040  20.3193200
   3.3060190  31.6379500  20.5901770   2.9538630  33.0520050  20.1799190
   5.6800020  31.3594350  12.1418770   6.4728630  31.6483180  11.6900560
   5.1604370  30.9286520  11.4631250  10.4120620  27.4789980  29.4554190
   9.8058780  27.5021580  28.7149940  10.1074730  26.7473020  29.9921440
  11.8420990  31.2070270  28.0663600  12.7942740  31.1228290  28.0163840
  11.6949210  31.8711980  28.7397390  14.7330190  30.5864480  13.5655510
  14.4471700  30.1729620  12.7509690  14.5349740  31.5152190  13.4456030
   6.1977420  26.5797760  12.0061120   6.0928060  25.9650110  12.7322500
   6.0301640  26.0563650  11.2224130   6.3491740  25.2654560  27.9850350
   5.5837410  25.8339560  27.9005020   6.5307700  24.9730770  27.0918580
   9.4380150  25.6417790  12.6103110   8.8890250  26.0887090  13.2545850
  10.0599410  25.1367040  13.1340780  13.4915090  26.9959890  28.5425370
  14.2324560  27.3335650  28.0392830  12.7287770  27.1651950  27.9895140
   5.1055270  24.6008710  14.5068410   5.5271690  24.4348580  15.3499800
   5.2306110  23.7908940  14.0123550   3.2682690  20.5805260  27.3139390
   2.7379150  20.0896210  26.6862730   3.9370760  21.0089460  26.7797320
   7.6182910  23.6246320  11.7545510   8.1388570  22.9095340  11.3886660
   8.2651310  24.2632190  12.0546020  12.1660750  25.0474720  27.0780580
  12.5801770  25.2019800  27.9271000  11.2311750  25.1729940  27.2406360
  12.6382920  22.3870880  29.0819730  13.2203690  21.6323200  28.9940210
  12.8144690  22.9178320  28.3051210   3.7554990  17.5467630  27.3936680
   3.6611860  16.9288380  26.6687550   3.1752380  18.2733920  27.1666590
   6.5216430  16.1040870  24.4264070   6.0733730  16.1265130  23.5809620
   5.8881630  15.7059890  25.0234370   6.9275980  24.9995200  25.0476510
   7.3464090  25.8427930  24.8752750   6.0084610  25.1367240  24.8183290
   9.2639880  22.7311380  26.4314350   9.3836090  22.1352520  27.1709190
  10.1233880  22.7681070  26.0115650  11.6027780  23.2848570  25.0076860
  11.0763000  23.8091190  24.4042000  11.9459120  23.9175960  25.6386590
   4.0014170  20.6741940  11.4526570   3.8003230  19.8109300  11.8139910
   3.8306220  20.5875300  10.5148170   4.7783400  31.3048210  26.1634240
   4.2404490  32.0294270  25.8442940   5.0317360  30.8278550  25.3731580
   6.0308650  19.2732730  27.6890170   6.6208340  18.9648580  28.3767990
   5.2128890  18.8012480  27.8450070  10.8502080  18.8898540  27.9223190
  10.1617600  18.2280080  27.8573180  11.5708100  18.4436810  28.3671650
  11.4802480  15.4850170  13.9813450  11.7604770  14.6418070  14.3372870
  10.7068210  15.7173280  14.4952200   2.7996970  17.7742560  11.4404450
   3.1022870  17.7809990  10.5323600   3.5391560  17.4240420  11.9372110
   7.6345610  32.5399420  26.4220890   7.5604310  33.4434560  26.7293260
   6.7324450  32.2211320  26.3942960   6.0181900  16.7177180  12.4260650
   5.6703900  16.0401170  11.8463100   6.2194670  16.2566690  13.2404040
   8.1830940  31.7057930  14.0447250   9.0781730  32.0442900  14.0666010
   8.2148570  30.9837340  13.4171530   1.8227100  27.0784980  12.2734250
   2.2601970  27.6214650  12.9291830   2.3074830  26.2531930  12.2830590
   3.6334820  28.1983020  17.3856480   3.3330360  28.0747990  18.2860390
   3.5272310  27.3391610  16.9772210  15.1625290  30.2361600  26.7513450
  14.5627280  30.2954160  26.0077370  15.2919190  29.2966580  26.8810300
  16.4026740  27.9779420  12.0883160  15.5719700  28.0456070  12.5590390
  16.5798570  28.8683540  11.7850020  15.8583200  24.7226900  14.5917360
  16.6202110  25.2923550  14.6977050  15.8737570  24.1554100  15.3625670
  16.8643170  25.5777000  19.4359290  17.2352000  24.7944320  19.0295260
  17.5045100  26.2666100  19.2576590  13.8476930  26.9613580  24.8489610
  13.0336770  27.3910740  25.1115400  14.2551130  27.5731990  24.2358660
  15.9102370  25.0161270  11.7489880  16.1851210  25.9240150  11.6209100
  15.7213110  24.9523800  12.6851870  12.3077980  18.0406120  13.0443510
  12.7262860  17.8537100  12.2040170  12.0014040  17.1885170  13.3546440
  15.8067710  22.9530260  16.7419310  15.4311310  22.1858190  16.3100600
  15.0770830  23.3352960  17.2294240  15.1967330  22.1001780  26.3758830
  14.9653420  21.8714530  25.4756780  15.4571880  23.0201330  26.3303720
  13.6355400  17.3258210  29.1538530  14.5125580  17.3341610  29.5372530
  13.6476240  16.5889050  28.5430880  15.0818670  21.1787750  20.0426550
  15.6056150  20.6850400  19.4116720  15.6678090  21.3138110  20.7874120
  15.2608390  21.2627620  23.5646100  14.3111100  21.2291160  23.6791090
  15.4421400  22.1727730  23.3295870  14.5718640  20.4361100  15.9818960
  15.0677760  20.2031970  16.7667840  14.3734710  19.5972940  15.5656600
  16.0005800  19.0722050  18.5156640  15.8905080  18.9178090  19.4538910
  16.7613390  18.5442990  18.2732050  14.3471520  15.0116180  24.9739640
  14.9843740  15.6250320  25.3398830  14.4946410  15.0476840  24.0288870
  16.8896070  16.9029970  11.7562780  17.8145380  16.7711150  11.5481070
  16.8671860  16.9822790  12.7099230  16.9634560  17.6740630  14.3819490
  16.1686060  17.6085750  14.9112400  17.1677840  18.6091270  14.3704840
  13.9052980  31.7132180  18.3757880  14.5012050  31.3916750  17.6992300
  14.1631130  31.2404000  19.1671150   1.8115550  28.1450090  28.5248510
   1.7685180  27.7743000  29.4062970   1.9426560  29.0827660  28.6650330
   5.5121580  29.7009680  24.1258230   5.2712940  29.9684240  23.2388750
   6.4524220  29.8715410  24.1809090   7.7176000  16.1642370  27.8814740
   7.6564890  16.7564200  28.6310150   8.6576380  16.0568330  27.7365000
  10.3550560  15.8212430  27.5207030  10.9690970  16.1391720  26.8588110
  10.9000120  15.3361020  28.1402890  16.7725740  31.7204060  24.9268870
  16.2784020  32.1172930  24.2096000  16.1639030  31.0953270  25.3206150
  11.0958600  14.3844570  23.8476320  10.2218440  14.7179680  23.6449250
  10.9869350  13.9117750  24.6728190  12.0030580  16.5915440  25.2318040
  11.6743940  15.7767200  24.8519770  12.9512880  16.5485250  25.1083730
  14.4565190  32.3627480  22.2055610  13.9968160  33.1143290  21.8313630
  13.8277650  31.6433950  22.1470410   4.8860910  30.6715720  21.3803740
   5.4025930  30.0603080  20.8552000   5.5358290  31.1744500  21.8714750
   7.6256410  31.5624210  22.2072720   7.9134220  31.3078510  21.3305730
   8.1379630  31.0101570  22.7978290   8.8433420  15.3014410  22.7869230
   8.0605210  15.7759910  23.0665990   8.5496350  14.3969240  22.6782410
  13.3954490  16.0037510  20.8318320  13.8362580  15.9482610  19.9839920
  13.1262080  16.9195520  20.9028500  15.2593060  15.6352750  18.8427140
  15.1981460  14.6913970  18.6958160  16.0385090  15.7432840  19.3880600
   6.7287640  17.7201160  18.2985260   5.9162150  17.3458050  17.9581140
   7.2329280  16.9646240  18.6006450  11.2312620  14.3843610  19.5368330
  11.8341990  14.9563820  20.0116850  10.4905610  14.9483050  19.3142230
  14.3747220  14.7865170  14.8108610  14.5697850  15.6848620  15.0776040
  13.5877090  14.5552250  15.3041560   2.5598980  16.1325940  13.8484920
   3.0891740  15.3455740  13.7192870   3.1927300  16.8117130  14.0820450
   4.7536820  15.8701080  16.9030310   4.1239560  15.1688390  17.0700440
   4.2141960  16.6305210  16.6863470   7.6928770  32.4840310  29.5740920
   8.6196080  32.2484580  29.6176880   7.6779200  33.3112310  29.0926950
  15.9273830  32.0265880  16.5715170  16.1026020  31.3403620  15.9276090
  15.2295400  32.5512930  16.1791840   4.8792380  15.1485060  29.3382800
   4.5976650  15.6518660  28.5743620   5.2612080  14.3506810  28.9724930
   3.7701480  32.4160720  14.1250480   4.5020300  32.1320000  13.5774370
   4.0295150  32.1774000  15.0149860   2.9316270  28.5325450  14.1296810
   2.3025150  29.0010550  14.6782640   3.0464100  27.6874670  14.5643000
  11.4807840  14.5638640  29.9163270  11.3673290  14.8833250  30.8114790
  12.2977580  14.9651150  29.6200550  14.2606330  31.7110170  29.3981960
  15.0531650  31.2159400  29.1907920  14.5539480  32.3900310  30.0057570
   8.5184030  24.3610130   2.1607280   7.7426130  23.8810570   2.4505850
   9.1696960  23.6815780   1.9863440   2.5349860  24.6729940   3.0383040
   1.7034740  24.4178650   3.4379550   3.1430840  24.7440710   3.7740960
   2.5151120  28.7070030   3.2341060   2.8179160  27.8167770   3.0551280
   3.2594710  29.2640250   3.0063310   7.9593020  27.0367320   2.1677440
   7.8901300  26.0957260   2.0066570   8.7212880  27.1268730   2.7400010
   4.9610930  21.1849700   2.1888990   5.4689150  21.6830670   2.8294010
   5.4924170  20.4084900   2.0128350  17.0621860  19.3554890   5.8918340
  16.3574030  19.7436600   5.3733450  17.3279780  20.0505180   6.4939270
   3.2447030  15.8248260   6.4552410   3.2465470  16.3420650   5.6498310
   2.4151340  15.3478440   6.4322340   4.4949880  25.4643440   4.6325910
   4.1619260  26.0912360   5.2746980   4.6716560  25.9905320   3.8527580
  13.0083790  19.2788520   2.1002250  12.3039360  19.5673410   2.6805360
  13.3695950  20.0888630   1.7401810   2.9262360  17.5358220   4.4622860
   3.2679170  18.3800270   4.1676730   1.9878170  17.6841960   4.5788200
   3.7068980  27.4324240   6.4475090   4.3242980  28.1075320   6.1659540
   2.8462100  27.8412220   6.3562590  14.6246570  28.8963650   4.3629730
  13.9410090  29.5662760   4.3546400  15.1640860  29.0944300   3.5974590
  16.0770710  18.7243310   2.4911460  15.1295620  18.7582290   2.6226890
  16.4020700  19.5382260   2.8760820  12.1605310  30.7407780   3.0774910
  12.1732470  30.3370070   2.2097170  11.6080530  31.5155070   2.9736340
  11.5590750  25.6437620   4.4057520  11.9759540  25.4297730   3.5710980
  12.2830570  25.9010410   4.9766140  15.5052850  24.0424840   4.4973760
  14.6771480  24.1117930   4.0223890  16.1003330  24.6279150   4.0289590
  12.4694860  20.8294160   5.4428630  12.0566040  21.6547870   5.6968620
  11.7370810  20.2439200   5.2504990   5.0709350  27.3021620   2.4686510
   4.7737640  26.6967090   1.7894290   6.0209170  27.3398930   2.3575870
   3.3156270  20.3897270   4.0846340   3.8670860  20.4992610   3.3099590
   3.8299780  20.7634870   4.8001570  13.1594960  30.8753490   6.1309610
  12.6825520  31.6825680   5.9382220  12.4756750  30.2231820   6.2835820
   4.1627780  27.0403310   9.1194310   3.2656310  27.2643280   9.3667710
   4.1880650  27.1638250   8.1705710   2.9899000  23.9116630   7.6951680
   2.8506770  24.7839430   8.0639080   2.1080360  23.5689440   7.5499620
   4.7879350  29.8538330   9.9036830   4.7594780  30.2581280   9.0365260
   4.6244320  28.9248690   9.7408430  16.7394170  30.6365430  11.2001000
  17.2153890  31.1148320  11.8790080  17.3601330  30.5682920  10.4746500
  16.1427420  27.8278280   8.3601010  16.2690480  27.5890160   7.4418190
  16.1848800  26.9962820   8.8323090  10.0044160  31.5306280   6.9295820
  10.5188830  31.4414290   7.7318250   9.1613240  31.8765980   7.2223730
  15.9951430  19.8810740   9.3250750  15.3795700  20.3890410   8.7966210
  15.6747850  18.9809070   9.2676690   8.0565750  18.7202630   6.7912940
   7.5945120  18.9285650   7.6032880   7.6543860  17.9061980   6.4883610
  13.0570260  19.9411580   7.9209600  12.2063850  19.6417330   8.2418670
  12.8972050  20.1853590   7.0093420  10.1519970  21.4413330  10.0208390
  10.4773380  20.6077080   9.6810620  10.9400300  21.9641850  10.1686720
   5.8071840  16.3981440   3.0467220   6.1044170  17.3044270   2.9659240
   6.3557400  15.9100220   2.4326790   6.0009370  21.8753260   9.5819140
   5.9052970  20.9347990   9.4319540   6.8441350  22.0968330   9.1867210
   7.7064960  18.3701900  10.8049660   7.0163280  18.1774100  11.4395750
   8.4497260  18.6536540  11.3373960   9.9827930  22.2100340   3.6403580
   9.2509050  22.7187150   3.9893680   9.5852270  21.3930320   3.3392360
  10.4453840  17.6634020   3.0526520  10.4626580  18.1142670   3.8968370
  10.1969420  16.7639660   3.2659960  13.8724590  15.0766200   8.8912900
  14.1970360  14.3455860   9.4170880  13.9081100  14.7579840   7.9893890
   6.7213290  22.9456320   3.7921480   7.0883420  22.4714890   4.5382820
   6.5318350  23.8197890   4.1329820   4.5112660  21.9864960   6.1105690
   4.2069730  22.8656940   6.3356050   5.4659120  22.0464750   6.1463130
  13.7982430  25.1891310   2.4998930  14.5181550  25.6846600   2.1095040
  13.5964250  24.5109200   1.8552800   9.1801230  25.2600370   8.3867930
   9.1138540  24.3396040   8.1325520   8.5506370  25.3575810   9.1012570
   3.7689510  23.2851940  10.1416600   3.4689650  23.4309120   9.2444420
   4.5400750  22.7257230  10.0489990   9.1117960  28.0820940   8.1371730
   9.1262500  27.1501900   7.9190640   8.4043060  28.1680700   8.7761500
  15.3229170  24.7228280   7.4840310  14.5977360  25.3157060   7.2869700
  15.8504630  24.7151820   6.6853680   8.5451860  29.7238510   5.2312230
   9.1894080  29.9297890   5.9085650   8.9081300  28.9626910   4.7783080
   9.8183940  27.7270860   3.9489680  10.4606170  27.0264020   4.0621850
  10.3433290  28.5069300   3.7686570  11.5921560  28.5265760   7.1525740
  11.9277800  29.1132450   7.8303660  10.6721900  28.3958470   7.3823530
   7.4210140  28.5757090  10.3213800   7.1007010  27.8566330  10.8659490
   6.7468500  29.2512160  10.3949860  10.6363740  18.8083250   5.6850600
  11.0044560  17.9878460   6.0130170   9.7761940  18.8685140   6.1006250
   7.5965730  21.4622840   5.9088570   8.0950980  21.9368660   6.5740420
   7.7388680  20.5386360   6.1158600  14.8032590  17.6790800   6.7516960
  14.3006190  18.4196200   7.0910770  15.6189250  18.0674800   6.4353750
  10.4120620  27.4789980  10.6810700   9.8058780  27.5021580   9.9406450
  10.1074730  26.7473020  11.2177950  11.8420990  31.2070270   9.2920110
  12.7942740  31.1228290   9.2420350  11.6949210  31.8711980   9.9653900
   6.3491740  25.2654560   9.2106860   5.5837410  25.8339560   9.1261530
   6.5307700  24.9730770   8.3175090  13.4915090  26.9959890   9.7681880
  14.2324560  27.3335650   9.2649340  12.7287770  27.1651950   9.2151650
   3.2682690  20.5805260   8.5395900   2.7379150  20.0896210   7.9119240
   3.9370760  21.0089460   8.0053830  12.1660750  25.0474720   8.3037090
  12.5801770  25.2019800   9.1527510  11.2311750  25.1729940   8.4662870
  12.6382920  22.3870880  10.3076240  13.2203690  21.6323200  10.2196720
  12.8144690  22.9178320   9.5307720   3.7554990  17.5467630   8.6193190
   3.6611860  16.9288380   7.8944060   3.1752380  18.2733920   8.3923100
   6.5216430  16.1040870   5.6520580   6.0733730  16.1265130   4.8066130
   5.8881630  15.7059890   6.2490880   6.9275980  24.9995200   6.2733020
   7.3464090  25.8427930   6.1009260   6.0084610  25.1367240   6.0439800
   9.2639880  22.7311380   7.6570860   9.3836090  22.1352520   8.3965700
  10.1233880  22.7681070   7.2372160  11.6027780  23.2848570   6.2333370
  11.0763000  23.8091190   5.6298510  11.9459120  23.9175960   6.8643100
   4.7783400  31.3048210   7.3890750   4.2404490  32.0294270   7.0699450
   5.0317360  30.8278550   6.5988090   6.0308650  19.2732730   8.9146680
   6.6208340  18.9648580   9.6024500   5.2128890  18.8012480   9.0706580
  10.8502080  18.8898540   9.1479700  10.1617600  18.2280080   9.0829690
  11.5708100  18.4436810   9.5928160   7.6345610  32.5399420   7.6477400
   7.5604310  33.4434560   7.9549770   6.7324450  32.2211320   7.6199470
  15.1625290  30.2361600   7.9769960  14.5627280  30.2954160   7.2333880
  15.2919190  29.2966580   8.1066810  13.8476930  26.9613580   6.0746120
  13.0336770  27.3910740   6.3371910  14.2551130  27.5731990   5.4615170
  15.1967330  22.1001780   7.6015340  14.9653420  21.8714530   6.7013290
  15.4571880  23.0201330   7.5560230  13.6355400  17.3258210  10.3795040
  14.5125580  17.3341610  10.7629040  13.6476240  16.5889050   9.7687390
  15.2608390  21.2627620   4.7902610  14.3111100  21.2291160   4.9047600
  15.4421400  22.1727730   4.5552380  14.3471520  15.0116180   6.1996150
  14.9843740  15.6250320   6.5655340  14.4946410  15.0476840   5.2545380
   1.8115550  28.1450090   9.7505020   1.7685180  27.7743000  10.6319480
   1.9426560  29.0827660   9.8906840   5.5121580  29.7009680   5.3514740
   5.2712940  29.9684240   4.4645260   6.4524220  29.8715410   5.4065600
   7.7176000  16.1642370   9.1071250   7.6564890  16.7564200   9.8566660
   8.6576380  16.0568330   8.9621510  10.3550560  15.8212430   8.7463540
  10.9690970  16.1391720   8.0844620  10.9000120  15.3361020   9.3659400
  16.7725740  31.7204060   6.1525380  16.2784020  32.1172930   5.4352510
  16.1639030  31.0953270   6.5462660  11.0958600  14.3844570   5.0732830
  10.2218440  14.7179680   4.8705760  10.9869350  13.9117750   5.8984700
  12.0030580  16.5915440   6.4574550  11.6743940  15.7767200   6.0776280
  12.9512880  16.5485250   6.3340240  14.4565190  32.3627480   3.4312120
  13.9968160  33.1143290   3.0570140  13.8277650  31.6433950   3.3726920
   4.8860910  30.6715720   2.6060250   5.4025930  30.0603080   2.0808510
   5.5358290  31.1744500   3.0971260   7.6256410  31.5624210   3.4329230
   7.9134220  31.3078510   2.5562240   8.1379630  31.0101570   4.0234800
   8.8433420  15.3014410   4.0125740   8.0605210  15.7759910   4.2922500
   8.5496350  14.3969240   3.9038920   7.6928770  32.4840310  10.7997430
   8.6196080  32.2484580  10.8433390   7.6779200  33.3112310  10.3183460
   4.8792380  15.1485060  10.5639310   4.5976650  15.6518660   9.8000130
   5.2612080  14.3506810  10.1981440  11.4807840  14.5638640  11.1419780
  11.3673290  14.8833250  12.0371300  12.2977580  14.9651150  10.8457060
  14.2606330  31.7110170  10.6238470  15.0531650  31.2159400  10.4164430
  14.5539480  32.3900310  11.2314080  10.3865990   3.8087620  75.3771970
  10.3060040   2.8942230  75.1063680   9.9730410   4.3054690  74.6711680
  12.5391460   9.9926830  76.0380370  12.0772990   9.2214070  76.3667540
  13.3517010  10.0192900  76.5432820   8.7654770  12.2784840  75.6584360
   8.1466210  12.7342340  75.0878800   9.6206550  12.4336300  75.2574060
   9.6318120   7.1624080  73.0516270   9.0135390   7.6273530  72.4878990
  10.1441370   7.8551560  73.4685780  13.4550730   8.6880510  73.2639040
  13.3447060   7.7454840  73.3888460  13.4518980   9.0496150  74.1501800
   8.9971010   4.3145830  72.6201530   8.0700290   4.2483210  72.8490000
   9.1495830   5.2525960  72.5056770  13.0268300   5.8766130  73.1236780
  12.4080720   5.5385680  72.4763080  13.0092750   5.2325890  73.8315970
   4.6027650   4.8410570  75.4021260   4.1984650   4.1287820  74.9067160
   4.6890770   4.4963810  76.2909300  11.2033000   5.1152940  70.1309530
  11.6426280   4.2775370  69.9847350  11.9161420   5.7482340  70.2173670
   9.3128380  10.0549010  74.0990770   9.7524290  10.7973340  73.6846160
   9.2515270  10.2975580  75.0229730  11.9798560  13.0418130  71.4553780
  11.8199700  12.7521070  72.3535610  11.8145270  12.2658260  70.9199010
   4.4586940  12.8216660  73.2325400   4.2829420  11.9052200  73.0193200
   3.6042680  13.1803950  73.4723200  11.6824690  10.5505690  70.0151780
  10.9889850  10.5482980  69.3554060  12.4247550  10.1265010  69.5845950
  11.2474620  12.1768400  74.0900270  11.7031570  11.3957780  74.4038890
  11.5867140  12.8875220  74.6341450   3.5610160   2.2024190  74.0132830
   3.3351080   1.9861360  74.9179450   2.7802690   2.6352650  73.6678800
  10.7907920   2.2087560  72.6123480  10.1916810   2.9323360  72.4287100
  11.3387530   2.1464340  71.8299930   5.4946970   3.4224270  69.5320090
   4.9263870   2.9742520  68.9056000   6.2035970   3.7817050  68.9985240
   3.0394450   7.4182460  71.8046500   2.2656710   6.8780080  71.6445220
   3.7689080   6.8989070  71.4664260   3.0831850   7.0862840  75.4425310
   3.6010520   6.2831100  75.3882200   2.6315870   7.0241980  76.2842140
   7.9701350   8.3529120  70.7152610   8.3117050   9.0971350  70.2195930
   7.1414060   8.6660240  71.0777440  14.2455030   3.4917270  69.5044300
  14.1618750   3.9231490  68.6540740  14.9649220   3.9515620  69.9371120
  15.2742280  10.3459530  72.2326430  14.6318440   9.6915150  72.5070150
  14.8872940  10.7514620  71.4567100  10.8528760   7.6744960  76.0798120
  11.2052580   7.0773090  75.4199490   9.9691090   7.3489190  76.2506370
   6.9392040   8.4342650  73.4868530   7.6263170   8.9811860  73.8676120
   6.1524460   8.9783380  73.5218140   6.2419250   5.4388680  73.0993890
   6.6982030   6.2493930  73.3254080   5.8907460   5.1211820  73.9312380
  13.6639660   9.2375990  68.7702780  13.4377240   8.5206430  69.3627420
  13.2735860   8.9888430  67.9324530  13.2455910   7.1547930  70.4316940
  12.9577610   7.6160620  71.2194820  14.0408080   6.6945700  70.7001160
   5.4624310  10.6474050  70.3620910   5.4534410  11.3803740  69.7465420
   4.5422670  10.4005630  70.4547870   8.4483910  10.7102290  69.0246100
   8.5495890  10.5066280  68.0948080   7.5485650  10.4560570  69.2293880
   7.0902020  13.2288610  73.7193770   7.3443520  13.1910000  72.7973140
   6.1414500  13.1021940  73.7122020  13.0954600   4.1480490  75.2952280
  12.1544740   4.1630720  75.4699970  13.4098670   3.3616450  75.7412580
   3.0736240   5.8300090  68.8556240   3.8399510   5.7181450  69.4181670
   3.1510930   5.1338060  68.2033010   1.7683000   3.2625160  69.5389130
   1.8486590   2.3152670  69.6506530   2.6602750   3.5932040  69.6449790
   2.5697710  13.4120550  76.6423670   3.3060190  12.8636010  76.9132240
   2.9538630  14.2776560  76.5029660   5.6800020  12.5850860  68.4649240
   6.4728630  12.8739690  68.0131030   5.1604370  12.1543030  67.7861720
  14.7330190  11.8120990  69.8885980  14.4471700  11.3986130  69.0740160
  14.5349740  12.7408700  69.7686500   6.1977420   7.8054270  68.3291590
   6.0928060   7.1906620  69.0552970   6.0301640   7.2820160  67.5454600
   9.4380150   6.8674300  68.9333580   8.8890250   7.3143600  69.5776320
  10.0599410   6.3623550  69.4571250   5.1055270   5.8265220  70.8298880
   5.5271690   5.6605090  71.6730270   5.2306110   5.0165450  70.3354020
   7.6182910   4.8502830  68.0775980   8.1388570   4.1351850  67.7117130
   8.2651310   5.4888700  68.3776490   8.1830940  12.9314440  70.3677720
   9.0781730  13.2699410  70.3896480   8.2148570  12.2093850  69.7402000
   1.8227100   8.3041490  68.5964720   2.2601970   8.8471160  69.2522300
   2.3074830   7.4788440  68.6061060   3.6334820   9.4239530  73.7086950
   3.3330360   9.3004500  74.6090860   3.5272310   8.5648120  73.3002680
  16.4026740   9.2035930  68.4113630  15.5719700   9.2712580  68.8820860
  16.5798570  10.0940050  68.1080490  15.8583200   5.9483410  70.9147830
  16.6202110   6.5180060  71.0207520  15.8737570   5.3810610  71.6856140
  16.8643170   6.8033510  75.7589760  17.2352000   6.0200830  75.3525730
  17.5045100   7.4922610  75.5807060  15.9102370   6.2417780  68.0720350
  16.1851210   7.1496660  67.9439570  15.7213110   6.1780310  69.0082340
  15.8067710   4.1786770  73.0649780  15.4311310   3.4114700  72.6331070
  15.0770830   4.5609470  73.5524710  15.0818670   2.4044260  76.3657020
  15.6056150   1.9106910  75.7347190  15.6678090   2.5394620  77.1104590
  13.9052980  12.9388690  74.6988350  14.5012050  12.6173260  74.0222770
  14.1631130  12.4660510  75.4901620  15.9273830  13.2522390  72.8945640
  16.1026020  12.5660130  72.2506560  15.2295400  13.7769440  72.5022310
   3.7701480  13.6417230  70.4480950   4.5020300  13.3576510  69.9004840
   4.0295150  13.4030510  71.3380330   2.9316270   9.7581960  70.4527280
   2.3025150  10.2267060  71.0013110   3.0464100   8.9131180  70.8873470
  10.3865990   3.8087620  56.6028480  10.3060040   2.8942230  56.3320190
   9.9730410   4.3054690  55.8968190   8.5184030   5.5866640  58.4837750
   7.7426130   5.1067080  58.7736320   9.1696960   4.9072290  58.3093910
   2.5349860   5.8986450  59.3613510   1.7034740   5.6435160  59.7610020
   3.1430840   5.9697220  60.0971430  12.5391460   9.9926830  57.2636880
  12.0772990   9.2214070  57.5924050  13.3517010  10.0192900  57.7689330
   2.5151120   9.9326540  59.5571530   2.8179160   9.0424280  59.3781750
   3.2594710  10.4896760  59.3293780   8.7654770  12.2784840  56.8840870
   8.1466210  12.7342340  56.3135310   9.6206550  12.4336300  56.4830570
   7.9593020   8.2623830  58.4907910   7.8901300   7.3213770  58.3297040
   8.7212880   8.3525240  59.0630480   9.6318120   7.1624080  54.2772780
   9.0135390   7.6273530  53.7135500  10.1441370   7.8551560  54.6942290
   4.4949880   6.6899950  60.9556380   4.1619260   7.3168870  61.5977450
   4.6716560   7.2161830  60.1758050   3.7068980   8.6580750  62.7705560
   4.3242980   9.3331830  62.4890010   2.8462100   9.0668730  62.6793060
  14.6246570  10.1220160  60.6860200  13.9410090  10.7919270  60.6776870
  15.1640860  10.3200810  59.9205060  12.1605310  11.9664290  59.4005380
  12.1732470  11.5626580  58.5327640  11.6080530  12.7411580  59.2966810
  13.4550730   8.6880510  54.4895550  13.3447060   7.7454840  54.6144970
  13.4518980   9.0496150  55.3758310  11.5590750   6.8694130  60.7287990
  11.9759540   6.6554240  59.8941450  12.2830570   7.1266920  61.2996610
   8.9971010   4.3145830  53.8458040   8.0700290   4.2483210  54.0746510
   9.1495830   5.2525960  53.7313280  15.5052850   5.2681350  60.8204230
  14.6771480   5.3374440  60.3454360  16.1003330   5.8535660  60.3520060
  13.0268300   5.8766130  54.3493290  12.4080720   5.5385680  53.7019590
  13.0092750   5.2325890  55.0572480   4.6027650   4.8410570  56.6277770
   4.1984650   4.1287820  56.1323670   4.6890770   4.4963810  57.5165810
   5.0709350   8.5278130  58.7916980   4.7737640   7.9223600  58.1124760
   6.0209170   8.5655440  58.6806340  13.1594960  12.1010000  62.4540080
  12.6825520  12.9082190  62.2612690  12.4756750  11.4488330  62.6066290
   4.1627780   8.2659820  65.4424780   3.2656310   8.4899790  65.6898180
   4.1880650   8.3894760  64.4936180  11.2033000   5.1152940  51.3566040
  11.6426280   4.2775370  51.2103860  11.9161420   5.7482340  51.4430180
   2.9899000   5.1373140  64.0182150   2.8506770   6.0095940  64.3869550
   2.1080360   4.7945950  63.8730090   9.3128380  10.0549010  55.3247280
   9.7524290  10.7973340  54.9102670   9.2515270  10.2975580  56.2486240
   4.7879350  11.0794840  66.2267300   4.7594780  11.4837790  65.3595730
   4.6244320  10.1505200  66.0638900  16.7394170  11.8621940  67.5231470
  17.2153890  12.3404830  68.2020550  17.3601330  11.7939430  66.7976970
  16.1427420   9.0534790  64.6831480  16.2690480   8.8146670  63.7648660
  16.1848800   8.2219330  65.1553560  10.0044160  12.7562790  63.2526290
  10.5188830  12.6670800  64.0548720   9.1613240  13.1022490  63.5454200
  11.9798560  13.0418130  52.6810290  11.8199700  12.7521070  53.5792120
  11.8145270  12.2658260  52.1455520   4.4586940  12.8216660  54.4581910
   4.2829420  11.9052200  54.2449710   3.6042680  13.1803950  54.6979710
  11.6824690  10.5505690  51.2408290  10.9889850  10.5482980  50.5810570
  12.4247550  10.1265010  50.8102460  11.2474620  12.1768400  55.3156780
  11.7031570  11.3957780  55.6295400  11.5867140  12.8875220  55.8597960
  10.1519970   2.6669840  66.3438860  10.4773380   1.8333590  66.0041090
  10.9400300   3.1898360  66.4917190   3.5610160   2.2024190  55.2389340
   3.3351080   1.9861360  56.1435960   2.7802690   2.6352650  54.8935310
  10.7907920   2.2087560  53.8379990  10.1916810   2.9323360  53.6543610
  11.3387530   2.1464340  53.0556440   6.0009370   3.1009770  65.9049610
   5.9052970   2.1604500  65.7550010   6.8441350   3.3224840  65.5097680
   9.9827930   3.4356850  59.9634050   9.2509050   3.9443660  60.3124150
   9.5852270   2.6186830  59.6622830   5.4946970   3.4224270  50.7576600
   4.9263870   2.9742520  50.1312510   6.2035970   3.7817050  50.2241750
   6.7213290   4.1712830  60.1151950   7.0883420   3.6971400  60.8613290
   6.5318350   5.0454400  60.4560290   4.5112660   3.2121470  62.4336160
   4.2069730   4.0913450  62.6586520   5.4659120   3.2721260  62.4693600
   3.0394450   7.4182460  53.0303010   2.2656710   6.8780080  52.8701730
   3.7689080   6.8989070  52.6920770  13.7982430   6.4147820  58.8229400
  14.5181550   6.9103110  58.4325510  13.5964250   5.7365710  58.1783270
   9.1801230   6.4856880  64.7098400   9.1138540   5.5652550  64.4555990
   8.5506370   6.5832320  65.4243040   3.0831850   7.0862840  56.6681820
   3.6010520   6.2831100  56.6138710   2.6315870   7.0241980  57.5098650
   7.9701350   8.3529120  51.9409120   8.3117050   9.0971350  51.4452440
   7.1414060   8.6660240  52.3033950   3.7689510   4.5108450  66.4647070
   3.4689650   4.6565630  65.5674890   4.5400750   3.9513740  66.3720460
   9.1117960   9.3077450  64.4602200   9.1262500   8.3758410  64.2421110
   8.4043060   9.3937210  65.0991970  14.2455030   3.4917270  50.7300810
  14.1618750   3.9231490  49.8797250  14.9649220   3.9515620  51.1627630
  15.3229170   5.9484790  63.8070780  14.5977360   6.5413570  63.6100170
  15.8504630   5.9408330  63.0084150  15.2742280  10.3459530  53.4582940
  14.6318440   9.6915150  53.7326660  14.8872940  10.7514620  52.6823610
  10.8528760   7.6744960  57.3054630  11.2052580   7.0773090  56.6456000
   9.9691090   7.3489190  57.4762880   6.9392040   8.4342650  54.7125040
   7.6263170   8.9811860  55.0932630   6.1524460   8.9783380  54.7474650
   6.2419250   5.4388680  54.3250400   6.6982030   6.2493930  54.5510590
   5.8907460   5.1211820  55.1568890   8.5451860  10.9495020  61.5542700
   9.1894080  11.1554400  62.2316120   8.9081300  10.1883420  61.1013550
   9.8183940   8.9527370  60.2720150  10.4606170   8.2520530  60.3852320
  10.3433290   9.7325810  60.0917040  13.6639660   9.2375990  49.9959290
  13.4377240   8.5206430  50.5883930  13.2735860   8.9888430  49.1581040
  11.5921560   9.7522270  63.4756210  11.9277800  10.3388960  64.1534130
  10.6721900   9.6214980  63.7054000  13.2455910   7.1547930  51.6573450
  12.9577610   7.6160620  52.4451330  14.0408080   6.6945700  51.9257670
   7.4210140   9.8013600  66.6444270   7.1007010   9.0822840  67.1889960
   6.7468500  10.4768670  66.7180330   5.4624310  10.6474050  51.5877420
   5.4534410  11.3803740  50.9721930   4.5422670  10.4005630  51.6804380
   8.4483910  10.7102290  50.2502610   8.5495890  10.5066280  49.3204590
   7.5485650  10.4560570  50.4550390   7.5965730   2.6879350  62.2319040
   8.0950980   3.1625170  62.8970890   7.7388680   1.7642870  62.4389070
   7.0902020  13.2288610  54.9450280   7.3443520  13.1910000  54.0229650
   6.1414500  13.1021940  54.9378530  13.0954600   4.1480490  56.5208790
  12.1544740   4.1630720  56.6956480  13.4098670   3.3616450  56.9669090
   3.0736240   5.8300090  50.0812750   3.8399510   5.7181450  50.6438180
   3.1510930   5.1338060  49.4289520   1.7683000   3.2625160  50.7645640
   1.8486590   2.3152670  50.8763040   2.6602750   3.5932040  50.8706300
  15.0980180  11.3189340  58.1963050  15.2227600  12.1420510  58.6686860
  15.9645740  11.1080070  57.8487200   2.5697710  13.4120550  57.8680180
   3.3060190  12.8636010  58.1388750   2.9538630  14.2776560  57.7286170
   5.6800020  12.5850860  49.6905750   6.4728630  12.8739690  49.2387540
   5.1604370  12.1543030  49.0118230  10.4120620   8.7046490  67.0041170
   9.8058780   8.7278090  66.2636920  10.1074730   7.9729530  67.5408420
  11.8420990  12.4326780  65.6150580  12.7942740  12.3484800  65.5650820
  11.6949210  13.0968490  66.2884370  14.7330190  11.8120990  51.1142490
  14.4471700  11.3986130  50.2996670  14.5349740  12.7408700  50.9943010
   6.1977420   7.8054270  49.5548100   6.0928060   7.1906620  50.2809480
   6.0301640   7.2820160  48.7711110   6.3491740   6.4911070  65.5337330
   5.5837410   7.0596070  65.4492000   6.5307700   6.1987280  64.6405560
   9.4380150   6.8674300  50.1590090   8.8890250   7.3143600  50.8032830
  10.0599410   6.3623550  50.6827760  13.4915090   8.2216400  66.0912350
  14.2324560   8.5592160  65.5879810  12.7287770   8.3908460  65.5382120
   5.1055270   5.8265220  52.0555390   5.5271690   5.6605090  52.8986780
   5.2306110   5.0165450  51.5610530   7.6182910   4.8502830  49.3032490
   8.1388570   4.1351850  48.9373640   8.2651310   5.4888700  49.6033000
  12.1660750   6.2731230  64.6267560  12.5801770   6.4276310  65.4757980
  11.2311750   6.3986450  64.7893340  12.6382920   3.6127390  66.6306710
  13.2203690   2.8579710  66.5427190  12.8144690   4.1434830  65.8538190
   6.9275980   6.2251710  62.5963490   7.3464090   7.0684440  62.4239730
   6.0084610   6.3623750  62.3670270   9.2639880   3.9567890  63.9801330
   9.3836090   3.3609030  64.7196170  10.1233880   3.9937580  63.5602630
  11.6027780   4.5105080  62.5563840  11.0763000   5.0347700  61.9528980
  11.9459120   5.1432470  63.1873570   4.7783400  12.5304720  63.7121220
   4.2404490  13.2550780  63.3929920   5.0317360  12.0535060  62.9218560
   7.6345610  13.7655930  63.9707870   7.5604310  14.6691070  64.2780240
   6.7324450  13.4467830  63.9429940   8.1830940  12.9314440  51.5934230
   9.0781730  13.2699410  51.6152990   8.2148570  12.2093850  50.9658510
   1.8227100   8.3041490  49.8221230   2.2601970   8.8471160  50.4778810
   2.3074830   7.4788440  49.8317570   3.6334820   9.4239530  54.9343460
   3.3330360   9.3004500  55.8347370   3.5272310   8.5648120  54.5259190
  15.1625290  11.4618110  64.3000430  14.5627280  11.5210670  63.5564350
  15.2919190  10.5223090  64.4297280  16.4026740   9.2035930  49.6370140
  15.5719700   9.2712580  50.1077370  16.5798570  10.0940050  49.3337000
  15.8583200   5.9483410  52.1404340  16.6202110   6.5180060  52.2464030
  15.8737570   5.3810610  52.9112650  16.8643170   6.8033510  56.9846270
  17.2352000   6.0200830  56.5782240  17.5045100   7.4922610  56.8063570
  13.8476930   8.1870090  62.3976590  13.0336770   8.6167250  62.6602380
  14.2551130   8.7988500  61.7845640  15.9102370   6.2417780  49.2976860
  16.1851210   7.1496660  49.1696080  15.7213110   6.1780310  50.2338850
  15.8067710   4.1786770  54.2906290  15.4311310   3.4114700  53.8587580
  15.0770830   4.5609470  54.7781220  15.1967330   3.3258290  63.9245810
  14.9653420   3.0971040  63.0243760  15.4571880   4.2457840  63.8790700
  15.0818670   2.4044260  57.5913530  15.6056150   1.9106910  56.9603700
  15.6678090   2.5394620  58.3361100  15.2608390   2.4884130  61.1133080
  14.3111100   2.4547670  61.2278070  15.4421400   3.3984240  60.8782850
  13.9052980  12.9388690  55.9244860  14.5012050  12.6173260  55.2479280
  14.1631130  12.4660510  56.7158130   1.8115550   9.3706600  66.0735490
   1.7685180   8.9999510  66.9549950   1.9426560  10.3084170  66.2137310
   5.5121580  10.9266190  61.6745210   5.2712940  11.1940750  60.7875730
   6.4524220  11.0971920  61.7296070  16.7725740  12.9460570  62.4755850
  16.2784020  13.3429440  61.7582980  16.1639030  12.3209780  62.8693130
  14.4565190  13.5883990  59.7542590  13.9968160  14.3399800  59.3800610
  13.8277650  12.8690460  59.6957390   4.8860910  11.8972230  58.9290720
   5.4025930  11.2859590  58.4038980   5.5358290  12.4001010  59.4201730
   7.6256410  12.7880720  59.7559700   7.9134220  12.5335020  58.8792710
   8.1379630  12.2358080  60.3465270   7.6928770  13.7096820  67.1227900
   8.6196080  13.4741090  67.1663860   7.6779200  14.5368820  66.6413930
  15.9273830  13.2522390  54.1202150  16.1026020  12.5660130  53.4763070
  15.2295400  13.7769440  53.7278820   3.7701480  13.6417230  51.6737460
   4.5020300  13.3576510  51.1261350   4.0295150  13.4030510  52.5636840
   2.9316270   9.7581960  51.6783790   2.3025150  10.2267060  52.2269620
   3.0464100   8.9131180  52.1129980  14.2606330  12.9366680  66.9468940
  15.0531650  12.4415910  66.7394900  14.5539480  13.6156820  67.5544550
  10.3865990   3.8087620  37.8284990  10.3060040   2.8942230  37.5576700
   9.9730410   4.3054690  37.1224700   8.5184030   5.5866640  39.7094260
   7.7426130   5.1067080  39.9992830   9.1696960   4.9072290  39.5350420
   2.5349860   5.8986450  40.5870020   1.7034740   5.6435160  40.9866530
   3.1430840   5.9697220  41.3227940  12.5391460   9.9926830  38.4893390
  12.0772990   9.2214070  38.8180560  13.3517010  10.0192900  38.9945840
   2.5151120   9.9326540  40.7828040   2.8179160   9.0424280  40.6038260
   3.2594710  10.4896760  40.5550290   8.7654770  12.2784840  38.1097380
   8.1466210  12.7342340  37.5391820   9.6206550  12.4336300  37.7087080
   7.9593020   8.2623830  39.7164420   7.8901300   7.3213770  39.5553550
   8.7212880   8.3525240  40.2886990   9.6318120   7.1624080  35.5029290
   9.0135390   7.6273530  34.9392010  10.1441370   7.8551560  35.9198800
   4.4949880   6.6899950  42.1812890   4.1619260   7.3168870  42.8233960
   4.6716560   7.2161830  41.4014560   3.7068980   8.6580750  43.9962070
   4.3242980   9.3331830  43.7146520   2.8462100   9.0668730  43.9049570
  14.6246570  10.1220160  41.9116710  13.9410090  10.7919270  41.9033380
  15.1640860  10.3200810  41.1461570  12.1605310  11.9664290  40.6261890
  12.1732470  11.5626580  39.7584150  11.6080530  12.7411580  40.5223320
  13.4550730   8.6880510  35.7152060  13.3447060   7.7454840  35.8401480
  13.4518980   9.0496150  36.6014820  11.5590750   6.8694130  41.9544500
  11.9759540   6.6554240  41.1197960  12.2830570   7.1266920  42.5253120
   8.9971010   4.3145830  35.0714550   8.0700290   4.2483210  35.3003020
   9.1495830   5.2525960  34.9569790  15.5052850   5.2681350  42.0460740
  14.6771480   5.3374440  41.5710870  16.1003330   5.8535660  41.5776570
  13.0268300   5.8766130  35.5749800  12.4080720   5.5385680  34.9276100
  13.0092750   5.2325890  36.2828990   4.6027650   4.8410570  37.8534280
   4.1984650   4.1287820  37.3580180   4.6890770   4.4963810  38.7422320
   5.0709350   8.5278130  40.0173490   4.7737640   7.9223600  39.3381270
   6.0209170   8.5655440  39.9062850  13.1594960  12.1010000  43.6796590
  12.6825520  12.9082190  43.4869200  12.4756750  11.4488330  43.8322800
   4.1627780   8.2659820  46.6681290   3.2656310   8.4899790  46.9154690
   4.1880650   8.3894760  45.7192690  11.2033000   5.1152940  32.5822550
  11.6426280   4.2775370  32.4360370  11.9161420   5.7482340  32.6686690
   2.9899000   5.1373140  45.2438660   2.8506770   6.0095940  45.6126060
   2.1080360   4.7945950  45.0986600   9.3128380  10.0549010  36.5503790
   9.7524290  10.7973340  36.1359180   9.2515270  10.2975580  37.4742750
   4.7879350  11.0794840  47.4523810   4.7594780  11.4837790  46.5852240
   4.6244320  10.1505200  47.2895410  16.7394170  11.8621940  48.7487980
  17.2153890  12.3404830  49.4277060  17.3601330  11.7939430  48.0233480
  16.1427420   9.0534790  45.9087990  16.2690480   8.8146670  44.9905170
  16.1848800   8.2219330  46.3810070  10.0044160  12.7562790  44.4782800
  10.5188830  12.6670800  45.2805230   9.1613240  13.1022490  44.7710710
  11.9798560  13.0418130  33.9066800  11.8199700  12.7521070  34.8048630
  11.8145270  12.2658260  33.3712030   4.4586940  12.8216660  35.6838420
   4.2829420  11.9052200  35.4706220   3.6042680  13.1803950  35.9236220
  11.6824690  10.5505690  32.4664800  10.9889850  10.5482980  31.8067080
  12.4247550  10.1265010  32.0358970  11.2474620  12.1768400  36.5413290
  11.7031570  11.3957780  36.8551910  11.5867140  12.8875220  37.0854470
  10.1519970   2.6669840  47.5695370  10.4773380   1.8333590  47.2297600
  10.9400300   3.1898360  47.7173700   3.5610160   2.2024190  36.4645850
   3.3351080   1.9861360  37.3692470   2.7802690   2.6352650  36.1191820
  10.7907920   2.2087560  35.0636500  10.1916810   2.9323360  34.8800120
  11.3387530   2.1464340  34.2812950   6.0009370   3.1009770  47.1306120
   5.9052970   2.1604500  46.9806520   6.8441350   3.3224840  46.7354190
   9.9827930   3.4356850  41.1890560   9.2509050   3.9443660  41.5380660
   9.5852270   2.6186830  40.8879340   5.4946970   3.4224270  31.9833110
   4.9263870   2.9742520  31.3569020   6.2035970   3.7817050  31.4498260
   6.7213290   4.1712830  41.3408460   7.0883420   3.6971400  42.0869800
   6.5318350   5.0454400  41.6816800   4.5112660   3.2121470  43.6592670
   4.2069730   4.0913450  43.8843030   5.4659120   3.2721260  43.6950110
   3.0394450   7.4182460  34.2559520   2.2656710   6.8780080  34.0958240
   3.7689080   6.8989070  33.9177280  13.7982430   6.4147820  40.0485910
  14.5181550   6.9103110  39.6582020  13.5964250   5.7365710  39.4039780
   9.1801230   6.4856880  45.9354910   9.1138540   5.5652550  45.6812500
   8.5506370   6.5832320  46.6499550   3.0831850   7.0862840  37.8938330
   3.6010520   6.2831100  37.8395220   2.6315870   7.0241980  38.7355160
   7.9701350   8.3529120  33.1665630   8.3117050   9.0971350  32.6708950
   7.1414060   8.6660240  33.5290460   3.7689510   4.5108450  47.6903580
   3.4689650   4.6565630  46.7931400   4.5400750   3.9513740  47.5976970
   9.1117960   9.3077450  45.6858710   9.1262500   8.3758410  45.4677620
   8.4043060   9.3937210  46.3248480  14.2455030   3.4917270  31.9557320
  14.1618750   3.9231490  31.1053760  14.9649220   3.9515620  32.3884140
  15.3229170   5.9484790  45.0327290  14.5977360   6.5413570  44.8356680
  15.8504630   5.9408330  44.2340660  15.2742280  10.3459530  34.6839450
  14.6318440   9.6915150  34.9583170  14.8872940  10.7514620  33.9080120
  10.8528760   7.6744960  38.5311140  11.2052580   7.0773090  37.8712510
   9.9691090   7.3489190  38.7019390   6.9392040   8.4342650  35.9381550
   7.6263170   8.9811860  36.3189140   6.1524460   8.9783380  35.9731160
   6.2419250   5.4388680  35.5506910   6.6982030   6.2493930  35.7767100
   5.8907460   5.1211820  36.3825400   8.5451860  10.9495020  42.7799210
   9.1894080  11.1554400  43.4572630   8.9081300  10.1883420  42.3270060
   9.8183940   8.9527370  41.4976660  10.4606170   8.2520530  41.6108830
  10.3433290   9.7325810  41.3173550  13.6639660   9.2375990  31.2215800
  13.4377240   8.5206430  31.8140440  13.2735860   8.9888430  30.3837550
  11.5921560   9.7522270  44.7012720  11.9277800  10.3388960  45.3790640
  10.6721900   9.6214980  44.9310510  13.2455910   7.1547930  32.8829960
  12.9577610   7.6160620  33.6707840  14.0408080   6.6945700  33.1514180
   7.4210140   9.8013600  47.8700780   7.1007010   9.0822840  48.4146470
   6.7468500  10.4768670  47.9436840   5.4624310  10.6474050  32.8133930
   5.4534410  11.3803740  32.1978440   4.5422670  10.4005630  32.9060890
   8.4483910  10.7102290  31.4759120   8.5495890  10.5066280  30.5461100
   7.5485650  10.4560570  31.6806900   7.5965730   2.6879350  43.4575550
   8.0950980   3.1625170  44.1227400   7.7388680   1.7642870  43.6645580
   7.0902020  13.2288610  36.1706790   7.3443520  13.1910000  35.2486160
   6.1414500  13.1021940  36.1635040  13.0954600   4.1480490  37.7465300
  12.1544740   4.1630720  37.9212990  13.4098670   3.3616450  38.1925600
   3.0736240   5.8300090  31.3069260   3.8399510   5.7181450  31.8694690
   3.1510930   5.1338060  30.6546030   1.7683000   3.2625160  31.9902150
   1.8486590   2.3152670  32.1019550   2.6602750   3.5932040  32.0962810
  15.0980180  11.3189340  39.4219560  15.2227600  12.1420510  39.8943370
  15.9645740  11.1080070  39.0743710   2.5697710  13.4120550  39.0936690
   3.3060190  12.8636010  39.3645260   2.9538630  14.2776560  38.9542680
   5.6800020  12.5850860  30.9162260   6.4728630  12.8739690  30.4644050
   5.1604370  12.1543030  30.2374740  10.4120620   8.7046490  48.2297680
   9.8058780   8.7278090  47.4893430  10.1074730   7.9729530  48.7664930
  11.8420990  12.4326780  46.8407090  12.7942740  12.3484800  46.7907330
  11.6949210  13.0968490  47.5140880  14.7330190  11.8120990  32.3399000
  14.4471700  11.3986130  31.5253180  14.5349740  12.7408700  32.2199520
   6.1977420   7.8054270  30.7804610   6.0928060   7.1906620  31.5065990
   6.0301640   7.2820160  29.9967620   6.3491740   6.4911070  46.7593840
   5.5837410   7.0596070  46.6748510   6.5307700   6.1987280  45.8662070
   9.4380150   6.8674300  31.3846600   8.8890250   7.3143600  32.0289340
  10.0599410   6.3623550  31.9084270  13.4915090   8.2216400  47.3168860
  14.2324560   8.5592160  46.8136320  12.7287770   8.3908460  46.7638630
   5.1055270   5.8265220  33.2811900   5.5271690   5.6605090  34.1243290
   5.2306110   5.0165450  32.7867040   7.6182910   4.8502830  30.5289000
   8.1388570   4.1351850  30.1630150   8.2651310   5.4888700  30.8289510
  12.1660750   6.2731230  45.8524070  12.5801770   6.4276310  46.7014490
  11.2311750   6.3986450  46.0149850  12.6382920   3.6127390  47.8563220
  13.2203690   2.8579710  47.7683700  12.8144690   4.1434830  47.0794700
   6.9275980   6.2251710  43.8220000   7.3464090   7.0684440  43.6496240
   6.0084610   6.3623750  43.5926780   9.2639880   3.9567890  45.2057840
   9.3836090   3.3609030  45.9452680  10.1233880   3.9937580  44.7859140
  11.6027780   4.5105080  43.7820350  11.0763000   5.0347700  43.1785490
  11.9459120   5.1432470  44.4130080   4.7783400  12.5304720  44.9377730
   4.2404490  13.2550780  44.6186430   5.0317360  12.0535060  44.1475070
   7.6345610  13.7655930  45.1964380   7.5604310  14.6691070  45.5036750
   6.7324450  13.4467830  45.1686450   8.1830940  12.9314440  32.8190740
   9.0781730  13.2699410  32.8409500   8.2148570  12.2093850  32.1915020
   1.8227100   8.3041490  31.0477740   2.2601970   8.8471160  31.7035320
   2.3074830   7.4788440  31.0574080   3.6334820   9.4239530  36.1599970
   3.3330360   9.3004500  37.0603880   3.5272310   8.5648120  35.7515700
  15.1625290  11.4618110  45.5256940  14.5627280  11.5210670  44.7820860
  15.2919190  10.5223090  45.6553790  16.4026740   9.2035930  30.8626650
  15.5719700   9.2712580  31.3333880  16.5798570  10.0940050  30.5593510
  15.8583200   5.9483410  33.3660850  16.6202110   6.5180060  33.4720540
  15.8737570   5.3810610  34.1369160  16.8643170   6.8033510  38.2102780
  17.2352000   6.0200830  37.8038750  17.5045100   7.4922610  38.0320080
  13.8476930   8.1870090  43.6233100  13.0336770   8.6167250  43.8858890
  14.2551130   8.7988500  43.0102150  15.9102370   6.2417780  30.5233370
  16.1851210   7.1496660  30.3952590  15.7213110   6.1780310  31.4595360
  15.8067710   4.1786770  35.5162800  15.4311310   3.4114700  35.0844090
  15.0770830   4.5609470  36.0037730  15.1967330   3.3258290  45.1502320
  14.9653420   3.0971040  44.2500270  15.4571880   4.2457840  45.1047210
  15.0818670   2.4044260  38.8170040  15.6056150   1.9106910  38.1860210
  15.6678090   2.5394620  39.5617610  15.2608390   2.4884130  42.3389590
  14.3111100   2.4547670  42.4534580  15.4421400   3.3984240  42.1039360
  13.9052980  12.9388690  37.1501370  14.5012050  12.6173260  36.4735790
  14.1631130  12.4660510  37.9414640   1.8115550   9.3706600  47.2992000
   1.7685180   8.9999510  48.1806460   1.9426560  10.3084170  47.4393820
   5.5121580  10.9266190  42.9001720   5.2712940  11.1940750  42.0132240
   6.4524220  11.0971920  42.9552580  16.7725740  12.9460570  43.7012360
  16.2784020  13.3429440  42.9839490  16.1639030  12.3209780  44.0949640
  14.4565190  13.5883990  40.9799100  13.9968160  14.3399800  40.6057120
  13.8277650  12.8690460  40.9213900   4.8860910  11.8972230  40.1547230
   5.4025930  11.2859590  39.6295490   5.5358290  12.4001010  40.6458240
   7.6256410  12.7880720  40.9816210   7.9134220  12.5335020  40.1049220
   8.1379630  12.2358080  41.5721780   7.6928770  13.7096820  48.3484410
   8.6196080  13.4741090  48.3920370   7.6779200  14.5368820  47.8670440
  15.9273830  13.2522390  35.3458660  16.1026020  12.5660130  34.7019580
  15.2295400  13.7769440  34.9535330   3.7701480  13.6417230  32.8993970
   4.5020300  13.3576510  32.3517860   4.0295150  13.4030510  33.7893350
   2.9316270   9.7581960  32.9040300   2.3025150  10.2267060  33.4526130
   3.0464100   8.9131180  33.3386490  14.2606330  12.9366680  48.1725450
  15.0531650  12.4415910  47.9651410  14.5539480  13.6156820  48.7801060
  10.3865990   3.8087620  19.0541500  10.3060040   2.8942230  18.7833210
   9.9730410   4.3054690  18.3481210   8.5184030   5.5866640  20.9350770
   7.7426130   5.1067080  21.2249340   9.1696960   4.9072290  20.7606930
   2.5349860   5.8986450  21.8126530   1.7034740   5.6435160  22.2123040
   3.1430840   5.9697220  22.5484450  12.5391460   9.9926830  19.7149900
  12.0772990   9.2214070  20.0437070  13.3517010  10.0192900  20.2202350
   2.5151120   9.9326540  22.0084550   2.8179160   9.0424280  21.8294770
   3.2594710  10.4896760  21.7806800   8.7654770  12.2784840  19.3353890
   8.1466210  12.7342340  18.7648330   9.6206550  12.4336300  18.9343590
   7.9593020   8.2623830  20.9420930   7.8901300   7.3213770  20.7810060
   8.7212880   8.3525240  21.5143500   9.6318120   7.1624080  16.7285800
   9.0135390   7.6273530  16.1648520  10.1441370   7.8551560  17.1455310
   4.4949880   6.6899950  23.4069400   4.1619260   7.3168870  24.0490470
   4.6716560   7.2161830  22.6271070   3.7068980   8.6580750  25.2218580
   4.3242980   9.3331830  24.9403030   2.8462100   9.0668730  25.1306080
  14.6246570  10.1220160  23.1373220  13.9410090  10.7919270  23.1289890
  15.1640860  10.3200810  22.3718080  12.1605310  11.9664290  21.8518400
  12.1732470  11.5626580  20.9840660  11.6080530  12.7411580  21.7479830
  13.4550730   8.6880510  16.9408570  13.3447060   7.7454840  17.0657990
  13.4518980   9.0496150  17.8271330  11.5590750   6.8694130  23.1801010
  11.9759540   6.6554240  22.3454470  12.2830570   7.1266920  23.7509630
   8.9971010   4.3145830  16.2971060   8.0700290   4.2483210  16.5259530
   9.1495830   5.2525960  16.1826300  15.5052850   5.2681350  23.2717250
  14.6771480   5.3374440  22.7967380  16.1003330   5.8535660  22.8033080
  13.0268300   5.8766130  16.8006310  12.4080720   5.5385680  16.1532610
  13.0092750   5.2325890  17.5085500   4.6027650   4.8410570  19.0790790
   4.1984650   4.1287820  18.5836690   4.6890770   4.4963810  19.9678830
   5.0709350   8.5278130  21.2430000   4.7737640   7.9223600  20.5637780
   6.0209170   8.5655440  21.1319360  13.1594960  12.1010000  24.9053100
  12.6825520  12.9082190  24.7125710  12.4756750  11.4488330  25.0579310
   4.1627780   8.2659820  27.8937800   3.2656310   8.4899790  28.1411200
   4.1880650   8.3894760  26.9449200  11.2033000   5.1152940  13.8079060
  11.6426280   4.2775370  13.6616880  11.9161420   5.7482340  13.8943200
   2.9899000   5.1373140  26.4695170   2.8506770   6.0095940  26.8382570
   2.1080360   4.7945950  26.3243110   9.3128380  10.0549010  17.7760300
   9.7524290  10.7973340  17.3615690   9.2515270  10.2975580  18.6999260
   4.7879350  11.0794840  28.6780320   4.7594780  11.4837790  27.8108750
   4.6244320  10.1505200  28.5151920  16.7394170  11.8621940  29.9744490
  17.2153890  12.3404830  30.6533570  17.3601330  11.7939430  29.2489990
  16.1427420   9.0534790  27.1344500  16.2690480   8.8146670  26.2161680
  16.1848800   8.2219330  27.6066580  10.0044160  12.7562790  25.7039310
  10.5188830  12.6670800  26.5061740   9.1613240  13.1022490  25.9967220
  11.9798560  13.0418130  15.1323310  11.8199700  12.7521070  16.0305140
  11.8145270  12.2658260  14.5968540   4.4586940  12.8216660  16.9094930
   4.2829420  11.9052200  16.6962730   3.6042680  13.1803950  17.1492730
  11.6824690  10.5505690  13.6921310  10.9889850  10.5482980  13.0323590
  12.4247550  10.1265010  13.2615480  11.2474620  12.1768400  17.7669800
  11.7031570  11.3957780  18.0808420  11.5867140  12.8875220  18.3110980
  10.1519970   2.6669840  28.7951880  10.4773380   1.8333590  28.4554110
  10.9400300   3.1898360  28.9430210   3.5610160   2.2024190  17.6902360
   3.3351080   1.9861360  18.5948980   2.7802690   2.6352650  17.3448330
  10.7907920   2.2087560  16.2893010  10.1916810   2.9323360  16.1056630
  11.3387530   2.1464340  15.5069460   6.0009370   3.1009770  28.3562630
   5.9052970   2.1604500  28.2063030   6.8441350   3.3224840  27.9610700
   9.9827930   3.4356850  22.4147070   9.2509050   3.9443660  22.7637170
   9.5852270   2.6186830  22.1135850   5.4946970   3.4224270  13.2089620
   4.9263870   2.9742520  12.5825530   6.2035970   3.7817050  12.6754770
   6.7213290   4.1712830  22.5664970   7.0883420   3.6971400  23.3126310
   6.5318350   5.0454400  22.9073310   4.5112660   3.2121470  24.8849180
   4.2069730   4.0913450  25.1099540   5.4659120   3.2721260  24.9206620
   3.0394450   7.4182460  15.4816030   2.2656710   6.8780080  15.3214750
   3.7689080   6.8989070  15.1433790  13.7982430   6.4147820  21.2742420
  14.5181550   6.9103110  20.8838530  13.5964250   5.7365710  20.6296290
   9.1801230   6.4856880  27.1611420   9.1138540   5.5652550  26.9069010
   8.5506370   6.5832320  27.8756060   3.0831850   7.0862840  19.1194840
   3.6010520   6.2831100  19.0651730   2.6315870   7.0241980  19.9611670
   7.9701350   8.3529120  14.3922140   8.3117050   9.0971350  13.8965460
   7.1414060   8.6660240  14.7546970   3.7689510   4.5108450  28.9160090
   3.4689650   4.6565630  28.0187910   4.5400750   3.9513740  28.8233480
   9.1117960   9.3077450  26.9115220   9.1262500   8.3758410  26.6934130
   8.4043060   9.3937210  27.5504990  14.2455030   3.4917270  13.1813830
  14.1618750   3.9231490  12.3310270  14.9649220   3.9515620  13.6140650
  15.3229170   5.9484790  26.2583800  14.5977360   6.5413570  26.0613190
  15.8504630   5.9408330  25.4597170  15.2742280  10.3459530  15.9095960
  14.6318440   9.6915150  16.1839680  14.8872940  10.7514620  15.1336630
  10.8528760   7.6744960  19.7567650  11.2052580   7.0773090  19.0969020
   9.9691090   7.3489190  19.9275900   6.9392040   8.4342650  17.1638060
   7.6263170   8.9811860  17.5445650   6.1524460   8.9783380  17.1987670
   6.2419250   5.4388680  16.7763420   6.6982030   6.2493930  17.0023610
   5.8907460   5.1211820  17.6081910   8.5451860  10.9495020  24.0055720
   9.1894080  11.1554400  24.6829140   8.9081300  10.1883420  23.5526570
   9.8183940   8.9527370  22.7233170  10.4606170   8.2520530  22.8365340
  10.3433290   9.7325810  22.5430060  13.6639660   9.2375990  12.4472310
  13.4377240   8.5206430  13.0396950  13.2735860   8.9888430  11.6094060
  11.5921560   9.7522270  25.9269230  11.9277800  10.3388960  26.6047150
  10.6721900   9.6214980  26.1567020  13.2455910   7.1547930  14.1086470
  12.9577610   7.6160620  14.8964350  14.0408080   6.6945700  14.3770690
   7.4210140   9.8013600  29.0957290   7.1007010   9.0822840  29.6402980
   6.7468500  10.4768670  29.1693350   5.4624310  10.6474050  14.0390440
   5.4534410  11.3803740  13.4234950   4.5422670  10.4005630  14.1317400
   8.4483910  10.7102290  12.7015630   8.5495890  10.5066280  11.7717610
   7.5485650  10.4560570  12.9063410   7.5965730   2.6879350  24.6832060
   8.0950980   3.1625170  25.3483910   7.7388680   1.7642870  24.8902090
   7.0902020  13.2288610  17.3963300   7.3443520  13.1910000  16.4742670
   6.1414500  13.1021940  17.3891550  13.0954600   4.1480490  18.9721810
  12.1544740   4.1630720  19.1469500  13.4098670   3.3616450  19.4182110
   3.0736240   5.8300090  12.5325770   3.8399510   5.7181450  13.0951200
   3.1510930   5.1338060  11.8802540   1.7683000   3.2625160  13.2158660
   1.8486590   2.3152670  13.3276060   2.6602750   3.5932040  13.3219320
  15.0980180  11.3189340  20.6476070  15.2227600  12.1420510  21.1199880
  15.9645740  11.1080070  20.3000220   2.5697710  13.4120550  20.3193200
   3.3060190  12.8636010  20.5901770   2.9538630  14.2776560  20.1799190
   5.6800020  12.5850860  12.1418770   6.4728630  12.8739690  11.6900560
   5.1604370  12.1543030  11.4631250  10.4120620   8.7046490  29.4554190
   9.8058780   8.7278090  28.7149940  10.1074730   7.9729530  29.9921440
  11.8420990  12.4326780  28.0663600  12.7942740  12.3484800  28.0163840
  11.6949210  13.0968490  28.7397390  14.7330190  11.8120990  13.5655510
  14.4471700  11.3986130  12.7509690  14.5349740  12.7408700  13.4456030
   6.1977420   7.8054270  12.0061120   6.0928060   7.1906620  12.7322500
   6.0301640   7.2820160  11.2224130   6.3491740   6.4911070  27.9850350
   5.5837410   7.0596070  27.9005020   6.5307700   6.1987280  27.0918580
   9.4380150   6.8674300  12.6103110   8.8890250   7.3143600  13.2545850
  10.0599410   6.3623550  13.1340780  13.4915090   8.2216400  28.5425370
  14.2324560   8.5592160  28.0392830  12.7287770   8.3908460  27.9895140
   5.1055270   5.8265220  14.5068410   5.5271690   5.6605090  15.3499800
   5.2306110   5.0165450  14.0123550   7.6182910   4.8502830  11.7545510
   8.1388570   4.1351850  11.3886660   8.2651310   5.4888700  12.0546020
  12.1660750   6.2731230  27.0780580  12.5801770   6.4276310  27.9271000
  11.2311750   6.3986450  27.2406360  12.6382920   3.6127390  29.0819730
  13.2203690   2.8579710  28.9940210  12.8144690   4.1434830  28.3051210
   6.9275980   6.2251710  25.0476510   7.3464090   7.0684440  24.8752750
   6.0084610   6.3623750  24.8183290   9.2639880   3.9567890  26.4314350
   9.3836090   3.3609030  27.1709190  10.1233880   3.9937580  26.0115650
  11.6027780   4.5105080  25.0076860  11.0763000   5.0347700  24.4042000
  11.9459120   5.1432470  25.6386590   4.7783400  12.5304720  26.1634240
   4.2404490  13.2550780  25.8442940   5.0317360  12.0535060  25.3731580
   7.6345610  13.7655930  26.4220890   7.5604310  14.6691070  26.7293260
   6.7324450  13.4467830  26.3942960   8.1830940  12.9314440  14.0447250
   9.0781730  13.2699410  14.0666010   8.2148570  12.2093850  13.4171530
   1.8227100   8.3041490  12.2734250   2.2601970   8.8471160  12.9291830
   2.3074830   7.4788440  12.2830590   3.6334820   9.4239530  17.3856480
   3.3330360   9.3004500  18.2860390   3.5272310   8.5648120  16.9772210
  15.1625290  11.4618110  26.7513450  14.5627280  11.5210670  26.0077370
  15.2919190  10.5223090  26.8810300  16.4026740   9.2035930  12.0883160
  15.5719700   9.2712580  12.5590390  16.5798570  10.0940050  11.7850020
  15.8583200   5.9483410  14.5917360  16.6202110   6.5180060  14.6977050
  15.8737570   5.3810610  15.3625670  16.8643170   6.8033510  19.4359290
  17.2352000   6.0200830  19.0295260  17.5045100   7.4922610  19.2576590
  13.8476930   8.1870090  24.8489610  13.0336770   8.6167250  25.1115400
  14.2551130   8.7988500  24.2358660  15.9102370   6.2417780  11.7489880
  16.1851210   7.1496660  11.6209100  15.7213110   6.1780310  12.6851870
  15.8067710   4.1786770  16.7419310  15.4311310   3.4114700  16.3100600
  15.0770830   4.5609470  17.2294240  15.1967330   3.3258290  26.3758830
  14.9653420   3.0971040  25.4756780  15.4571880   4.2457840  26.3303720
  15.0818670   2.4044260  20.0426550  15.6056150   1.9106910  19.4116720
  15.6678090   2.5394620  20.7874120  15.2608390   2.4884130  23.5646100
  14.3111100   2.4547670  23.6791090  15.4421400   3.3984240  23.3295870
  13.9052980  12.9388690  18.3757880  14.5012050  12.6173260  17.6992300
  14.1631130  12.4660510  19.1671150   1.8115550   9.3706600  28.5248510
   1.7685180   8.9999510  29.4062970   1.9426560  10.3084170  28.6650330
   5.5121580  10.9266190  24.1258230   5.2712940  11.1940750  23.2388750
   6.4524220  11.0971920  24.1809090  16.7725740  12.9460570  24.9268870
  16.2784020  13.3429440  24.2096000  16.1639030  12.3209780  25.3206150
  14.4565190  13.5883990  22.2055610  13.9968160  14.3399800  21.8313630
  13.8277650  12.8690460  22.1470410   4.8860910  11.8972230  21.3803740
   5.4025930  11.2859590  20.8552000   5.5358290  12.4001010  21.8714750
   7.6256410  12.7880720  22.2072720   7.9134220  12.5335020  21.3305730
   8.1379630  12.2358080  22.7978290   7.6928770  13.7096820  29.5740920
   8.6196080  13.4741090  29.6176880   7.6779200  14.5368820  29.0926950
  15.9273830  13.2522390  16.5715170  16.1026020  12.5660130  15.9276090
  15.2295400  13.7769440  16.1791840   3.7701480  13.6417230  14.1250480
   4.5020300  13.3576510  13.5774370   4.0295150  13.4030510  15.0149860
   2.9316270   9.7581960  14.1296810   2.3025150  10.2267060  14.6782640
   3.0464100   8.9131180  14.5643000  14.2606330  12.9366680  29.3981960
  15.0531650  12.4415910  29.1907920  14.5539480  13.6156820  30.0057570
   8.5184030   5.5866640   2.1607280   7.7426130   5.1067080   2.4505850
   9.1696960   4.9072290   1.9863440   2.5349860   5.8986450   3.0383040
   1.7034740   5.6435160   3.4379550   3.1430840   5.9697220   3.7740960
   2.5151120   9.9326540   3.2341060   2.8179160   9.0424280   3.0551280
   3.2594710  10.4896760   3.0063310   7.9593020   8.2623830   2.1677440
   7.8901300   7.3213770   2.0066570   8.7212880   8.3525240   2.7400010
   4.4949880   6.6899950   4.6325910   4.1619260   7.3168870   5.2746980
   4.6716560   7.2161830   3.8527580   3.7068980   8.6580750   6.4475090
   4.3242980   9.3331830   6.1659540   2.8462100   9.0668730   6.3562590
  14.6246570  10.1220160   4.3629730  13.9410090  10.7919270   4.3546400
  15.1640860  10.3200810   3.5974590  12.1605310  11.9664290   3.0774910
  12.1732470  11.5626580   2.2097170  11.6080530  12.7411580   2.9736340
  11.5590750   6.8694130   4.4057520  11.9759540   6.6554240   3.5710980
  12.2830570   7.1266920   4.9766140  15.5052850   5.2681350   4.4973760
  14.6771480   5.3374440   4.0223890  16.1003330   5.8535660   4.0289590
   5.0709350   8.5278130   2.4686510   4.7737640   7.9223600   1.7894290
   6.0209170   8.5655440   2.3575870  13.1594960  12.1010000   6.1309610
  12.6825520  12.9082190   5.9382220  12.4756750  11.4488330   6.2835820
   4.1627780   8.2659820   9.1194310   3.2656310   8.4899790   9.3667710
   4.1880650   8.3894760   8.1705710   2.9899000   5.1373140   7.6951680
   2.8506770   6.0095940   8.0639080   2.1080360   4.7945950   7.5499620
   4.7879350  11.0794840   9.9036830   4.7594780  11.4837790   9.0365260
   4.6244320  10.1505200   9.7408430  16.7394170  11.8621940  11.2001000
  17.2153890  12.3404830  11.8790080  17.3601330  11.7939430  10.4746500
  16.1427420   9.0534790   8.3601010  16.2690480   8.8146670   7.4418190
  16.1848800   8.2219330   8.8323090  10.0044160  12.7562790   6.9295820
  10.5188830  12.6670800   7.7318250   9.1613240  13.1022490   7.2223730
  10.1519970   2.6669840  10.0208390  10.4773380   1.8333590   9.6810620
  10.9400300   3.1898360  10.1686720   6.0009370   3.1009770   9.5819140
   5.9052970   2.1604500   9.4319540   6.8441350   3.3224840   9.1867210
   9.9827930   3.4356850   3.6403580   9.2509050   3.9443660   3.9893680
   9.5852270   2.6186830   3.3392360   6.7213290   4.1712830   3.7921480
   7.0883420   3.6971400   4.5382820   6.5318350   5.0454400   4.1329820
   4.5112660   3.2121470   6.1105690   4.2069730   4.0913450   6.3356050
   5.4659120   3.2721260   6.1463130  13.7982430   6.4147820   2.4998930
  14.5181550   6.9103110   2.1095040  13.5964250   5.7365710   1.8552800
   9.1801230   6.4856880   8.3867930   9.1138540   5.5652550   8.1325520
   8.5506370   6.5832320   9.1012570   3.7689510   4.5108450  10.1416600
   3.4689650   4.6565630   9.2444420   4.5400750   3.9513740  10.0489990
   9.1117960   9.3077450   8.1371730   9.1262500   8.3758410   7.9190640
   8.4043060   9.3937210   8.7761500  15.3229170   5.9484790   7.4840310
  14.5977360   6.5413570   7.2869700  15.8504630   5.9408330   6.6853680
   8.5451860  10.9495020   5.2312230   9.1894080  11.1554400   5.9085650
   8.9081300  10.1883420   4.7783080   9.8183940   8.9527370   3.9489680
  10.4606170   8.2520530   4.0621850  10.3433290   9.7325810   3.7686570
  11.5921560   9.7522270   7.1525740  11.9277800  10.3388960   7.8303660
  10.6721900   9.6214980   7.3823530   7.4210140   9.8013600  10.3213800
   7.1007010   9.0822840  10.8659490   6.7468500  10.4768670  10.3949860
   7.5965730   2.6879350   5.9088570   8.0950980   3.1625170   6.5740420
   7.7388680   1.7642870   6.1158600  10.4120620   8.7046490  10.6810700
   9.8058780   8.7278090   9.9406450  10.1074730   7.9729530  11.2177950
  11.8420990  12.4326780   9.2920110  12.7942740  12.3484800   9.2420350
  11.6949210  13.0968490   9.9653900   6.3491740   6.4911070   9.2106860
   5.5837410   7.0596070   9.1261530   6.5307700   6.1987280   8.3175090
  13.4915090   8.2216400   9.7681880  14.2324560   8.5592160   9.2649340
  12.7287770   8.3908460   9.2151650  12.1660750   6.2731230   8.3037090
  12.5801770   6.4276310   9.1527510  11.2311750   6.3986450   8.4662870
  12.6382920   3.6127390  10.3076240  13.2203690   2.8579710  10.2196720
  12.8144690   4.1434830   9.5307720   6.9275980   6.2251710   6.2733020
   7.3464090   7.0684440   6.1009260   6.0084610   6.3623750   6.0439800
   9.2639880   3.9567890   7.6570860   9.3836090   3.3609030   8.3965700
  10.1233880   3.9937580   7.2372160  11.6027780   4.5105080   6.2333370
  11.0763000   5.0347700   5.6298510  11.9459120   5.1432470   6.8643100
   4.7783400  12.5304720   7.3890750   4.2404490  13.2550780   7.0699450
   5.0317360  12.0535060   6.5988090   7.6345610  13.7655930   7.6477400
   7.5604310  14.6691070   7.9549770   6.7324450  13.4467830   7.6199470
  15.1625290  11.4618110   7.9769960  14.5627280  11.5210670   7.2333880
  15.2919190  10.5223090   8.1066810  13.8476930   8.1870090   6.0746120
  13.0336770   8.6167250   6.3371910  14.2551130   8.7988500   5.4615170
  15.1967330   3.3258290   7.6015340  14.9653420   3.0971040   6.7013290
  15.4571880   4.2457840   7.5560230  15.2608390   2.4884130   4.7902610
  14.3111100   2.4547670   4.9047600  15.4421400   3.3984240   4.5552380
   1.8115550   9.3706600   9.7505020   1.7685180   8.9999510  10.6319480
   1.9426560  10.3084170   9.8906840   5.5121580  10.9266190   5.3514740
   5.2712940  11.1940750   4.4645260   6.4524220  11.0971920   5.4065600
  16.7725740  12.9460570   6.1525380  16.2784020  13.3429440   5.4352510
  16.1639030  12.3209780   6.5462660  14.4565190  13.5883990   3.4312120
  13.9968160  14.3399800   3.0570140  13.8277650  12.8690460   3.3726920
   4.8860910  11.8972230   2.6060250   5.4025930  11.2859590   2.0808510
   5.5358290  12.4001010   3.0971260   7.6256410  12.7880720   3.4329230
   7.9134220  12.5335020   2.5562240   8.1379630  12.2358080   4.0234800
   7.6928770  13.7096820  10.7997430   8.6196080  13.4741090  10.8433390
   7.6779200  14.5368820  10.3183460  14.2606330  12.9366680  10.6238470
  15.0531650  12.4415910  10.4164430  14.5539480  13.6156820  11.2314080
  71.7553130  65.5095930  78.4106670  90.0000000  90.0000000  90.0000000
