Cpptraj Generated Restart                                                       
 6216  4.0000001E-01
  90.0505447 180.3749695  24.6449318  91.0164337 180.4078674  24.3515606
  90.0146942 179.4044800  24.9224014  89.8589859 180.9415283  25.4588184
  89.1479340 180.7189636  23.4513245  88.1106796 180.5631256  23.7478180
  89.3657074 182.2670135  22.9974842  90.4257965 182.5007629  23.0958824
  89.0243301 182.3892212  21.9695625  88.4833374 183.1676025  23.8859730
  87.4422531 182.9847107  23.6199322  88.7170563 182.9358521  24.9250908
  88.8593140 184.9622192  23.6194859  87.9374847 185.1669464  22.0366383
  86.8810959 185.1046448  22.2979183  88.0190048 186.1853638  21.6568069
  88.1451569 184.3558044  21.3387775  89.3885422 179.7389984  22.3011093
  90.4750366 179.1980286  22.1715622  88.3221664 179.3909760  21.6156349
  87.4476547 179.8549194  21.8158321  88.4031830 178.3469391  20.5562706
  88.8832397 177.4941864  21.0363216  86.9774246 177.8417511  20.2901535
  86.2449722 178.6146851  20.5228977  86.6559143 177.2329407  18.9051304
  87.0467911 176.2154388  18.9003658  85.5803299 177.1652832  18.7419205
  87.0554276 177.8079529  18.0697594  86.6690063 176.7950439  21.3289433
  85.9496231 176.1027069  20.8916149  87.5417938 176.1669312  21.5073605
  86.1208496 177.2442932  22.6918221  85.2934875 177.9274139  22.4996834
  85.8025742 176.3582611  23.2411594  86.8949890 177.8513031  23.1612377
  89.2115021 178.7545166  19.3021736  89.3739700 179.9280701  19.1004696
  89.7809525 177.8662262  18.5235958  89.7887650 176.8976593  18.8097935
  90.3952408 178.2354889  17.1995029  90.0560379 179.2103729  16.8493233
  91.9137650 178.4810028  17.3548851  92.2998581 178.6990967  16.3591595
  91.9907379 179.3075409  18.0612907  92.6898422 177.2619629  17.9017124
  92.2742462 176.1387177  17.8464355  93.8251038 177.4844666  18.5091152
  94.3905029 176.7041168  18.8115807  94.2487488 178.3995667  18.5658951
  90.0323868 177.3257141  16.0232010  90.4646683 177.5362396  14.8997107
  89.2228317 176.3012848  16.2561321  89.1619110 176.0099182  17.2212696
  88.6948471 175.3259735  15.3165112  89.5192795 174.9151001  14.7337780
  87.9071350 174.1726532  15.9921112  88.5039291 173.8291779  16.8370762
  86.9868698 174.5452271  16.4419994  87.5284805 173.0085602  15.1518421
  88.5215378 172.0060120  14.8214607  89.5647430 172.1836853  15.0372334
  88.1460114 170.8443146  14.1470137  88.8277130 170.0075226  14.1086502
  86.8070526 170.6309204  13.8598270  86.4369431 169.7057648  13.4432926
  85.8444061 171.6593018  14.0848064  84.8025818 171.4803314  13.8634720
  86.2161255 172.8981018  14.6443634  85.5181732 173.7089081  14.7921429
  87.6570969 175.9736786  14.3434372  86.7881012 176.7674561  14.7551765
  87.7539825 175.6923065  13.0544596  88.5117340 175.0854187  12.7759018
  86.8709793 176.2099609  11.9977608  86.5487366 177.2203217  12.2496214
  87.6066666 176.3011780  10.6986513  88.4947891 176.9174957  10.8382921
  87.9548416 175.3440857  10.3102570  86.7768707 176.9269104   9.5791626
  85.5380402 176.8985748   9.7119141  87.3839111 177.3409424   8.5903292
  85.6478119 175.2746429  11.9626408  85.7158661 174.0985107  11.5406523
  84.5544662 175.6759186  12.6202230  84.6195297 176.6269379  12.9540300
  83.2979813 174.9168854  12.8053379  83.5350037 174.0805054  13.4629011
  82.2947693 175.7535095  13.6029425  81.2787476 175.3822937  13.4687796
  82.6805191 175.8380127  15.0658731  83.6001740 176.4167633  15.1518011
  81.8766937 176.3878479  15.5554075  82.7862930 174.8265533  15.4580965
  82.3666306 177.1262665  13.1470671  82.0181808 177.2188873  12.2573452
  82.6346207 174.4749908  11.5091476  81.6486206 173.7619934  11.5937281
  83.1835709 174.7879791  10.3161030  83.9190140 175.4802246  10.3200207
  82.8369980 174.2202606   8.9805231  81.7726135 173.9857330   8.9943552
  83.0770187 175.2406616   7.8419676  82.4808960 174.9346771   6.9822488
  82.6651001 176.2087860   8.1268396  84.4370804 175.3650208   7.6192088
  84.7034988 176.1481476   8.1063738  83.5362320 172.8888245   8.6498547
  83.0018768 172.0325012   7.9385176  84.6457291 172.5237122   9.3112736
  85.1199875 173.2980957   9.7534513  85.4096603 171.2141266   9.1697559
  85.8441696 171.0937500   8.1773777  86.5667725 171.3005524  10.1142540
  86.1955795 171.6459503  11.0791464  87.0219116 170.3567047  10.4144058
  87.6668015 172.3279877   9.6416454  87.3176498 173.3525085   9.5129080
  88.6528854 172.3773804  10.7836370  89.1614304 171.4163361  10.8603048
  89.3212662 173.2016296  10.5346899  88.1034164 172.5647736  11.7061682
  88.3749542 171.8582001   8.3522644  87.6287460 171.8711700   7.5578403
  89.1061783 172.6087494   8.0521269  88.7723236 170.8664246   8.5681114
  84.5824738 169.9645844   9.3466206  85.0327225 168.8723602   8.9217005
  83.4246979 169.9744415  10.0620823  83.0741577 170.8685455  11.0991678
  82.2810287 171.5748749  10.8538914  83.9092484 171.4984741  11.4056664
  82.6151886 169.9946442  12.2695675  82.0578766 170.5864258  12.9957209
  83.4668732 169.4232941  12.6387424  81.7845230 168.9652100  11.4421310
  80.7714920 169.3419189  11.3008146  81.7460785 167.9918976  11.9312954
  82.4726868 168.8293915  10.0624838  83.0521164 167.9064026  10.0836439
  81.4744720 168.7830353   8.8870773  81.2156448 167.7809143   8.2899675
  80.9145737 169.9384003   8.5337210  81.2068024 170.7752991   9.0177670
  79.8225327 170.0838318   7.5960994  79.2408371 169.2016907   7.8636079
  79.0022812 171.3719940   7.8594165  78.2093506 171.4174347   7.1128936
  78.2796326 171.3926697   9.1599150  79.0511551 171.4232178   9.9292870
  77.5811386 172.2281799   9.2059526  77.6906967 170.4760437   9.1921682
  79.7597122 172.5673981   7.9720974  79.6145859 173.0532837   7.1569571
  80.2030029 170.0953369   6.0719190  79.3053360 169.9503632   5.2445002
  81.5044708 170.1983643   5.8297744  82.0915909 170.3209381   6.6424060
  82.1441422 169.8441162   4.5673118  81.6076736 170.3785553   3.7832992
  83.5987320 170.4000854   4.5522122  84.0887833 170.2691956   3.5874240
  83.5092621 171.4783630   4.6842036  84.2883301 169.9366302   5.7078567
  85.0403214 170.5144653   5.8569055  82.0933228 168.2875671   4.3039765
  82.0546722 167.8703613   3.1312132  82.1362152 167.4427643   5.3930750
  82.0663147 167.8121033   6.3305168  82.1722946 165.9561462   5.3542843
  82.2322159 165.5159760   6.3496599  80.8460312 165.3499146   4.9064164
  80.6954041 165.6514435   3.8698406  81.0127258 164.2757721   4.9873223
  79.6881714 165.6011810   5.8667564  79.4727020 164.8453674   7.0416565
  78.4427795 165.4143066   7.6485672  77.9551773 164.9537659   8.4950581
  77.9511032 166.3910828   6.9070239  77.0651855 166.8483429   7.0688086
  78.7470398 166.5532074   5.8127227  78.5132446 167.1597443   4.9502525
  83.4566269 165.3524933   4.6851463  83.4253082 164.3095703   4.0354867
  84.6020660 166.0278320   4.8993254  84.5438309 166.9379730   5.3333316
  85.9507980 165.5489197   4.2826157  85.7669907 165.6734161   3.2154634
  87.0075378 166.5469208   4.7981009  86.9322433 166.6700897   5.8784990
  87.9881668 166.0861359   4.6791363  86.9107437 167.9110565   4.0807109
  87.1382980 167.8060760   3.0199096  85.8805084 168.2486115   4.1936593
  87.8279877 169.2920074   4.9212756  89.5201111 168.9247284   4.3079829
  89.5433350 168.9510956   3.2185462  90.2109070 169.7153778   4.6008668
  89.8054428 167.9601746   4.7279081  86.3279419 164.1079559   4.5646362
  86.9241714 163.4900665   3.7410331  85.9435349 163.5350800   5.7184615
  85.5386734 164.1790314   6.3829184  86.1821442 162.1119690   5.9686966
  87.2253876 161.8700714   5.7656350  85.7443695 161.7165985   7.3720508
  86.1756821 160.7298431   7.5405340  86.0831833 162.4641876   8.0892773
  84.2419968 161.5275879   7.5411673  83.4475708 162.6431580   7.8488884
  83.7978668 163.6451263   8.0482578  82.0543289 162.4797516   7.8928375
  81.5314026 163.3710938   8.2066631  81.4323425 161.2609711   7.5846071
  80.1251907 161.0691681   7.6755819  79.6194229 161.8631897   7.8635406
  82.2199783 160.1640320   7.2464094  81.7578430 159.2369232   6.9409351
  83.6308212 160.2995148   7.1909866  84.2735977 159.5076294   6.8358240
  85.5178299 161.2033691   4.9851303  86.0651016 160.1371918   4.6647401
  84.3403473 161.6096344   4.4343772  83.9523163 162.5182953   4.6437993
  83.5940857 160.9609375   3.3112464  83.6673050 159.8882446   3.4903347
  82.1336441 161.4476624   3.5166175  81.8835831 161.5592346   4.5716648
  82.1418457 162.4013062   2.9887891  81.0848923 160.5131531   2.8578460
  81.3450012 160.2111359   1.8433363  80.5752869 159.3282471   3.7676723
  80.1420517 159.6756744   4.7055964  79.7942581 158.7358551   3.2910559
  81.4468307 158.7468719   4.0685177  79.7911148 161.3073425   2.5585918
  80.0158234 162.0837708   1.8273054  78.9553223 160.7065735   2.1999447
  79.4504166 161.8406525   3.4460723  84.2787094 161.2415924   1.9748813
  83.8819962 160.6978302   0.9553531  85.4149704 161.9368286   1.9850839
  85.7406769 162.3280792   2.8573983  86.0999374 162.3578796   0.8152814
  87.1650162 162.4761810   1.0145494  85.9755325 161.7006073  -0.0453076
  85.6403198 163.7127991   0.2355229  84.4362335 164.0241394   0.1640434
  86.5778351 164.5206757  -0.2208924  87.5452194 164.2952728  -0.0379754
  86.2270584 165.6644592  -1.1139278  85.3950882 166.2926025  -0.7955521
  87.4660263 166.5808411  -1.0906602  87.0695877 167.5543365  -1.3791625
  87.9381104 166.7290344  -0.1194355  88.4499969 166.1294861  -2.0564690
  88.8746490 165.2984467  -1.8314074  85.8042526 165.2665100  -2.5639591
  85.5577469 164.0594940  -2.7743039  85.8083496 166.2270050  -3.5285726
  86.0548630 167.1627960  -3.2394254  85.8686523 165.9428711  -4.9912305
  85.8131104 166.9057465  -5.4990473  87.2282486 165.2447815  -5.3104348
  87.9820786 165.6878510  -4.6596460  87.1754684 164.2341461  -4.9055243
  87.7505951 165.2036896  -6.7765608  87.4743195 166.1133423  -7.5730104
  88.4371567 164.2266998  -7.1536913  84.6355438 165.1049652  -5.5466318
  84.7905426 164.1704712  -6.3540974  83.4290848 165.3952026  -5.1234078
  83.3738480 166.2354431  -4.5656791  82.1487198 164.8075104  -5.5182700
  82.3381729 163.7725525  -5.8030286  81.1662674 164.8077698  -4.3336029
  80.7541122 165.7881470  -4.0946774  80.3118820 164.2077637  -4.6468358
  81.8240433 164.1403809  -3.0918138  82.1964264 163.1563873  -3.3767564
  82.6475830 164.7393951  -2.7031598  80.7525024 163.8080597  -1.6759244
  79.9733658 162.2279205  -2.1482913  80.7430420 161.4938202  -2.3866189
  79.3265991 161.8733368  -1.3457536  79.3727417 162.3997955  -3.0414953
  81.5316925 165.5244293  -6.7591925  81.8750534 166.6554260  -7.0873270
  80.4989090 164.9094849  -7.4106507  80.2245789 163.9861603  -7.1068273
  79.4728928 165.6188812  -8.2080994  79.9875412 166.3415070  -8.8413887
  78.8032990 164.6442719  -9.2019892  79.5057907 164.0559540  -9.7923193
  78.3688889 163.8374023  -8.6117859  77.7173233 165.2478790 -10.1400414
  76.7857666 165.4695129  -9.6192875  78.0682297 166.1487885 -10.6433592
  77.4120102 164.2876129 -11.3177643  77.3560791 163.0492249 -11.1013727
  77.0544357 164.8246460 -12.3987713  78.5775604 166.3859253  -7.2868404
  77.9594650 165.8012695  -6.4049683  78.3942871 167.7183685  -7.4439001
  78.8693008 168.1520844  -8.2225838  77.3208160 168.4959259  -6.7398977
  76.9101105 168.0224915  -5.8481073  77.9224854 169.8553925  -6.2588534
  78.5925598 170.3988800  -6.9249783  77.0910492 170.5409241  -6.0949297
  78.6727905 169.7532196  -4.9132576  78.1362228 169.1799622  -4.1572313
  79.6422119 169.2818909  -5.0750403  79.0007401 171.1548309  -4.3210282
  78.2820892 172.1926727  -4.5023465  80.0490646 171.3822327  -3.6051986
  76.1293411 168.8111115  -7.5978861  76.2373581 169.3082123  -8.7269678
  74.9669342 168.3493958  -7.1366930  74.9554901 167.9956207  -6.1907501
  73.7009888 168.6292267  -7.8445206  73.8133240 168.8089752  -8.9137125
  72.6295242 167.5417175  -7.5853176  72.8006287 167.2830200  -6.5403771
  71.6384430 167.9656830  -7.7469053  72.9468689 166.2849579  -8.3742085
  72.6896973 166.1590576  -9.7596731  72.3908005 167.0151520 -10.3463240
  72.9258957 164.9279633 -10.3970747  72.8445587 164.9286346 -11.4740086
  73.3872986 163.7799225  -9.6891680  73.6186600 162.7774200 -10.0175772
  73.5550156 163.9423981  -8.2784081  73.9994965 163.1361542  -7.7137771
  73.4170227 165.1489716  -7.6447344  73.5288162 165.1598816  -6.5705919
  73.1702805 169.9699097  -7.3351483  73.2843628 170.3007050  -6.1612749
  72.5608521 170.6915894  -8.2905264  72.4245682 170.3813629  -9.2419939
  72.1155624 172.1013031  -8.0105677  72.4514847 172.4962158  -7.0517640
  72.6043243 172.9468536  -9.2155762  72.4204636 174.0016785  -9.0115137
  73.6757965 172.7629242  -9.2944946  72.0605698 172.6367950 -10.6303759
  72.2494659 171.4464569 -11.3569736  71.8727417 171.6977844 -12.5992060
  72.0302811 170.9768372 -13.3877525  71.3870773 172.9481201 -12.7377396
  70.9777908 173.3477631 -13.5701294  71.5195465 173.5913239 -11.5171337
  71.3405380 174.6395569 -11.3285046  70.5641937 172.3855286  -7.9391537
  70.1356888 173.3696747  -7.3421211  69.7338409 171.5851746  -8.6826735
  70.0403214 170.8967285  -9.3551540  68.2990723 171.9770508  -8.7891645
  68.1871109 173.0610809  -8.7684269  67.9211807 171.6469116  -9.7567949
  67.4767838 171.4089813  -7.6141410  67.7168961 170.3081207  -7.1345139
  66.5774765 172.2262268  -6.9826670  66.3731613 173.1592255  -7.3111095
  65.8290176 171.6891937  -5.8244853  66.4420395 170.9944153  -5.2503810
  65.4554138 172.8930206  -4.9029303  64.8250580 173.6732483  -5.3295279
  64.9525452 172.4081573  -4.0661831  66.6953125 173.6595001  -4.3360052
  67.3146820 173.9964447  -5.1672430  66.3520432 174.5592499  -3.8253903
  67.5209198 172.8299561  -3.3220685  67.0138168 172.6381683  -2.3764670
  67.8045807 171.9178314  -3.8471048  68.7983093 173.4532928  -2.9725666
  69.5988312 173.0178223  -3.4080310  69.0320282 174.5436401  -2.2462952
  68.1355972 175.2010040  -1.6607078  67.2158127 174.8199005  -1.4908234
  68.3294373 176.0746307  -1.1924051  70.2170105 175.0404816  -2.1814487
  71.0029373 174.6042938  -2.6420574  70.4566574 175.8572693  -1.6378373
  64.5257492 170.8340149  -6.1020832  63.8741341 171.0014954  -7.1188402
  64.3084106 169.8188324  -5.2971931  64.9582291 169.6870728  -4.5353012
  63.1492500 168.9627075  -5.3722186  62.6746788 168.9788513  -6.3533554
  63.5419693 167.4184723  -5.0592337  63.8608971 167.2422638  -4.0319376
  62.3552933 166.4996643  -5.4994092  61.8191299 166.9742889  -6.3212104
  62.7307549 165.4979553  -5.7084737  61.7123375 166.3387756  -4.6340690
  64.6405106 167.0963135  -5.9288869  64.5468445 166.1692047  -6.1597490
  62.1003456 169.4331512  -4.3443079  62.2857208 169.3076630  -3.1637013
  60.9095802 169.7879028  -4.7687621  60.7828140 169.8083038  -5.7705674
  59.7400093 169.9320831  -3.8791282  59.8077965 169.1640930  -3.1086125
  59.6169968 171.3158875  -3.2991192  59.5560913 172.0133667  -4.1345315
  58.6629105 171.4647064  -2.7934735  60.7141876 171.7167511  -2.3605978
  61.6952934 171.5265961  -2.7957690  60.5655518 173.2010498  -2.0656769
  59.5922089 173.5035706  -1.6794423  61.3260040 173.6185608  -1.4057525
  60.6569443 173.8237457  -2.9556153  60.5505371 171.0445709  -1.0108058
  61.0142136 170.0701294  -1.1643474  61.1160088 171.6221008  -0.2795006
  59.5141983 170.9631042  -0.6829852  58.3651123 169.6365509  -4.5315404
  58.1900177 170.0480652  -5.6752219  57.4722672 168.9294281  -3.8784049
  57.7592735 168.6045074  -2.9661820  56.0525856 168.6215668  -4.2649755
  56.0062866 168.5847473  -5.3533702  55.6887321 167.2226715  -3.7658038
  55.5122108 167.1688385  -2.6915390  54.8271828 167.0417938  -4.4085503
  56.6747437 166.1517639  -4.0481367  57.7540855 165.8172302  -3.2557802
  58.5452271 165.0341187  -3.9641697  59.4585228 164.6103363  -3.5733998
  58.0249710 164.7787170  -5.1317196  58.3536606 164.0940552  -5.7975278
  56.8301620 165.4645691  -5.1866760  56.2014885 165.6251678  -6.0500288
  55.0666199 169.6644287  -3.6755316  55.3691216 170.3981781  -2.7179677
  53.8605423 169.6931610  -4.2035971  53.6850853 169.0928345  -4.9966450
  52.7910576 170.5689697  -3.7587874  53.1478195 171.5976105  -3.7065306
  51.6322823 170.6181641  -4.8230801  51.0263710 169.7120972  -4.8232141
  50.9213028 171.4020081  -4.5619078  52.0916901 171.0337677  -6.2192254
  52.7295837 172.1227112  -6.2910166  51.7623558 170.2939301  -7.1994781
  52.2870560 170.0881348  -2.3878021  52.4381790 168.8980103  -2.0679455
  51.7119713 171.0098419  -1.5701693  51.6633263 171.9520569  -1.9306647
  51.2937431 170.6317902  -0.2532045  52.1921921 170.2542267   0.2349862
  50.8559837 171.8271484   0.5809401  50.1404762 172.3761139  -0.0312509
  50.3721352 171.5315094   1.5118520  52.0038567 172.7803345   1.0150340
  53.1461105 172.3195801   1.2427384  51.7535973 173.9993134   0.9716213
  50.2026215 169.5748901  -0.2197900  49.3112030 169.6014099  -1.0852045
  50.3778648 168.6296692   0.7306043  51.0331421 168.8603363   1.4637526
  49.5428162 167.4429779   0.9262569  50.1125603 166.8045807   1.6015059
  48.1379547 167.8188934   1.5185559  47.6047516 168.5086212   0.8642908
  47.5245819 166.9180603   1.4989504  48.1952629 168.3756561   2.9733381
  48.6819572 167.6108704   3.8516545  47.7200623 169.5077515   3.2265844
  49.3472633 166.5746918  -0.3543552  48.3753395 165.8878174  -0.5642919
  50.2537193 166.7256165  -1.2955552  51.0250740 167.3733673  -1.2212009
  50.2582092 165.7795410  -2.4059510  49.2884750 165.8244629  -2.9016230
  51.1649551 166.1567383  -3.5415521  51.0864792 165.3719025  -4.2938619
  50.7749519 167.0755615  -3.9794581  52.5253258 166.2115936  -3.1846077
  52.6646233 167.0346222  -2.7104692  50.4844894 164.2477112  -2.0431976
  51.3103409 164.0227203  -1.1636083  49.7722702 163.3284912  -2.6748600
  48.9362755 163.6064606  -3.1687758  49.9845047 161.8880157  -2.6061690
  50.1701584 161.6590881  -1.5567784  48.7593460 161.0647888  -2.9600790
  47.8449059 161.5722351  -2.6528351  48.5076752 160.9550934  -4.0149384
  48.8745728 159.4370575  -2.1316237  48.0560455 158.7539825  -2.9367986
  51.1791573 161.4642487  -3.5439372  51.2369652 161.7931671  -4.7392516
  52.1459007 160.7085876  -2.9225426  52.0271263 160.5255432  -1.9363945
  53.3922005 160.3274536  -3.5720916  53.2635384 160.4555206  -4.6468687
  54.5331879 161.2466125  -3.2942033  54.8756294 160.9768066  -2.2951834
  55.3256531 160.9374542  -3.9757652  54.3220634 162.7929077  -3.4257116
  53.4713554 163.0490265  -2.7942090  55.1849289 163.3601532  -3.0767255
  54.0970345 163.1264648  -4.8270683  54.3502312 162.3566742  -5.8046188
  53.6892433 164.3807983  -5.1336102  53.4296494 164.6290283  -6.0775852
  53.5205040 165.0471191  -4.3935862  53.7707367 158.8357239  -3.3026571
  53.3030052 158.2662659  -2.3070629  54.7021828 158.2683258  -4.0692949
  55.0230522 158.7119904  -4.9180088  55.3878059 157.0135040  -3.7377486
  55.1983681 156.8292999  -2.6802604  54.7122040 155.7620392  -4.4538569
  53.6358871 155.7416840  -4.2828841  54.8448296 155.9042816  -6.0216274
  55.8996735 155.8965454  -6.2961369  54.4135551 155.0379181  -6.5231223
  54.4556007 156.8821106  -6.3052821  55.3577728 154.4498901  -3.9923131
  55.3791580 154.4343719  -2.9026330  54.6699753 153.6491852  -4.2641683
  56.3337440 154.2494659  -4.4343762  56.8931236 157.0455322  -3.8733115
  57.3598480 157.4251251  -4.9382191  57.6364174 156.7110138  -2.8266628
  57.2060509 156.3762817  -1.9764682  59.0470886 157.0761108  -2.7540083
  59.3889046 157.2992249  -3.7646904  59.2377586 158.4599915  -2.0199196
  58.8437042 158.4226227  -1.0043298  60.6485367 159.0343628  -2.0759556
  60.9098015 159.3118286  -3.0971539  60.7505379 159.9262848  -1.4577636
  61.3771858 158.3117218  -1.7086005  58.3369904 159.6222229  -2.6486580
  58.6127853 159.7416687  -3.6964030  57.2942543 159.3575592  -2.4732914
  58.5085220 160.9914551  -2.0675032  59.4105492 161.4675598  -2.4519196
  57.7108269 161.6591949  -2.3929355  58.3704758 160.8945007  -0.9906363
  59.9688530 155.9477692  -2.1490946  59.5663681 155.3301544  -1.1497366
  61.1240234 155.5525360  -2.7592666  61.8357239 156.1412048  -3.8713486
  62.0157166 157.1931610  -3.6497972  61.2649117 156.1110840  -4.7994461
  63.2094612 155.4167328  -4.0333648  63.9878693 155.9994659  -3.5408049
  63.5756836 155.3396759  -5.0571041  63.0188103 154.1015625  -3.2958462
  63.9290276 153.7590027  -2.8036532  62.7284622 153.3122406  -3.9892106
  61.8910828 154.4063263  -2.2545705  61.1922188 153.5773926  -2.1425760
  62.5069847 154.7320404  -0.8646174  62.7841568 155.9027405  -0.5417708
  62.7941284 153.6856995  -0.0815576  62.5740776 152.7874146  -0.4874844
  63.3649635 153.7359619   1.2871195  63.7384338 154.7356262   1.5091459
  62.2685852 153.2827301   2.3500121  62.0368919 152.2327728   2.1711833
  62.8272438 153.3269806   3.7935493  63.0971832 154.3381042   4.0982637
  62.1452255 152.8688354   4.5098219  63.7202835 152.7029266   3.8271537
  60.9575882 154.0304260   2.2514341  60.4610023 153.7225189   1.3312770
  60.2762070 153.7677765   3.0606518  61.2068176 155.0889893   2.3251259
  64.5828018 152.8123169   1.3972961  64.3822556 151.6193695   1.6388649
  65.7553482 153.3692780   1.5816152  65.9621353 154.3299255   1.3481377
  66.9589005 152.5559082   1.9136111  67.1118698 151.8562622   1.0919154
  68.2029419 153.4751282   1.9017830  67.8979263 154.3436584   2.4854860
  68.9675827 152.8774719   2.3980043  68.7483139 153.8219757   0.4631002
  67.9249268 153.9923859  -0.2305161  69.5371246 155.1712341   0.4306828
  70.2915497 155.1893921   1.2172035  69.9741974 155.2811584  -0.5617840
  68.7704010 155.9257355   0.6066691  69.8060379 152.7628632  -0.0199341
  69.3472443 151.7964172   0.1888563  70.1367569 152.8820496  -1.0516907
  70.6793060 152.7597198   0.6323654  66.8177719 151.8262787   3.2313726
  66.6276932 152.4473572   4.2509899  66.8717270 150.4943085   3.2694354
  67.0138168 149.7021027   2.1072555  67.9195175 149.9929352   1.5750605
  66.1558456 149.9105835   1.4681028  66.9892654 148.2786102   2.6756446
  68.0038605 147.9404449   2.8862422  66.4795380 147.6079559   1.9838978
  66.1680832 148.2898712   3.9442747  66.4919662 147.5670624   4.6931086
  65.1019821 148.1952209   3.7379308  66.5210342 149.7157135   4.4518480
  65.6228180 150.1295319   4.9101682  67.6153412 149.5622711   5.4862113
  67.3088684 149.1800385   6.6287060  68.8881302 149.8093872   5.1901112
  69.1803360 149.8436432   4.2239108  69.8949890 150.0054626   6.2707119
  69.6272736 149.3521271   7.1011300  71.2486115 149.5672913   5.7094822
  71.4451065 150.0550842   4.7547307  71.9543839 149.7754059   6.5136466
  71.3298035 148.0563965   5.4046159  70.6907959 147.4390411   4.3346705
  70.8235397 146.0863190   4.4989805  70.3139877 145.3341980   3.9149635
  71.4684906 145.8679352   5.6709089  71.6888275 144.9334869   5.9845209
  71.7757034 147.0720215   6.2367706  72.1659012 147.2221832   7.2325573
  69.9447174 151.3070221   7.0360804  70.7267914 151.5267639   7.9703794
  69.0511017 152.1871185   6.6196384  68.5531464 151.9310150   5.7790699
  68.7630692 153.4918060   7.3061090  69.6935425 153.8309326   7.7614298
  68.2628174 154.6479340   6.3795223  67.3718338 154.3867340   5.8085399
  67.9840317 155.9071198   7.1247663  68.9446869 156.2485046   7.5103798
  67.6935043 156.6250000   6.3577285  67.1772003 155.7899017   7.8482194
  69.2703705 154.9080811   5.2598095  69.5534363 153.9836273   4.7564363
  68.6588211 155.4951019   4.5745978  70.1298370 155.5029602   5.5688992
  67.7029877 153.2492676   8.4386616  66.6022568 152.8721313   8.1705666
  67.9697037 153.7426910   9.6479836  68.9513168 153.8356018   9.8668289
  67.0971603 153.5443878  10.8263855  66.0710678 153.3209381  10.5343208
  67.5993805 152.3249664  11.5872402  68.6692123 152.5207214  11.6596098
  67.0907135 152.3250885  12.5512743  67.4318466 150.9419098  10.9776001
  66.3696365 150.7311096  10.8536329  67.9029236 150.9161530   9.9949884
  68.1377945 149.6143494  11.9954071  69.1203384 148.6631622  10.8376055
  69.8742676 149.3049622  10.3817625  69.5432358 147.7932129  11.3400211
  68.5596237 148.3289032   9.9646959  66.9164734 154.8220978  11.6751051
  66.0018845 154.8619690  12.5465174  67.8089447 155.8136749  11.5388031
  68.4549713 155.7802582  10.7631521  67.6734848 157.1206360  12.2288332
  67.4668579 156.8613434  13.2671824  68.9569016 157.9912109  12.1514864
  68.7773590 158.9325867  12.6707973  70.1081238 157.3322144  12.9337683
  70.3537674 156.3719482  12.4802837  71.0343399 157.9006500  13.0179691
  69.7884903 157.1331482  13.9566612  69.4497528 158.2987061  10.7562513
  68.6707001 158.6357880  10.0724688  70.2069244 159.0756989  10.8616085
  69.9046936 157.4117432  10.3153181  66.4593353 157.8934937  11.6536226
  66.1048660 157.7082367  10.4965782  65.9165649 158.8006287  12.4311304
  66.0028915 158.7930756  13.4374056  64.8930969 159.7317200  11.8955927
  64.3321762 159.2238464  11.1110334  64.0320969 160.0235901  13.1438026
  63.5251808 159.1065521  13.4441099  64.6951904 160.2782745  13.9705715
  62.9052467 161.1210632  12.9847136  63.2047005 162.0618439  12.5228167
  62.0712967 160.7128143  12.4137821  62.2245255 161.6916046  14.5264730
  62.0809822 160.1569366  15.4983339  63.0193138 159.7598267  15.8855572
  61.5370941 160.5345612  16.3641758  61.4959450 159.3772430  15.0105801
  65.4886551 161.0662842  11.3694296  65.9617233 161.8504639  12.1982422
  65.5400543 161.2554474  10.0780277  65.2188797 160.5457611   9.4351492
  65.9642258 162.4835968   9.5255432  66.9055481 162.6891022  10.0352278
  66.1596451 162.2922058   7.9815207  66.8660736 161.4724884   7.8507271
  65.2066422 162.0297241   7.5221882  66.7192001 163.5200653   7.2383146
  66.1634445 164.4264984   7.4783549  68.2261047 163.6956482   7.5120039
  68.7766037 162.7578735   7.4369831  68.7287674 164.3785553   6.8271103
  68.4168396 164.1499481   8.4842873  66.6772614 163.2387390   5.7257881
  65.6749649 163.1754761   5.3021102  67.1802216 164.0447998   5.1915774
  67.1713104 162.2694702   5.6584163  64.9213638 163.6038055   9.8383389
  63.7602425 163.4158630   9.5340023  65.3306961 164.7431793  10.3492012
  66.2958145 164.8678284  10.6195784  64.5908661 166.0492859  10.4806509
  63.5353127 165.7939911  10.3871908  64.9363708 166.7379303  11.8030510
  66.0214386 166.8377075  11.8309326  64.4264297 168.2036285  11.9737587
  63.3446083 168.2322693  11.8435678  64.7080002 168.5357819  12.9730053
  64.9539871 168.7460175  11.1891518  64.5831985 165.9536896  13.0408230
  65.1409149 165.0274048  12.9027987  65.0316925 166.3908997  13.9329033
  63.1193733 165.6960144  13.2331314  62.7493591 165.1741638  12.3505993
  62.8994637 165.0448303  14.0791273  62.5181999 166.5935669  13.3783188
  64.9129486 166.9502869   9.2663097  66.0492020 166.8399811   8.8162508
  64.0171509 167.7079163   8.6974106  62.5944061 167.8069611   8.9567766
  62.4096832 168.3865204   9.8612595  62.1009445 166.8396149   9.0507488
  62.0088577 168.4793091   7.6856565  61.0323944 168.9397888   7.8359571
  61.8559113 167.7063904   6.9324622  63.0937157 169.4689941   7.3672619
  62.9677963 170.2585449   8.1081123  63.1462021 169.9090271   6.3714118
  64.3340225 168.7018585   7.6432581  64.5747223 168.1547546   6.7317533
  65.4777603 169.6521149   7.8826647  65.8538132 169.9426575   9.0331297
  66.1476669 170.1834412   6.8534403  65.7364120 170.0908203   5.9356232
  67.3480301 171.0334473   6.9850521  67.5751419 171.5558624   6.0557489
  67.0582657 171.8148193   7.6876144  68.6153870 170.3421326   7.4721708
  69.7036514 170.8729095   7.2483530  68.5228729 169.2150726   8.2320681
  67.5558167 169.0144043   8.4433279  69.5957336 168.3198090   8.5926094
  70.4088058 168.8801422   9.0541716  68.9564133 167.1530304   9.4810820
  68.2441483 167.5419464  10.2087765  68.5331726 166.4391022   8.7744961
  70.0182648 166.4810638  10.3960180  70.6716309 165.8425446   9.8014441
  70.5557175 167.2033844  11.0104141  69.4764023 165.4786987  11.3577623
  68.2590942 165.3948975  11.5782385  70.3130569 164.6141052  11.9738045
  70.0561371 163.9899902  12.7251778  71.2861023 164.6234436  11.7032614
  70.2576141 167.6596680   7.3759499  69.6125336 167.0930634   6.4789710
  71.5731888 167.6944885   7.3893981  72.0814285 168.1262970   8.1479015
  72.4731827 167.0434113   6.3924146  72.0304108 167.0400696   5.3964014
  73.7921600 167.8433075   6.2876163  74.3021851 167.7609100   7.2474060
  74.7213898 167.3370361   5.1555805  74.2482910 167.5337219   4.1935019
  75.7266541 167.7552490   5.2069569  74.8520355 166.2565155   5.2148938
  73.6056137 169.1972504   6.0308170  74.4797821 169.5645905   5.8808184
  72.7016907 165.6023865   6.7513442  72.6702118 165.2404785   7.9071970
  72.7905197 164.6931000   5.7784309  72.7350693 165.0642700   4.8407397
  72.8807373 163.2454376   5.9840941  73.0781937 162.9852295   7.0240016
  71.3911972 162.7260132   5.7130523  70.7539215 163.0554962   6.5336761
  71.0335388 163.1888123   4.7932682  71.3176117 161.1417236   5.5920792
  71.8903961 160.8176575   4.7231698  71.7573547 160.3350220   6.8417134
  71.2266235 160.6796417   7.7292151  71.7039490 159.2573547   6.6871462
  72.8296661 160.4786987   6.9744391  69.8753204 160.7686768   5.3288341
  69.5208130 161.1877289   4.3871121  69.7550354 159.6864014   5.2807083
  69.1688538 161.0015869   6.1255541  73.9836273 162.6351471   5.0251813
  73.7203369 162.4026489   3.8693621  75.1722107 162.3571625   5.5188718
  75.7166824 162.7623749   6.7962661  75.0884323 162.3689728   7.5954199
  75.8881989 163.8298798   6.6579456  77.0659180 162.0696106   6.9107494
  76.9253769 161.1896973   7.5385127  77.7042236 162.7817078   7.4337959
  77.4895706 161.7785492   5.5032473  78.2355347 160.9900970   5.4033127
  77.8367310 162.7140656   5.0646300  76.1468964 161.5509186   4.8293843
  76.1706619 161.7617798   3.7602375  75.6991882 160.1373444   4.9499774
  75.1662064 159.6735535   5.9908671  75.9648438 159.3615417   3.9084866
  76.3781357 159.8077087   3.1021144  75.7537079 157.8906097   3.7391350
  75.7407913 157.4819031   4.7495246  74.3789749 157.6555176   3.0187900
  74.4347153 158.2390900   2.0998578  74.3671570 156.5875244   2.8011250
  73.0806046 157.9755707   3.7650795  73.2838516 158.9929657   4.0993094
  71.8110962 158.0400238   2.9114151  71.7892685 157.0927734   2.3725829
  71.0004730 158.1829224   3.6259632  71.8467407 158.8478088   2.1804335
  72.7492447 156.9146423   4.8934193  73.6889877 156.5654755   5.3213143
  72.1664352 157.3769531   5.6900930  72.3032608 155.9924164   4.5209856
  76.8909302 157.2946472   2.9075918  77.4688416 157.8854828   2.0084860
  77.3551407 156.0665283   3.1758447  76.9414444 155.6254425   3.9847975
  78.1762772 155.2270508   2.3263223  78.2301254 155.7212677   1.3563033
  79.5910568 154.9673767   2.9812050  80.0369949 155.9411469   3.1837101
  79.4899826 154.5498962   3.9830000  80.5061874 154.1587219   2.0986869
  80.0710831 153.1598358   2.0671651  80.5170212 154.5127716   1.0678470
  81.9289780 154.0710602   2.6352687  82.3434143 154.9450684   3.3995056
  82.8044128 153.2223206   2.1622770  83.7473297 153.2727356   2.5206964
  82.5050964 152.5045013   1.5178756  77.4349899 153.9287109   2.0339389
  77.2466812 153.1646423   2.9358146  77.1162949 153.6379700   0.7683408
  77.3680725 154.3110809   0.0586679  76.2641602 152.5866241   0.3635181
  75.8581238 152.0233002   1.2036940  75.0497284 153.1308899  -0.3778094
  75.3837814 153.6211548  -1.2922184  74.4258499 152.3100281  -0.7314739
  74.1856537 154.0904083   0.4388599  74.8560333 154.9345856   0.6002391
  73.0644150 154.7907257  -0.3101007  72.3445129 154.1069641  -0.7598991
  72.6008682 155.4265594   0.4441819  73.4905930 155.3721771  -1.1276549
  73.6349487 153.5589600   1.7885227  74.4458847 153.3232574   2.4776707
  72.9945374 154.2882080   2.2846923  73.0441666 152.6592407   1.6165268
  77.0573044 151.6101685  -0.4813514  77.4435425 151.9284515  -1.6118772
  77.2401505 150.4057465   0.0331828  76.9928360 150.2146301   0.9936061
  78.0529633 149.3493958  -0.5426646  78.5059891 149.5762939  -1.5077512
  79.2714310 149.1143646   0.3889601  79.9042892 148.3306885  -0.0275203
  79.7988434 150.0678711   0.4168876  78.8512878 148.7062683   1.8387849
  78.4932175 149.6807251   2.7490394  78.6728745 150.7091827   2.4726210
  78.1303635 149.3343048   4.0794444  77.7460480 150.0906525   4.7477498
  78.1148529 147.9748383   4.4801922  77.7933807 147.7096100   5.4765425
  78.4369812 147.0051880   3.5002484  78.2483826 145.9759064   3.7674730
  78.6679611 147.3617554   2.1777375  78.6522675 146.6524506   1.3634703
  77.3012466 148.0369415  -0.8471688  77.7255554 147.2978516  -1.7616645
  76.1327438 147.8199768  -0.1843738  75.8370514 148.4092407   0.5807604
  75.3025970 146.7124481  -0.6109102  75.9902649 145.8668671  -0.6252778
  74.1128769 146.3847351   0.2887933  73.3906555 147.2001495   0.3286431
  73.6448593 145.4903870  -0.1225491  74.6111298 145.9986725   1.6690847
  74.9808960 144.6958466   2.0428333  75.0639038 144.6707306   3.4005861
  75.5888519 143.9035034   3.9502952  74.6427155 145.8368683   3.8767505
  74.6864471 146.1167145   4.8462234  74.2314453 146.5995483   2.8388677
  73.6742249 147.5245361   2.8560512  74.7587662 146.9355469  -2.1052878
  74.1996384 148.0151825  -2.3397942  74.7843094 145.8978729  -2.9860029
  75.3512955 144.5550079  -2.8584526  74.9969788 144.1203156  -1.9237895
  76.4247513 144.7071991  -2.7460384  74.9689407 143.7437286  -4.0503411
  73.9562912 143.3947449  -3.8482325  75.6792145 142.9240875  -4.1589646
  74.8943634 144.8242798  -5.1927814  73.9977951 144.6055603  -5.7728047
  75.7923737 144.8217773  -5.8105831  74.6766205 146.1958923  -4.4706564
  75.4241180 146.9429626  -4.7375655  73.2981873 146.7877045  -4.7957826
  73.2197876 147.9271240  -5.3553801  72.2336578 146.1900330  -4.2775021
  72.3210220 145.3228912  -3.7670610  70.8852158 146.7863312  -4.3690219
  70.7268295 146.8917542  -5.4422879  69.8189240 145.7859344  -3.7575901
  68.8724213 146.2131195  -4.0888715  70.0157166 144.8662415  -4.3085461
  69.6885529 145.6392975  -2.2919130  69.6718979 146.6475220  -1.8780019
  68.6917267 145.2979736  -2.0127256  70.7626190 144.7598572  -1.6054010
  71.7756271 144.4437561  -2.1910083  70.5616074 144.4375916  -0.2903385
  71.2836609 143.9745026   0.2428474  69.6858139 144.6468811   0.1671387
  70.8045273 148.2288666  -3.8323693  69.9871826 149.0467682  -4.3747959
  71.4838943 148.6032867  -2.7850709  72.1183853 148.0024719  -2.2785687
  71.3860245 149.9767914  -2.2722201  70.3631821 150.3517914  -2.2366970
  72.0530319 150.0118866  -0.9113740  73.0997543 149.7143402  -0.9740937
  72.0755081 151.0596771  -0.6118233  71.2831650 149.1578217   0.1317232
  70.2144699 149.2194672  -0.0736784  71.5911255 148.1152496   0.0523141
  71.5103607 149.7291565   1.4927984  72.7260971 149.7748260   1.9326364
  70.5752106 150.1977386   2.1703210  72.1711426 150.9648743  -3.1659460
  71.8131561 152.1006012  -3.3527365  73.2432251 150.4920959  -3.8172870
  73.5375137 149.5316315  -3.7123957  73.8130493 151.1709595  -4.9864798
  74.0644302 152.1887512  -4.6880903  75.1094971 150.5601196  -5.5179653
  74.9278030 149.6588135  -6.1033931  75.9328995 151.5749817  -6.3336182
  76.3847275 152.3129883  -5.6708155  76.6963120 150.9509430  -6.7982378
  75.3893814 152.0945740  -7.1227479  75.9756699 150.0703430  -4.3567476
  75.6636810 149.0810547  -4.0219774  77.0062027 150.0033722  -4.7054882
  76.0338058 150.7978210  -3.5471208  72.8642578 151.2576599  -6.1094327
  72.7691345 152.3173523  -6.7081304  72.1576843 150.1611633  -6.4656510
  72.3418732 149.2786255  -6.0103459  71.3007889 150.1044464  -7.6123309
  71.8912582 150.3954468  -8.4811068  70.7177963 148.7325439  -7.7472773
  71.5418243 148.0198517  -7.7808547  70.1576920 148.3868866  -6.8784299
  69.9586487 148.6932831  -8.9107742  69.4556732 147.8790894  -8.9863214
  70.1661453 151.1644592  -7.6224351  69.9144592 151.9376373  -8.5427647
  69.4312057 151.2357635  -6.5146227  69.6229401 150.6581726  -5.7085643
  68.3190460 152.1431122  -6.4123716  67.6640625 151.8446503  -7.2309203
  67.6640091 151.9216156  -5.0559683  67.4158630 150.8602448  -5.0557494
  68.3620377 152.1097565  -4.2402043  66.3099823 152.6526031  -4.9810467
  65.7485580 152.5860443  -5.9129639  65.7231064 152.1634979  -4.2035832
  66.3374023 154.3580322  -4.4612083  66.9343414 154.2646027  -2.8209407
  67.8405151 153.6593018  -2.7973003  67.2429886 155.2398987  -2.4446061
  66.2564545 153.6555481  -2.2229185  68.7430344 153.6001434  -6.5368323
  68.0523224 154.3789062  -7.2390027  69.7938995 154.0455017  -5.8736010
  70.3822098 153.4761200  -5.2821736  70.2229156 155.4120483  -6.0587697
  69.3013611 155.9872131  -5.9692817  71.0607605 155.8926086  -4.9174204
  71.2921295 156.9397430  -5.1125569  70.4349823 155.7251740  -3.5449693
  70.0306091 154.7133484  -3.5167494  71.0952606 155.9380493  -2.7042456
  69.5533218 156.3654480  -3.5739701  72.4793930 155.2264862  -4.8216505
  73.0012512 155.0982208  -5.7699695  73.1276932 155.8675690  -4.2242970
  72.4956970 154.2208252  -4.4015355  70.8430710 155.7138367  -7.3636589
  70.3942490 156.6710815  -7.9746346  71.6885681 154.8362122  -7.9325347
  71.8622894 153.9602814  -7.4606690  72.0752945 154.8381348  -9.3521156
  72.7808380 155.6310730  -9.6002693  72.7404938 153.5724640  -9.7151976
  73.6475983 153.5054016  -9.1145582  72.1286011 152.7271118  -9.4004421
  73.0591660 153.3866272 -11.2266407  72.1744308 153.3666534 -11.8629971
  73.6030655 154.1901398 -11.7232761  73.7601318 152.0084229 -11.4709845
  73.0344086 151.3186035 -11.0401926  73.8131027 151.7733612 -12.5340157
  75.1138535 151.9270020 -10.8854265  75.4971085 152.7679596 -10.4780016
  75.7926865 150.7806854 -10.6498976  75.5539169 149.5637207 -11.0866966
  74.7656403 149.5572968 -11.7181072  76.0469742 148.7389832 -10.7755575
  76.7878342 150.7931519  -9.7730894  77.1230927 151.7367554  -9.6414223
  77.3916092 149.9983826  -9.6184912  70.8676758 155.0839386 -10.2615757
  70.9766388 155.9300385 -11.1252432  69.7441406 154.4036407 -10.0805149
  69.7394180 153.6732483  -9.3829374  68.6578598 154.5089111 -11.0637579
  68.9824371 154.7033234 -12.0859890  67.9327393 153.1337738 -11.1162176
  67.5241928 152.8496094 -10.1464558  67.1172638 153.2634430 -11.8277607
  68.8037720 151.9321899 -11.5801373  69.8544159 152.0404663 -12.1960545
  68.4726181 150.7147369 -11.2237215  69.0947800 149.9730072 -11.5115805
  67.7326126 150.5578003 -10.5544949  67.6539307 155.6289520 -10.7403278
  67.0965347 156.1432343 -11.7627735  67.6385727 156.1937256  -9.5530977
  68.0715942 155.6395264  -8.8282146  67.0525665 157.4868469  -9.1530914
  66.0633926 157.5991364  -9.5969715  66.9211044 157.3728485  -7.6251278
  66.1030960 156.7033539  -7.3591695  67.8753738 156.9845123  -7.2692289
  66.6476593 158.6932831  -6.8507562  67.3326721 159.4829407  -7.1594620
  65.2602539 159.2367859  -7.1388359  64.4612122 158.5070801  -7.0077853
  65.0260010 160.0662842  -6.4716377  65.1698837 159.6053467  -8.1606474
  66.7765884 158.3960114  -5.3941965  67.8136673 158.4047699  -5.0587826
  66.2660599 159.2083893  -4.8769808  66.2878342 157.4463501  -5.1766057
  67.8449326 158.7433929  -9.6276608  67.1980057 159.8214569  -9.8320951
  69.2116776 158.6933746  -9.8337040  69.7892075 157.8976746  -9.6025400
  70.0746536 159.8812866  -9.9815807  69.7128906 160.6600037  -9.3101454
  71.5443192 159.6329498  -9.5268993  71.5397415 158.7559967  -8.8795862
  72.4719162 159.3465271 -10.6764679  72.4172134 160.2093658 -11.3402700
  73.5232391 159.2656250 -10.4003086  72.1749344 158.4569244 -11.2318916
  71.9398270 160.7596436  -8.5754128  73.0184021 160.7404175  -8.4192095
  71.6317368 161.7263794  -8.9736671  71.2914124 160.8027039  -7.2053585
  71.7496338 160.1161652  -6.4934540  71.4804916 161.8021851  -6.8137093
  70.2388992 160.5208130  -7.1761637  69.7986832 160.5817413 -11.2917576
  69.9694138 161.8043823 -11.3919449  69.2626877 159.9462891 -12.3341932
  69.0816269 158.9546967 -12.2703552  68.8611069 160.6402893 -13.5776062
  69.5075989 161.4693604 -13.8653917  68.9890976 159.6941833 -14.7992773
  68.3770905 158.7958679 -14.7181997  68.6122208 160.2150421 -15.6794949
  70.4545898 159.5374298 -15.3310251  70.3905640 159.1186981 -16.3353462
  70.9397430 160.5134125 -15.3453083  71.4517517 158.7413177 -14.4854937
  72.6429749 159.0456085 -14.3596764  70.9784164 157.7423553 -13.8063440
  71.6469574 157.3371277 -13.1668577  70.0984192 157.2764740 -13.9756384
  67.4719009 161.2790222 -13.4604273  67.0122833 161.7420654 -14.5236082
  66.7391357 161.1746216 -12.3293734  67.2180023 160.8202972 -11.5137491
  65.3795853 161.5984802 -12.0651655  65.1540451 162.3652039 -12.8063564
  64.4015961 160.4095001 -12.2187176  63.4460220 160.8309174 -11.9066486
  64.3301773 160.0176086 -13.2333193  64.8076248 159.1959991 -11.4028177
  65.7411804 158.8025970 -11.8050833  64.9086304 159.4825134 -10.3560104
  63.7610855 158.0294342 -11.4352598  63.8938522 157.2791138 -10.6558352
  62.7816086 158.4647369 -11.2371864  63.6233482 157.2931366 -12.8210030
  63.4277802 158.0133209 -13.6154766  64.5049667 156.7344666 -13.1352386
  62.4343987 156.3156586 -12.8484793  61.5903244 156.8587952 -12.9609222
  62.4508820 155.7577362 -13.6902332  62.4365730 155.6170502 -12.1190615
  65.2686539 162.4624939 -10.7391615  66.1504288 163.3088989 -10.6381626
  64.1958618 162.4338074  -9.9602861  63.6464767 161.5894928 -10.0338154
  63.8621902 163.3724976  -8.8875046  63.8731575 164.3786774  -9.3065081
  62.3632545 163.0724792  -8.4716625  61.8630981 162.6322174  -9.3342886
  62.4967308 162.3888855  -7.6332169  61.4435768 164.2510986  -8.1377144
  61.7737198 165.4448395  -8.3295975  60.3636093 164.0499573  -7.6094584
  64.8031845 163.4524994  -7.6371989  64.5304565 164.2418671  -6.7518482
  65.8057098 162.5388641  -7.4551196  65.9306335 161.9589386  -8.2725410
  66.8780441 162.4709320  -6.3682103  67.4117966 161.5387268  -6.5532222
  67.9570312 163.5789948  -6.6500616  67.3315506 164.4623718  -6.7786059
  68.5703583 163.7635040  -5.7680864  68.7233429 163.3405457  -7.9137111
  69.2604065 162.3926697  -7.8794875  68.0440292 163.2662354  -8.7628899
  69.6998825 164.4317017  -8.1111841  70.2623062 164.4953156  -7.1796656
  70.4573669 164.1837006  -8.8546944  69.0551071 165.7669678  -8.5101318
  69.0476227 165.9043579  -9.5107203  68.7695694 166.8009796  -7.7960353
  68.9501648 166.7849731  -6.4803214  69.4069519 166.0220795  -6.0013137
  68.5784836 167.5428467  -5.9257150  68.2468109 167.8459473  -8.3180056
  67.9927673 167.9123688  -9.2932758  67.9654770 168.6527405  -7.7794423
  66.4381409 162.4357910  -4.9059606  67.2678070 162.5569916  -3.9952898
  65.1146088 162.2769318  -4.5906835  64.4526825 162.3569183  -5.3493400
  64.5578766 162.0942383  -3.2312999  65.3678436 162.3401337  -2.5445688
  63.3865051 163.0429382  -2.8793650  62.9897537 162.7469330  -1.9082496
  63.8083725 164.5236816  -2.8653040  64.2031937 164.7456818  -3.8567336
  62.8770790 165.0766754  -2.7428732  64.4249878 164.7406158  -1.9930507
  62.3594170 162.9255829  -3.8798423  62.0295296 162.0466003  -4.0802736
  64.2786179 160.5848999  -2.9322577  63.6706429 159.8294983  -3.6727099
  64.7634125 160.1887054  -1.7001095  65.2169189 160.8548737  -1.0912961
  64.4485321 158.9429321  -1.0918038  63.7156181 158.4299927  -1.7145582
  65.6421967 157.9952240  -1.0264719  65.2709198 157.0567627  -0.6147391
  65.9504242 157.7079926  -2.0317552  66.7867203 158.3879089  -0.0968463
  67.9481888 158.8572693  -0.6406710  67.9963531 158.8877106  -1.7191666
  68.9465485 159.2735443   0.1587511  69.8230743 159.7581635  -0.2452740
  68.8587265 159.2070770   1.5951976  69.6897278 159.5802155   2.1753736
  67.6879578 158.5774231   2.1567922  67.6154099 158.3582611   3.2118330
  66.6386337 158.2508850   1.3274815  65.7470016 157.8185730   1.7570133
  63.7500496 159.2382355   0.2359430  63.9561882 160.3061676   0.8314595
  62.9233513 158.3362427   0.8013786  62.8784256 157.4258575   0.3663006
  62.2945938 158.5129242   2.1422064  62.2426567 159.5772858   2.3714664
  60.8494530 157.9482117   2.1010513  60.7750816 157.2563934   1.2620348
  60.5085907 157.3781281   2.9652953  60.1286621 158.7231598   1.8402505
  63.2373123 157.8730164   3.2014170  63.6005936 156.6952209   3.1256258
  63.4431839 158.6716461   4.2586317  63.0733490 159.6106720   4.2982430
  63.8337517 158.1160431   5.5918150  64.2712784 157.1207275   5.5140734
  64.7408066 159.1582947   6.3445029  64.2769012 160.1440430   6.3787556
  65.0757370 158.5853882   7.7568731  65.2687378 157.5127869   7.7369227
  65.9819717 159.0476685   8.1482010  64.2459869 158.8083344   8.4276180
  66.0149841 159.2396545   5.5116439  65.7983704 159.5480499   4.4888682
  66.7057800 159.9490509   5.9673419  66.5163193 158.2729187   5.5585279
  62.5085526 158.0242767   6.3474951  61.7163925 158.9755707   6.2903285
  62.2959976 156.8521423   6.9871044  62.9486656 156.0988770   6.8236213
  61.1191406 156.5995331   7.8834891  60.3218269 157.2842865   7.5945277
  60.6862259 155.1286316   7.7611284  61.6065254 154.5551910   7.8721576
  60.0846634 154.8970337   8.6400976  59.9084091 154.8243713   6.4773612
  60.5091438 155.0043945   5.5858340  59.6203308 153.3038940   6.4470153
  58.8993340 152.9216309   7.1696138  59.2653885 153.0692291   5.4434972
  60.5453491 152.7276306   6.4662390  58.5871391 155.5598450   6.4156175
  58.7042351 156.6415863   6.3505149  58.0901260 155.1982727   5.5154290
  57.9676590 155.3067017   7.2760067  61.4597206 156.9230347   9.4044428
  62.5859909 156.6553650   9.8502226  60.5685463 157.5334625  10.1338482
  59.7007484 157.7306671   9.6562109  60.5415993 157.6953278  11.5449171
  61.5467644 157.9996796  11.8366461  59.5936356 158.9008636  11.8627272
  58.5417137 158.6851196  11.6756229  59.6642799 159.0262299  12.9431877
  59.8784981 159.8484955  11.4055920  60.2190132 156.3730164  12.2048473
  59.0736160 156.0804749  12.5646915  61.2062111 155.4672546  12.2698631
  62.0706635 155.6803284  11.7929688  60.9537506 154.1928711  12.9035063
  60.0480804 153.8421173  12.4086924  62.0446739 153.1341095  12.7169561
  63.0170517 153.5250092  13.0165930  61.7774925 152.2157745  13.2397881
  62.1366310 152.6277161  11.3413515  61.1729774 151.7090454  10.8584824
  60.3037872 151.3849030  11.4115124  61.1780815 151.2881775   9.5127087
  60.3989258 150.6449432   9.1311855  62.2885551 151.6035004   8.6946573
  62.3962364 151.0984802   7.4223685  61.5342484 150.7856445   7.1382775
  63.2896576 152.4730072   9.1858063  64.1284866 152.7999725   8.5892630
  63.1747246 153.0059662  10.4964867  63.9135818 153.6729126  10.9156265
  60.6132584 154.2801208  14.3928738  61.4718475 154.4134979  15.2885866
  59.2655869 154.2252655  14.6270027  58.6509285 154.0765533  13.8394880
  58.5446854 154.1776886  15.9533854  58.8856316 154.8795471  16.7144699
  57.0478096 154.4571228  15.7869492  56.5836220 154.4417114  16.7730484
  56.9666748 155.3974915  15.2417850  56.5365105 153.3721924  14.9371452
  55.5834122 153.4233246  15.0400581  58.7158890 152.8527222  16.6727257
  58.7083664 152.8955841  17.9331131  59.0888138 151.7515411  15.9629068
  59.1525230 151.9034424  14.9664297  59.7059631 150.4860077  16.4705429
  60.1523895 150.6332245  17.4539700  58.5722122 149.4210052  16.5897655
  57.8400040 149.8641968  17.2647076  58.1355896 149.1685486  15.6234694
  59.0252609 148.1600800  17.2566261  60.1245499 147.5557709  17.0573406
  58.1527176 147.5290070  17.9679604  58.4291573 146.6824951  18.4445057
  57.2547989 147.9254608  18.2060223  60.7244072 149.9738617  15.4791679
  60.3795586 149.7314758  14.3200006  61.9814034 149.8102264  15.8521338
  62.1479645 150.1117401  16.8015766  63.1446304 149.5658264  14.9315948
  62.9355965 149.9634094  13.9384565  64.3025970 150.5113831  15.4154854
  63.8724937 151.4637299  15.7255707  65.0603561 149.9815063  16.6731014
  65.5883560 149.0342102  16.5637169  65.8798523 150.6449432  16.9494648
  64.4300308 149.8497467  17.5525494  65.4369736 150.7691498  14.3411379
  64.9263000 151.1234589  13.4457169  66.0664062 151.5612488  14.7467299
  65.9857788 149.8413544  14.1796083  63.5106239 148.0528717  14.8058376
  64.2494278 147.6996613  13.9412498  62.9590454 147.2274170  15.7172031
  62.4240875 147.7033691  16.4295177  62.9899139 145.7805328  15.7446537
  63.9471207 145.4489136  15.3423061  62.9480858 145.3483276  17.1894436
  63.7706909 145.8333740  17.7149448  61.9754486 145.6135864  17.6038246
  63.1897621 143.8493652  17.3390141  62.3632965 143.4052734  16.7841816
  64.2194443 143.7252502  17.0036697  63.1110687 143.3675385  18.8074627
  63.8963127 143.8635864  19.3779221  62.0740547 143.5295258  19.1015148
  63.3626823 141.8963470  18.7952023  64.2612152 141.5776825  19.1286564
  62.5139046 140.8986511  18.5198994  61.3640289 141.0753632  17.9058704
  61.1199417 142.0057678  17.5978603  60.7826843 140.2835541  17.6710072
  62.8646278 139.7020721  18.8534107  63.7409325 139.5324860  19.3260956
  62.3179436 138.8852692  18.6208839  61.8480721 145.0919189  14.9339666
  62.0355492 144.1387482  14.2163553  60.6379433 145.7046814  15.0099392
  60.4349823 146.4134521  15.7002621  59.4531937 145.3299713  14.2181044
  59.6054993 144.3648529  13.7349148  58.1507072 145.3537445  15.0252047
  58.0181351 146.3406830  15.4684668  57.2609634 145.2195282  14.4100323
  58.2022896 144.2221069  16.1099262  58.9454079 144.5433350  16.8397732
  57.3375587 144.1645508  16.7710094  58.5001335 142.8014069  15.5039978
  57.9985695 142.3815918  14.3940296  59.2275314 142.0359955  16.1573257
  59.3437691 146.1797791  12.9469547  58.5893745 145.7647552  12.0643749
  60.1951752 147.2389221  12.7618504  60.7170906 147.5544434  13.5669289
  60.3002777 148.1555176  11.5906897  60.9689903 148.9673462  11.8768024
  60.9874268 147.3859100  10.4046726  60.3894119 146.5951233   9.9517574
  61.1858215 148.0961914   9.6020317  62.3403320 146.7574463  10.8045740
  62.7725601 147.4430084  11.5334682  62.1568909 145.7757721  11.2413349
  63.3553162 146.5494537   9.6791334  64.2290726 145.9817047   9.9989891
  62.8268852 146.0200195   8.8863163  63.8192482 147.8695068   9.2712088
  63.3914299 148.6483154   9.7513504  64.8992004 148.1908264   8.5588732
  65.6994781 147.2766113   7.9980311  65.3257904 146.3404999   8.0625353
  66.4889603 147.5839233   7.4481416  65.2380142 149.4822388   8.5035334
  64.6386795 150.2461395   8.7816629  66.0472870 149.6768951   7.9314375
  58.9763107 148.8990021  11.2537651  58.6586418 149.1509857  10.0988102
  58.1606712 149.2124634  12.2807102  58.5111389 148.9304810  13.1850109
  57.0371742 150.1382904  12.0951204  56.5918732 149.9238586  11.1236115
  55.9356041 149.8482056  13.1024456  56.3489723 150.1729431  14.0573158
  55.0948753 150.4945679  12.8504553  55.4357414 148.3825531  13.3253117
  55.2295723 147.9935913  12.3281603  56.2218475 147.8091888  13.8166466
  54.1744423 148.3350372  14.1459894  54.1317635 148.6536865  15.3753986
  53.1207733 147.9097900  13.5981617  57.5695267 151.6040802  12.1495733
  58.4788132 151.9876709  12.9246721  56.8664474 152.3953247  11.2960873
  56.1098557 152.0015564  10.7551479  56.9515190 153.8859863  11.2803869
  57.1928978 154.2430725  12.2815447  58.0985756 154.2741089  10.3269339
  57.8453407 153.8710327   9.3463736  58.1889114 155.3585052  10.2636452
  59.0788155 153.8912506  10.6109180  55.6739883 154.5889587  10.7064123
  55.1974678 154.0965576   9.6976547  55.0696411 155.5914001  11.3526382
  55.3509254 155.8515930  12.2871313  53.9519768 156.2545776  10.7320919
  53.4687386 155.5652924  10.0396557  52.9093094 156.5293732  11.7741098
  53.2696342 157.3871918  12.3419256  51.9189186 156.7103577  11.3564091
  52.6170692 155.3169098  12.7082205  51.8858337 154.1654968  12.3173809
  51.6900253 153.3952637  13.3881178  51.1666946 152.4524841  13.4489059
  52.3154221 153.9925232  14.4405003  52.2863998 153.5798798  15.3619032
  52.8600044 155.1939697  14.0258341  53.2947159 155.9978333  14.6013536
  54.1982460 157.5504303   9.9547892  53.2832108 158.0971527   9.3421383
  55.4136925 158.0977478  10.1064157  56.1051865 157.6123199  10.6598625
  55.9080734 159.3404236   9.5111847  55.2705917 159.5317841   8.6479921
  55.8889275 160.4569550  10.5888910  56.6004791 160.3333740  11.4052982
  56.1576462 161.3537292  10.0306149  54.5244675 160.5851288  11.2223473
  53.6782722 161.6059418  10.6986933  54.0833931 162.2976685   9.9749603
  52.3950958 161.8390045  11.2813120  51.7491417 162.6542053  10.9904356
  51.9250755 161.0269012  12.3105145  50.9014435 161.1411438  12.6353683
  52.7101212 159.9778748  12.7813969  52.3536148 159.3542633  13.5878849
  54.0527649 159.8383636  12.3306627  54.7302971 159.1872406  12.8630009
  57.3353081 159.2816162   8.9663935  58.0198517 158.2615051   9.1047068
  57.7778854 160.3198395   8.3353500  57.1374283 161.0849152   8.1786022
  59.1621971 160.4834290   7.8984938  59.7953300 160.5114899   8.7853184
  59.3502121 159.6569977   7.2131143  59.4970932 161.7459869   7.1082072
  58.7559471 162.7175446   7.0570030  60.7214546 161.7665710   6.6198125
  61.1568336 160.8563080   6.5755448  61.3103600 162.9425507   5.9119201
  60.4405746 163.5458984   5.6520329  62.2056274 163.7350769   6.8641129
  62.8865433 163.0148621   7.3177094  63.0311432 164.8396912   6.2106848
  62.3787460 165.6367188   5.8539705  63.6527710 165.2313080   7.0158691
  63.6877556 164.4741058   5.4211926  61.4869003 164.4542236   7.8880739
  61.5353508 163.9030762   8.6726027  62.0141754 162.6391296   4.5581107
  62.7169075 161.6653137   4.3995738  61.7792053 163.4471741   3.5210352
  61.1388512 164.2204590   3.6309998  62.3381004 163.1726379   2.1720748
  62.2249413 162.1191864   1.9160873  61.4539108 163.8948212   1.1279356
  61.7901955 163.7433929   0.1022212  59.9941978 163.5139313   1.2036448
  59.5659904 164.1011505   2.0159998  59.5513458 163.7905731   0.2468540
  59.7998009 162.4556885   1.3781384  61.3894234 165.2838898   1.4136438
  62.1134911 165.7115631   0.9505827  63.7610741 163.7392883   2.0381143
  64.0165863 164.9306488   2.1071801  64.7704926 162.8397064   1.9136536
  64.5289230 161.8750610   1.7370551  66.1409607 163.3087463   1.8298488
  66.3293762 164.2434387   2.3580041  66.9893188 162.0904083   2.4484963
  66.9403687 161.2183228   1.7964538  68.0431595 162.3351135   2.5813239
  66.6095352 161.7501068   3.4118562  66.4307556 163.5234985   0.3253220
  66.2931519 162.5872498  -0.4479727  66.7105560 164.7371674  -0.1109446
  66.7363739 165.4736938   0.5796769  67.3036499 164.9909363  -1.4809099
  66.7951736 164.3503265  -2.2014422  67.0204010 166.4669952  -1.9034722
  66.0187607 166.7259674  -1.5603137  67.7249069 167.1859436  -1.4852741
  67.0485611 166.7234497  -3.4160581  67.8580856 166.1373596  -3.8511238
  66.1115570 166.3795013  -3.8540523  67.2273483 168.2289886  -3.8166528
  66.5414963 169.1418304  -3.2681959  68.1154404 168.5536346  -4.6196017
  68.7787857 164.6750031  -1.5246608  69.5747604 165.3002014  -0.8460173
  69.2416153 163.6568604  -2.3348999  68.5936356 163.0857086  -2.8583443
  70.7001419 163.4837494  -2.6357086  71.3379288 163.3957062  -1.7561723
  70.9621277 162.1515503  -3.3399987  70.4083176 162.2398529  -4.2746634
  72.4420319 162.1188507  -3.7805855  73.0645447 162.4190521  -2.9376969
  72.7776871 161.1576691  -4.1698985  72.5267944 162.8726044  -4.5633888
  70.6077194 160.9805603  -2.4768682  71.2549667 160.8728180  -1.6064883
  69.6034317 161.2465363  -2.1470723  70.6189575 159.6693878  -3.1820021
  71.6152649 159.5410461  -3.6050787  70.4362717 158.8718414  -2.4618287
  69.8678741 159.6699066  -3.9719226  71.2299347 164.7194824  -3.4551828
  70.7376709 164.9582214  -4.5631270  72.1237869 165.4794312  -2.8385170
  72.4351654 165.1568146  -1.9334962  72.7103500 166.7063446  -3.4088430
  72.2055054 166.8902435  -4.3572192  72.3702164 167.9809418  -2.6195831
  72.3393555 168.8418121  -3.2874384  71.3213882 167.9364929  -2.3261626
  73.2468643 168.2044983  -1.3754836  74.2048035 169.2122040  -1.3186133
  74.3795319 169.8556671  -2.1682155  74.9387817 169.5140533  -0.1479299
  75.7337875 170.2434540  -0.0996245  74.6438065 168.7475128   1.0256913
  75.3509750 168.9867859   2.1972442  76.0829086 169.5884094   2.0425308
  73.5949020 167.8324127   1.0065329  73.3109131 167.3034058   1.9042493
  72.9223557 167.4868927  -0.2057527  72.0783539 166.8151245  -0.1529902
  74.2096710 166.5566559  -3.7574172  74.7408066 167.4117889  -4.4075108
  74.9064636 165.4951019  -3.2411454  74.5165863 164.9605103  -2.4780560
  76.2995071 165.2118683  -3.6113994  76.4107819 165.5886383  -4.6281385
  77.2862244 166.1193390  -2.8478625  77.2051392 165.7758636  -1.8165739
  78.3158340 166.0103302  -3.1886411  77.0808105 167.1870575  -2.9246106
  76.5153732 163.7138062  -3.5951633  76.0713806 163.0199127  -2.6823826
  77.1171417 163.2599030  -4.7210627  77.2973328 163.9862823  -5.3992953
  77.2262344 161.8582458  -5.1393828  77.1025314 161.2188568  -4.2653213
  75.9907608 161.6399536  -6.0367541  75.1825485 161.8527832  -5.3370519
  76.0630951 162.3336792  -6.8743739  75.8287430 160.2476654  -6.6716390
  74.8612976 159.3584900  -6.1415195  74.2099991 159.6517181  -5.3314347
  74.7051163 158.0644989  -6.6821685  73.9784546 157.3982391  -6.2411804
  75.4219894 157.6519012  -7.8249283  75.1038895 156.4931946  -8.4707737
  74.9077148 155.7505951  -7.8948755  76.4237671 158.5115204  -8.3647184
  77.0660019 158.1970825  -9.1740808  76.6193390 159.7784729  -7.6973710
  77.3621597 160.4527588  -8.0972929  78.5411453 161.5224304  -5.7971816
  79.0779419 162.3172607  -6.5785027  79.0679245 160.3371887  -5.4914589
  78.4789276 159.7678375  -4.9006796  80.3279877 159.6376038  -6.0043540
  80.4653549 160.0022125  -7.0223451  81.4821091 160.1323853  -5.1300483
  81.3151550 161.1825714  -4.8906031  81.4323959 159.6325836  -4.1626654
  82.9253693 159.8932037  -5.7021852  83.0867767 158.8265686  -5.8581953
  83.0542374 160.3495789  -6.6836200  83.9979019 160.5409851  -4.7818537
  83.4845123 161.1096802  -4.0065289  84.5029984 159.6861725  -4.3321204
  84.9225998 161.3650970  -5.5249486  84.5802536 162.2334747  -5.9107256
  86.0851593 160.9003296  -5.9330239  86.6274643 159.7080841  -5.7654200
  86.1565323 159.0859680  -5.1240935  87.4177170 159.3837280  -6.3043027
  86.8143921 161.7452087  -6.5853086  86.4748383 162.6964111  -6.5845389
  87.7440186 161.4860535  -6.8831921  80.3121796 158.0605774  -5.9663877
  80.3026886 157.4337311  -4.9431853  80.1894608 157.4145660  -7.1319623
  79.9321976 157.9611206  -7.9414096  80.4608002 155.9661713  -7.2316680
  80.0012436 155.4567871  -6.3846512  79.8185349 155.2634277  -8.4496193
  80.1011276 155.8219147  -9.3419943  80.0819092 154.2057343  -8.4550533
  78.3060455 155.3569031  -8.4473581  77.8527679 155.0038757  -7.5210729
  78.0393906 156.4074402  -8.5630226  77.8334732 154.5636902  -9.7128143
  77.0874939 153.5621643  -9.3663044  78.1810989 154.8920746 -10.9051676
  81.9836044 155.7122040  -7.2128358  82.7801895 156.4520721  -7.8640990
  82.4247894 154.6526337  -6.5406618  81.7146378 154.0940552  -6.0892506
  83.7398987 154.0202179  -6.6404567  84.1472015 154.3774109  -7.5862999
  84.6853409 154.4934692  -5.5330219  84.1929855 154.1486511  -4.6237431
  85.6672974 154.0364075  -5.6552625  84.9640503 156.0563965  -5.5010710
  85.3536530 156.3678894  -6.4702377  84.0533295 156.5887756  -5.2267075
  85.9994583 156.3933258  -4.4216528  87.1269684 155.8507538  -4.5466270
  85.8791962 157.3494568  -3.6298864  83.6451645 152.4619751  -6.7332149
  82.5910873 151.8214264  -6.5866694  84.7547913 151.7677155  -6.9872518
  85.6475525 152.2383575  -7.0271912  84.9034271 150.3150330  -7.1909642
  84.1235046 149.8696899  -6.5732989  84.5409546 150.0668640  -8.6742945
  83.4932861 150.3368225  -8.8069811  85.2448349 150.7280731  -9.1797323
  84.8810654 148.6436768  -9.2307711  85.9647293 148.5277100  -9.2487507
  84.4267044 147.8424530  -8.6479111  84.3365097 148.3900757 -10.6832008
  84.3447418 147.2527618 -11.2158642  84.0153503 149.4373474 -11.4532661
  83.6775742 149.2117157 -12.3779802  84.0868835 150.4043427 -11.1705999
  86.3117981 149.8214111  -6.6258135  87.3735199 150.2907410  -7.0816865
  86.2667847 148.9755859  -5.6114821  85.3946609 148.5574493  -5.3205285
  87.4549408 148.4838104  -4.9608369  88.2402191 148.1296387  -5.6286745
  88.0192108 149.3829651  -3.8507102  87.2697372 149.4596100  -3.0629854
  88.8427277 148.7849121  -3.4605083  88.6411591 150.6944580  -4.2396030
  89.4996567 150.4687500  -4.8721733  87.9720612 151.3690948  -4.7737222
  89.1375046 151.4929810  -3.0085111  88.3608551 152.1118774  -2.2023973
  90.3628311 151.7382355  -2.9000161  87.1380997 147.1375427  -4.2111683
  85.9391251 146.8931122  -4.0579777  88.0934906 146.3150482  -3.8605359
  89.0357437 146.6583252  -3.9806120  87.8796463 145.0019531  -3.1258876
  88.8453751 144.5184021  -2.9787540  87.4470520 145.2350922  -1.6761334
  86.4459152 145.6630402  -1.6243700  87.3617935 144.2739258  -1.1692048
  88.3643341 146.1535492  -0.8139992  89.6197281 145.7159576  -0.3501057
  89.9706192 144.7234192  -0.5912911  90.4457932 146.5118561   0.3986133
  91.4595795 146.1974487   0.5980934  90.0507126 147.8522797   0.6463986
  90.9850082 148.6507416   1.2364978  90.7235947 149.5743103   1.2194000
  88.8422928 148.3986053   0.2059171  88.6026993 149.4365387   0.3838830
  88.0169678 147.5329590  -0.5459503  87.0820847 147.9167480  -0.9268836
  87.0862427 143.9689178  -3.9709630  86.5423203 143.0245056  -3.4540336
  86.8547897 144.2874908  -5.2553301  87.2521744 145.1690521  -5.5469465
  86.0612183 143.5119629  -6.1542025  86.2832718 143.5366669  -7.2210574
  86.0945129 142.4469757  -5.9244590  84.6043243 143.9616699  -6.0420218
  83.7500763 143.1875153  -6.4810209  84.2155304 145.0930023  -5.4619751
  84.9132309 145.6440582  -4.9827461  82.8139267 145.4977264  -5.2436967
  82.1330185 144.8197784  -5.7583389  82.3825760 145.5265503  -3.7481246
  81.2983780 145.4142609  -3.7452505  82.9796600 144.3038025  -3.0303435
  84.0379562 144.3831940  -2.7817540  82.4881897 144.1295776  -2.0731564
  82.8676910 143.4078522  -3.6409578  82.7475510 146.8293457  -2.9816420
  83.8351746 146.8925934  -2.9473393  82.4033813 147.7436676  -3.4650412
  82.0601807 146.9237366  -1.6465478  82.5771027 146.2809753  -0.9339867
  82.0377808 147.9675140  -1.3332632  81.0282669 146.6090546  -1.8022308
  82.5777130 146.9062958  -5.9030638  83.4809723 147.7121124  -5.9813638
  81.3002548 147.1181488  -6.2649431  80.5853043 146.4411011  -6.0401077
  80.8234558 148.5243378  -6.5568705  81.6570587 149.0493774  -7.0232744
  79.7129822 148.5295715  -7.6003637  78.9160767 148.0099945  -7.0682993
  79.4419632 149.5620422  -7.8209085  79.9921875 147.7539978  -8.9350224
  81.0610275 147.8790588  -9.1083593  79.8814316 146.6745300  -8.8321095
  79.0965118 148.2138824 -10.1342936  77.8322525 148.2617188 -10.0008736
  79.5826035 148.5807800 -11.2173443  80.3361511 149.2205353  -5.2520308
  79.6747742 148.6100769  -4.4113803  80.6465302 150.4877014  -5.0894337
  81.2463913 150.9555817  -5.7537742  80.2305832 151.2306061  -3.8887329
  79.3120880 150.8130035  -3.4763405  81.3144913 151.1738129  -2.8261619
  81.7171783 150.1622009  -2.8771079  82.4262695 152.1708221  -2.9568217
  82.0618820 153.1875610  -3.1037273  83.0442810 152.1359711  -2.0596380
  83.0618286 151.9760895  -3.8206704  80.6674957 151.4627075  -1.6841937
  81.1491776 151.1009827  -0.9367043  79.8784714 152.6544037  -4.2135549
  80.2256165 153.1111908  -5.3101764  79.1597900 153.4004517  -3.3180561
  78.8605499 153.0070343  -2.4372706  78.7887650 154.8269348  -3.5596883
  79.6045456 155.2097473  -4.1729274  77.4848404 154.8606262  -4.5178823
  77.6742096 154.2395020  -5.3933473  76.2490540 154.3162842  -3.8285725
  76.0782547 154.9817963  -2.9823828  75.3717270 154.2920532  -4.4749651
  76.4405441 153.3358002  -3.3926198  77.2449188 156.2642670  -5.0203280
  78.1029434 156.5326843  -5.6366367  76.2498169 156.3994446  -5.4441195
  77.1983185 157.0050659  -4.2221141  78.6933823 155.7013245  -2.3370614
  78.1727753 155.2477264  -1.3104774  79.2919235 156.8966980  -2.3791308
  79.7358551 157.1806030  -3.2407711  79.3081894 157.8916168  -1.2802359
  79.0531693 157.5059052  -0.2931705  80.7889328 158.3217468  -1.1445048
  81.0518951 158.9367371  -2.0051732  80.7657700 158.9778595  -0.2743968
  81.7634430 157.1415863  -0.8973315  81.4845963 156.5406036  -0.0317888
  81.7228470 156.4882355  -1.7688737  83.1976776 157.6021881  -0.5907132
  83.4549713 158.4588470  -1.2136396  83.1598053 158.0565796   0.3993280
  84.2878571 156.5252075  -0.8507062  84.2688980 155.7817993  -0.0537781
  84.1257477 156.0457764  -1.8160906  85.6251755 157.1397552  -0.9152908
  85.8674622 157.8148041  -0.2041471  86.2905579 156.3954010  -0.7626482
  85.8314056 157.5135956  -1.8306171  78.3700180 159.0903320  -1.5152078
  78.5160446 159.7857208  -2.5593972  77.3841705 159.2836761  -0.6206470
  77.2361526 158.7792511   0.2417530  76.3389282 160.3310852  -0.8942403
  76.7618027 160.8958435  -1.7251041  75.0558243 159.7776947  -1.4779774
  74.4787292 160.6480255  -1.7903779  75.3330765 158.8084869  -2.6579263
  75.8236542 157.9064636  -2.2921455  74.4328232 158.4492493  -3.1565268
  75.9301224 159.3089905  -3.4202497  74.1563644 159.0364990  -0.4952846
  73.9047699 159.7150726   0.3197894  73.2083664 158.7848816  -0.9707783
  74.6598053 158.1305389  -0.1577941  76.0717316 161.1817322   0.3407629
  76.1655350 160.7723694   1.5003475  75.7369003 162.4067688   0.0549094
  75.6591644 162.6436768  -0.9238331  75.2716370 163.4045563   0.9893153
  75.2260742 162.9944458   1.9981966  76.3468246 164.6341248   1.0471900
  76.5211792 165.0841827   0.0698698  75.9096222 165.3539276   1.7391680
  77.6102142 164.2896118   1.7860789  77.4259491 164.3427582   2.8590755
  77.7006073 163.2264252   1.5634664  78.7906342 165.1371765   1.3145713
  79.6056671 164.8915100   1.9953549  79.0210876 164.9705353   0.2623253
  78.6484909 166.6764374   1.5152714  77.7216492 166.9987946   1.0407661
  78.6063843 166.8767548   2.5858786  79.7613907 167.3906097   0.9057049
  79.5971832 167.4428101  -0.0894896  79.7579041 168.3420410   1.2446404
  80.6506042 166.9395447   1.0667557  73.8944397 163.8628998   0.5039205
  73.6348724 164.0677490  -0.7185968  72.9746017 164.0546570   1.4530308
  73.3002777 163.7302551   2.3523593  71.5588608 164.2047424   1.3150337
  71.4559555 164.5428925   0.2839386  71.0007172 162.7736816   1.5528803
  71.1717987 162.3519897   2.5433445  69.9279099 162.8112488   1.3637606
  71.3695755 162.1287537   0.7553029  71.0950394 165.2536163   2.3315074
  71.7625809 165.4472656   3.3449826  69.9221802 165.8253174   2.1626475
  69.5913010 165.8832550   1.2101456  69.3862762 166.9233398   3.0498912
  69.7289810 166.8047791   4.0777969  69.9416046 168.2335205   2.5009518
  70.9927216 167.9942474   2.3396819  69.3467560 168.6584167   1.1490765
  68.3324432 169.0340271   1.2839000  69.9317093 169.4865265   0.7488834
  69.2756119 167.8257599   0.4492735  69.7988129 169.3306427   3.5658870
  68.8223495 169.7668152   3.3552449  69.8640366 168.8898010   4.5606246
  70.8678284 170.4284668   3.3924994  70.9136887 170.7500000   2.3520093
  70.6119080 171.2503204   4.0611987  71.8050842 169.9494629   3.6756983
  67.8660278 166.7815399   3.1455991  67.1725388 166.5612335   2.1311364
  67.2948456 166.8412170   4.3210478  67.9049301 167.0363312   5.1019664
  65.7972107 166.7212372   4.4505243  65.4903412 165.7593384   4.0398054
  65.6358490 166.7078552   5.5284314  64.9367447 167.8727112   3.8918731
  65.0259705 169.0176544   4.4309411  64.2186127 167.7478638   2.8125050
  64.2455444 166.8256836   2.4014494  63.3435707 168.8527527   2.2232277
  63.8041039 169.8064117   2.4812016  63.2664566 168.6761627   0.7233892
  63.0241089 167.6223907   0.5858480  62.3829002 169.2157288   0.3823410
  64.5366135 168.8940582  -0.1454942  65.4202499 168.7103882   0.4656957
  64.4915161 168.1466217  -0.9375892  64.7365570 170.2641144  -0.7076750
  65.2521286 170.1793518  -1.6642855  63.7753525 170.6717529  -1.0207626
  65.4530945 171.1437073   0.2531015  64.8066559 171.6797791   0.8142101
  66.7606049 171.4881439   0.3221630  67.5570679 170.9113922  -0.5538465
  67.1774826 170.1928253  -1.1535760  68.5565643 171.0564728  -0.5455626
  67.1868515 172.3717804   1.1342692  66.5861893 172.9522400   1.7020611
  68.1519318 172.6427307   1.0105720  61.9808235 168.9933319   2.8997478
  61.5354195 170.1029968   3.1647818  61.2614365 167.8783417   3.0422597
  61.6575623 167.0016632   2.7346232  59.7639999 167.8355103   3.4405739
  59.4227562 168.7504425   3.9248934  58.8684959 167.5373230   2.2266159
  59.1157188 166.5169220   1.9337902  57.8609467 167.3417664   2.5936408
  58.8701859 168.5833740   1.0699946  58.0780067 169.3057404   1.2668000
  59.7432518 169.2337494   1.1234928  58.7062531 167.9262695  -0.2938144
  58.0305214 168.4362793  -1.1554832  59.3689079 166.8169250  -0.7038752
  59.2679977 166.5246735  -1.6653892  59.9363327 166.2808533  -0.0629676
  59.5441704 166.7936401   4.4902329  59.9970016 165.6262207   4.2731376
  58.7332153 167.0231476   5.5656729  58.4098587 167.9732666   5.6789398
  58.1419907 165.9626160   6.4040685  58.8271027 165.1321259   6.5743995
  57.6697311 166.6006165   7.6838598  56.9438553 167.4024811   7.5489087
  57.1285210 165.8735657   8.2893333  58.7522507 167.1797028   8.5814466
  59.4886932 166.3940430   8.7502470  59.2830086 168.0168762   8.1281004
  58.2242203 167.5603333   9.9449720  57.6549988 166.7128601  10.3269110
  59.0340614 167.8116150  10.6298923  57.3463745 168.8298645   9.8583612
  57.7661324 169.5586243   9.2990551  56.1529694 169.0877686  10.2045422
  55.4091988 168.1095428  10.7347784  55.8261681 167.3598328  11.2678623
  54.4113617 168.2400513  10.8207693  55.6495056 170.2452393   9.9290047
  56.1585693 171.0396576   9.5686569  54.6398888 170.2211304   9.9150963
  56.9424896 165.2940369   5.6483741  56.3778114 165.9270782   4.7420769
  56.6038017 164.0579987   6.0258932  57.1075897 163.7060089   6.8273931
  55.4771996 163.2877045   5.5060797  54.7748108 164.0469666   5.1621819
  55.8294296 162.4676514   4.2670531  54.9554176 161.9771729   3.8385396
  56.0818748 163.1385956   3.4459486  56.9295425 161.4049988   4.3823528
  56.6227531 160.1555786   4.9246426  55.6532974 160.0538788   5.3896279
  57.5511971 159.1479187   5.0158238  57.2891312 158.1993408   5.4607201
  58.8267632 159.3916626   4.5765939  59.5372925 158.5842743   4.6750512
  59.1573906 160.6296539   3.9458992  60.1437645 160.8004303   3.5405631
  58.2053871 161.6474915   3.9017963  58.3772545 162.6352386   3.5002952
  54.8249321 162.3339081   6.5936489  55.4721832 161.7424316   7.4585352
  53.5521355 162.0519714   6.3689766  53.1433640 162.5798035   5.6110883
  52.7559891 160.9256744   6.9070640  53.2480850 160.6466370   7.8387737
  51.2913742 161.3428345   7.2593031  51.4103775 162.1340027   7.9995570
  50.8392296 161.6907196   6.3305225  50.5064735 160.2513885   7.9465957
  50.8037300 159.2483978   7.6403894  50.7712250 160.1958008   9.0024939
  48.9861755 160.4145355   7.7573113  48.7872543 160.1864014   6.7101784
  48.4499512 159.7799072   8.4628773  48.4729538 161.7763977   8.0654964
  48.9160805 162.2118378   8.9611130  48.8208313 162.4625092   7.2932668
  46.9506454 161.8079834   8.0583982  46.5871925 161.0518646   8.6207819
  46.6311531 162.6653900   8.4860735  46.6440468 161.7025299   7.1018543
  52.8147774 159.7669983   5.9253173  52.6443481 159.9470062   4.7206779
  52.8840942 158.5147247   6.4412208  52.8971481 158.4773865   7.4504461
  52.9278984 157.1723022   5.7464232  53.3720932 157.2625275   4.7551360
  53.8273773 156.1921844   6.5044312  53.4267616 156.0402679   7.5066919
  53.9195099 154.8711548   5.7608275  54.1730309 155.1026764   4.7263055
  54.7146568 154.2155914   6.1158853  52.9921188 154.2984161   5.7647991
  55.2430191 156.7248840   6.6196733  55.2855530 157.7649231   6.9431028
  55.7162323 156.0990295   7.3762922  55.8004417 156.7167358   5.6830215
  51.5885124 156.5072174   5.5590830  50.7836380 156.3239594   6.4878831
  51.3539886 156.0787506   4.3028393  52.0534744 156.1997070   3.5843720
  50.1026573 155.4319916   3.9192641  49.3855515 155.4903107   4.7380795
  49.5212860 156.0416870   2.6398602  50.2609253 155.9236603   1.8479635
  48.6050301 155.5005493   2.4037735  49.0691223 157.4770966   2.7784290
  49.9017448 157.9833679   3.2668140  48.8118362 158.0252991   1.3852361
  48.0299911 157.4523163   0.8867288  48.4018898 159.0336456   1.4425699
  49.6943016 157.9158020   0.7548680  47.8516769 157.6318359   3.6477292
  48.1174583 157.2327423   4.6265936  47.6282539 158.6916046   3.7705197
  46.9824257 157.1401672   3.2109759  50.2099266 153.8914948   3.7968154
  49.3993568 153.0947723   4.3236527  51.3235931 153.5265350   3.1714218
  52.0630112 154.1341095   2.8485985  51.5909042 152.0849762   2.9173183
  51.2763786 151.5058136   3.7855051  50.7673721 151.6132812   1.6693043
  49.7669983 152.0201721   1.8169119  51.1085510 152.1559296   0.7876940
  50.5797462 150.0902710   1.4797922  51.5747337 149.6701508   1.3328042
  50.1590881 149.6798859   2.3977993  49.6483688 149.8738251   0.2921196
  48.4301186 149.9755402   0.4506519  50.2126884 149.5797272  -0.8035953
  53.0834999 151.8086700   2.7461381  53.8033409 152.7610626   2.3959725
  53.4971428 150.5196686   2.9650519  52.8743286 149.7487335   3.1595883
  54.9499130 150.1064301   2.7275586  55.4070969 150.8685913   2.0965331
  55.7847977 150.0846252   4.0274568  55.3713799 149.2488556   4.5919890
  57.2676659 149.7845917   3.7399473  57.7409401 150.6764832   3.3292928
  57.7525330 149.4995880   4.6736393  57.3596687 149.0451355   2.9444327
  55.7416039 151.3975830   4.8241053  56.3270493 152.1276703   4.2652416
  54.7045326 151.7133789   4.9375472  56.3416176 151.3116302   6.2373438
  57.3966904 151.5815125   6.2829599  55.9266968 152.1737976   6.7594628
  56.1643753 150.3780518   6.7713270  54.9933548 148.8352814   1.9387239
  54.7173805 147.7612610   2.4333608  55.4891624 148.8916473   0.7002642
  55.7016373 149.7794189   0.2680590  55.7349854 147.6909180  -0.1557962
  55.1967316 146.8158417   0.2083975  55.3472900 147.9488220  -1.6535634
  54.3321342 148.3453522  -1.6354655  55.9049416 148.7687531  -2.1061456
  55.4343491 146.6554871  -2.5131407  56.4624138 146.3127899  -2.6304169
  54.7664452 145.9072113  -2.0864117  54.9106598 147.0143585  -3.9089811
  53.8628731 147.2846985  -3.7779806  55.5025940 147.8260956  -4.3318343
  55.0981255 145.8201752  -4.8393092  55.2912331 144.9038239  -4.4610057
  54.8116837 145.8902588  -6.1325483  54.7203751 147.1186981  -6.6699638
  54.9648056 147.8886108  -6.0636754  54.4494476 147.2743835  -7.6304131
  54.6547165 144.8560791  -6.8956623  54.6456833 143.9345398  -6.4824109
  54.5683937 145.0108337  -7.8899956  57.1715355 147.3267975   0.0265207
  58.0447731 148.1834259   0.2162674  57.4687119 146.0296021  -0.1244876
  56.7413216 145.3335571  -0.2052833  58.8843689 145.5438385  -0.1938186
  59.5506554 146.4045868  -0.1366935  59.1712608 144.6216888   1.0301431
  58.6241798 143.6789246   1.0308642  60.7032776 144.2564697   1.0181794
  61.3060760 145.1638184   0.9800217  60.8644257 143.6676483   1.9211893
  60.7795830 143.5403137   0.2000095  59.0168991 145.3356171   2.2929463
  58.1829605 144.9852905   2.6145241  59.1790314 144.8754425  -1.5404192
  58.5852089 143.8769531  -1.9448258  60.1216431 145.4524536  -2.3206978
  60.5904198 146.2587738  -1.9331421  60.4840927 144.8731079  -3.6708763
  59.5505905 144.4884186  -4.0815897  61.0457382 145.9609680  -4.6335201
  61.8521423 146.4748993  -4.1103687  61.4874268 145.4143219  -5.4667096
  59.9808311 146.7957916  -5.3074498  59.2929497 146.1206055  -5.8164001
  59.4619637 147.3795166  -4.5470867  60.4278069 147.7681732  -6.3623052
  60.8784409 148.8468781  -6.0588222  60.3375397 147.3860474  -7.6209273
  60.8156395 147.9265594  -8.3275871  60.2430458 146.4291992  -7.9301405
  61.3572769 143.6188202  -3.6171298  62.0790062 143.3288727  -2.6265931
  61.2971687 142.8787384  -4.7243695  60.7817001 143.2307281  -5.5184088
  61.8998260 141.5745697  -4.9150367  61.5812302 140.9897766  -4.0521235
  61.4351578 140.9413757  -6.2224212  61.8068619 141.4716949  -7.0991707
  61.9381866 139.9752502  -6.2633662  60.0483856 140.7720032  -6.2156725
  59.8741302 139.8316345  -6.1322765  63.4282722 141.6539612  -4.9696741
  64.0781479 140.6391449  -4.7048917  64.0211182 142.8310699  -5.2300234
  63.3866310 143.4981995  -5.6453114  65.4267731 143.1543884  -5.0830336
  66.0168152 142.2820892  -5.3642063  65.7810974 144.3887939  -5.9626513
  66.8599243 144.4456635  -6.1075644  65.3667679 144.2627869  -6.9629273
  65.3765945 145.7426453  -5.5477881  65.0054779 145.9451904  -4.3910723
  65.4391861 146.6542053  -6.4032097  65.9139633 143.3316498  -3.6250057
  67.1210251 143.3846741  -3.3503137  65.0263443 143.4848785  -2.6311607
  64.0517349 143.3342896  -2.8492434  65.2395172 143.7431946  -1.2016847
  64.6818924 142.9293060  -0.7382840  66.3124542 143.6525726  -1.0322903
  64.7692032 145.0912170  -0.6847097  64.3721542 145.1974487   0.4672178
  64.7353668 146.1641388  -1.4778234  64.7662201 146.0098724  -2.4754965
  64.4455261 147.5293427  -0.9674675  64.8742447 147.7214203   0.0161004
  65.1521912 148.7301636  -1.7191491  65.0497971 149.5783386  -1.0422363
  66.6530533 148.5086975  -1.8413264  66.8544769 147.6882782  -2.5301225
  67.2097168 149.4310455  -2.0071533  67.1576538 148.1327820  -0.9512873
  64.6311111 149.2145691  -3.1364403  65.4170532 149.5345917  -3.8205228
  64.3292465 148.3158875  -3.6743698  63.5783958 150.3203125  -3.1786637
  63.8267593 151.0792084  -2.4367108  63.5086555 150.8207245  -4.1444860
  62.6373978 149.7813416  -3.0684755  62.9286766 147.8501587  -0.8220308
  62.0614395 147.2757111  -1.4812877  62.5075569 148.7670593   0.0322260
  63.2487106 149.2630463   0.5063555  61.1604347 149.1958771   0.2789451
  60.4337502 148.4429169  -0.0261226  60.8769913 149.3871460   1.8139945
  61.2662086 150.3463898   2.1552761  59.7905998 149.3760834   1.9019449
  61.3786392 148.2496490   2.6776662  61.0409698 147.2986755   2.2656691
  62.4683609 148.2362976   2.6984842  60.7247047 148.2869415   4.0892830
  61.0395279 149.1249390   4.9411545  59.8152122 147.3081207   4.3391504
  59.3509979 147.3760834   5.2335696  59.5526619 146.5389709   3.7395084
  60.7264671 150.4356232  -0.5253620  61.5354538 151.3104858  -0.8779569
  59.4354820 150.5351105  -0.7536775  58.9343071 149.6832733  -0.5455855
  58.7348824 151.6282654  -1.4810467  59.3795738 152.4907227  -1.6503386
  58.3255463 151.1461182  -2.8696713  57.7657356 150.2136536  -2.7973068
  57.5808868 151.8737793  -3.1922884  59.4438248 150.9180145  -3.9043880
  60.3586273 150.5341339  -3.4528811  59.1590500 150.1827698  -4.6570001
  59.8683128 152.0840302  -4.7015352  59.6122055 153.2402954  -4.4316711
  60.6264877 151.8430023  -5.7365165  61.0348358 152.6209869  -6.2346153
  60.9123840 150.8863525  -5.8887525  57.5303001 151.9805298  -0.6259547
  56.7478828 151.0924683  -0.2551604  57.3453064 153.2536621  -0.3317125
  57.9968452 153.9168396  -0.7264164  56.3801041 153.6574707   0.6500805
  55.7345963 152.8500061   0.9956278  57.0950584 154.1749573   1.9192448
  57.6581650 155.0858307   1.7159644  56.3908882 154.4737091   2.6957691
  57.8026810 153.4358521   2.2948680  55.4206772 154.7241211   0.0304974
  55.8288040 155.7878876  -0.4199914  54.0810776 154.4969025   0.1006658
  53.7906685 153.7707367   0.7397664  53.1098938 155.5507050  -0.2555883
  53.4397964 156.0546722  -1.1640489  51.7378006 154.9784088  -0.4898465
  51.4291382 154.3817139   0.3685125  51.1126137 155.8633270  -0.6088395
  51.6701393 154.2240143  -1.8211788  52.0466156 154.8362122  -2.6406770
  52.2821579 153.3374786  -1.6550498  50.2711029 153.7454834  -2.1009433
  50.0670929 152.9929352  -1.3392648  49.6072426 154.6069183  -2.0280671
  50.1397324 153.1790619  -3.5448997  49.1360512 153.3296356  -3.9424579
  50.7083969 153.8229218  -4.2158499  50.3712807 151.7046509  -3.6697760
  49.6516571 151.1512909  -3.2270260  50.3918343 151.4816742  -4.6546407
  51.2232246 151.4430542  -3.1945333  53.0330544 156.6252441   0.9084160
  52.9121323 156.2424927   2.0907996  53.1550179 157.9061279   0.5796152
  53.2543678 158.2136230  -0.3772967  53.2160110 158.9626312   1.5770462
  52.8785820 158.5999908   2.5479934  54.7257042 159.3852692   1.7486233
  54.7828674 160.2282410   2.4372702  55.6259384 158.2696228   2.3628726
  55.5334625 157.3972931   1.7158787  56.6639557 158.5828705   2.4746873
  55.1901169 158.0404205   3.3353035  55.3611412 159.7873383   0.4042169
  54.8104630 160.5582428  -0.1348314  56.3908501 160.0776672   0.6127990
  55.5260239 159.0439148  -0.3756700  52.4084663 160.1914673   1.1863332
  52.1495743 160.3672638  -0.0091830  52.0258675 161.0755615   2.1230035
  52.0616112 160.6873322   3.0547206  51.5164337 162.4509430   1.8602452
  51.3885727 162.5828705   0.7858382  50.0629921 162.6054688   2.4214306
  49.3260460 161.9604187   1.9429743  50.0746574 162.4862976   3.5048347
  49.5540924 164.0612793   2.3460195  50.1994057 164.7866821   2.8414607
  49.5272636 164.4033356   1.3114287  48.1713867 164.1089478   2.9552681
  47.3730888 163.2290039   2.6671751  47.7186584 165.1056824   3.7455590
  46.7959633 165.0323486   4.1497283  48.2426491 165.9682007   3.7855325
  52.4787903 163.4871674   2.4531016  52.8650131 163.4709778   3.6384709
  52.9745789 164.3842163   1.5575122  52.4910240 164.2549591   0.6802617
  53.8445435 165.5106354   1.8524212  54.6900864 165.1426392   2.4335842
  54.5341606 166.0949097   0.5784778  53.7364693 166.0109558  -0.1595882
  54.8664055 167.5583496   0.6567351  55.3592224 167.7743073   1.6046779
  55.4506607 167.8658905  -0.2105432  53.9650612 168.1652985   0.5712383
  55.8803749 165.3511353   0.2317627  56.2542038 165.6441345  -0.7493103
  56.6576500 165.7146301   0.9039372  55.8805008 163.8200989   0.2080457
  55.0342674 163.4927521  -0.3959604  56.7699928 163.3242645  -0.1806175
  55.7111435 163.5054626   1.2378154  53.1250496 166.4331360   2.8440492
  52.2136421 167.1760101   2.4397399  53.5235748 166.4224548   4.1222138
  54.3767357 165.9000244   4.2610993  53.0243073 167.3714447   5.1052694
  51.9445343 167.3837891   4.9568000  53.2324219 166.8563232   6.5476408
  54.2907257 166.6181030   6.6541753  52.9966240 167.5804749   7.3274412
  52.3691330 165.5895386   6.8936300  52.6520386 164.7146606   6.3082528
  52.5702705 165.2549133   8.3887901  52.3369102 166.1378479   8.9838209
  51.9119110 164.4165497   8.6163855  53.5667076 164.8387604   8.5372543
  50.8216553 165.9131622   6.7132912  50.5992203 165.9156799   5.6462293
  50.1317940 165.2957611   7.2886248  50.5325356 166.8774719   7.1311598
  53.4967003 168.8619690   4.9864993  54.6921463 169.0331421   4.7757225
  52.5684929 169.7898254   5.2197876  51.1317177 169.7236176   5.4048982
  50.9822464 169.1877594   6.3422446  50.6383057 169.2437744   4.5596771
  50.6208649 171.2083130   5.4486928  50.7153244 171.5900421   6.4652905
  49.6361122 171.3306732   4.9977059  51.7162552 171.8899689   4.6579628
  51.5935402 172.9606018   4.8216376  51.6764717 171.7318726   3.5802240
  53.0145340 171.1897888   5.0935926  53.7378311 171.3057709   4.2864437
  53.4875069 171.8329163   6.3886714  53.1361389 171.3815613   7.4979148
  54.0559845 173.0136719   6.3027172  54.2068062 173.4849701   5.4222465
  54.1235504 173.9346161   7.4472303  54.3003540 173.3801880   8.3688879
  55.3216667 174.9684906   7.2424483  55.2132683 175.4250641   6.2586346
  55.3085442 175.7277527   8.0244074  56.6999741 174.3754425   7.4042697
  56.9011078 173.5885315   6.6773558  57.4327965 175.1529694   7.1885800
  56.9457016 173.8150024   8.7815590  57.4658394 174.5623322   9.6756363
  56.6378860 172.6131897   9.1009274  52.7796440 174.6791077   7.5621390
  52.2513161 175.1858826   6.5630827  52.2574654 174.7873383   8.8022709
  52.6326523 174.4287872   9.6687412  51.0163460 175.6223755   8.9717827
  50.5424652 175.7107086   7.9941659  49.9699554 174.9541168   9.8551807
  50.4418259 174.8366547  10.8307009  49.1118164 175.6222076   9.9284821
  49.5964699 173.5379333   9.3144283  49.2364769 173.5721436   8.2861586
  50.4456291 172.8578796   9.3818350  48.4891434 172.8001099  10.1077557
  48.2735062 171.8486938   9.6215343  48.7085152 172.5767059  11.1518183
  47.2667809 173.6233826  10.0218582  46.8865929 173.5650482   9.0879660
  46.4535675 174.1303711  10.9545898  46.8591995 174.2953339  12.1855793
  47.7804222 173.9323425  12.3848009  46.1605797 174.6767578  12.8072996
  45.2794724 174.5854187  10.7376213  44.8095627 174.3780975   9.8679628
  44.6707458 174.6651917  11.5396137  51.4692268 177.0149536   9.4284315
  51.4665909 177.2641602  10.6239786  51.8479691 177.8374329   8.4562826
  51.8766632 177.5151825   7.4995008  52.5161285 179.0963898   8.6845512
  53.2945595 179.0367737   9.4452028  53.2942810 179.4800873   7.3880982
  52.7064438 179.3789062   6.4757900  53.7706795 180.9380646   7.4560723
  54.1042976 181.2554169   8.4440517  54.6298866 180.9278259   6.7854319
  52.9187546 181.5260468   7.1145887  54.5256042 178.5155945   7.1593270
  54.0876541 177.5235596   7.0489964  54.9045410 178.6609650   6.1477065
  55.3424072 178.6382904   7.8705788  51.4338646 180.1490784   9.0426712
  50.4230576 180.2755432   8.4170094  51.5422173 180.7837677  10.2367067
  52.3985329 180.6899567  10.7639894  50.6054382 181.7057343  10.7838688
  49.6475105 181.6201782  10.2708826  50.2634010 181.2131348  12.2372904
  51.1548958 181.1981354  12.8642788  49.5529518 181.9425507  12.6262827
  49.5307655 179.8234406  12.3057652  49.9356842 179.0545044  11.6478443
  49.5411072 179.2942352  13.7965326  48.8089790 179.8113251  14.4167824
  49.1657715 178.2746887  13.7085505  50.6030083 179.3587036  14.0338488
  48.0332298 179.9588165  11.9846811  47.8996468 180.4944763  11.0448217
  47.7441597 178.9234314  11.8043690  47.4318695 180.3871155  12.7865715
  51.1019135 183.1653290  10.6280413  52.2811508 183.4680481  10.8342876
  50.1652374 184.1803436  10.5260105  48.7252007 184.0620728  10.3406763
  48.2552032 183.4079742  11.0750961  48.5894737 183.6659088   9.3343306
  48.0373116 185.4561310  10.5664434  47.7152481 185.6333923  11.5925808
  47.2270660 185.6921692   9.8765936  49.2835426 186.2888641  10.1555452
  49.2266006 187.3060760  10.5430164  49.1884766 186.2590637   9.0701084
  50.5782318 185.5826721  10.5716162  51.4370193 185.7241516   9.9154339
  50.9118004 186.0295715  12.0216856  50.7341766 185.3051147  12.9750605
  51.1983604 187.3228760  12.2018433  51.4983597 187.9203796  11.4448061
  51.2226677 187.9689941  13.4809160  52.0469894 187.5994110  14.0908375
  51.4411125 189.5048828  13.2510681  52.3569145 189.6721954  12.6841307
  50.6442795 189.9295654  12.6404848  51.4680405 190.2582703  14.4545603
  51.6402092 191.1908264  14.3052835  49.8783913 187.6974182  14.1638432
  48.8133507 187.7986145  13.5598612  49.9063644 187.4086304  15.4677639
  50.7529030 187.5323792  16.0045624  48.6992569 186.9999847  16.2321682
  48.2069168 186.2166595  15.6558771  49.1084862 186.3196869  17.5884323
  48.2426186 185.8739166  18.0779934  50.1515350 185.1933289  17.3328037
  51.1317253 185.4499359  16.9309540  50.5022736 184.7629089  18.2707901
  49.6867256 184.4861298  16.6458454  49.6853104 187.3458099  18.4350681
  50.2109680 186.8895874  19.0962448  47.7254372 188.1161346  16.5772495
  46.6432114 187.7888489  17.0586166  48.0746727 189.3757324  16.3170795
  49.0184441 189.5508881  16.0028896  47.1717072 190.5126648  16.5129070
  46.3576431 190.3115387  17.2092876  47.9801941 191.7919617  17.0161133
  48.7714539 192.0345917  16.3067913  47.3473015 192.6776276  16.9601822
  48.5511627 191.7587433  18.3595772  49.2459908 190.9268799  18.4748821
  49.1875191 192.6395264  18.4455795  47.3537178 191.9878693  19.6766853
  47.1801491 190.2480469  20.1921329  48.1236191 189.7052155  20.2495499
  46.7632790 190.1430206  21.1937752  46.4092674 189.7574463  19.5978584
  46.5719070 190.8537750  15.1491356  45.7339096 191.7389374  15.1099701
  47.0374985 190.2671661  14.0467529  47.7299385 189.5319061  14.0533295
  46.7207756 190.7991638  12.7196865  47.1762962 191.7851257  12.6277342
  47.3769073 189.9565277  11.6330233  47.3712502 190.5135345  10.6961136
  48.4231644 189.8209839  11.9070377  46.7719498 188.6726379  11.4056988
  46.4919930 188.5279694  10.4988947  45.1779518 191.0187531  12.4649868
  44.7282448 192.0795593  11.8773088  44.3983040 190.1392822  12.9716682
  44.8872528 189.3657379  13.3990412  42.9365921 190.0399628  12.8440828
  42.7647400 190.4496765  11.8487349  42.5824661 188.5673065  12.7538939
  43.0116653 188.2736816  13.7118454  41.5127754 188.3607941  12.7888203
  42.9888573 188.1224365  11.8455725  42.0622063 190.9622498  13.7464886
  40.8973846 191.1891632  13.5099230  42.6876106 191.4638367  14.7951012
  43.6350822 191.1205444  14.8626289  42.1801071 192.4070435  15.7795630
  41.1058464 192.4757080  15.6082659  42.2339897 191.8287506  17.2300072
  42.1568718 190.7528992  17.0728569  43.5555992 192.2425842  17.9134178
  43.5275230 193.2901306  18.2133141  43.6083145 191.7908630  18.9040146
  44.4101753 192.0336456  17.2698746  41.0154343 192.2410736  18.0894356
  40.1601486 191.7384949  17.6377735  41.2832031 191.8220520  19.0593910
  40.8874435 193.3195648  18.1820450  42.7238274 193.8749084  15.6191254
  42.0372162 194.8209839  16.0373058  43.8834343 194.0890961  14.9913549
  44.4611626 193.2632904  14.9252195  44.5921021 195.3528442  14.9524632
  44.2033730 195.9206238  15.7978230  46.0996590 195.1669617  15.1648216
  46.3910866 196.1598053  15.5075092  46.3236160 194.5277557  16.0188408
  46.9994507 194.6938782  14.0144987  47.1166725 193.6198120  14.1585760
  46.4588509 194.7716370  13.0711994  48.3736458 195.2682800  13.7949982
  48.7883186 196.1150970  14.6314812  49.1042404 194.8145599  12.8161716
  50.0789528 195.0708923  12.7503433  48.7470856 194.0395660  12.2758789
  44.2496796 196.2666779  13.8161907  44.9978447 197.1799927  13.4453783
  43.0961227 196.0628815  13.1761122  42.5569878 195.2501221  13.4385386
  42.6320343 196.9180908  12.0877695  43.5114594 197.0357056  11.4546175
  41.5196075 196.1393433  11.2417555  40.8755150 195.5251617  11.8710527
  40.9433975 196.9710999  10.8364468  42.0944786 195.3967590  10.0473137
  42.7489395 196.0242157   9.4422750  42.9758263 194.1890717  10.5481672
  42.5976830 193.7685242  11.4799681  42.9783020 193.3703613   9.8285675
  44.0102921 194.4998627  10.6944284  41.0454292 194.7378235   9.2066994
  40.2671928 195.4400787   8.9078894  41.4390182 194.2089539   8.3386736
  40.5626259 194.0005035   9.8480644  42.1516533 198.2319794  12.6076927
  40.9712257 198.4616241  12.9513683  43.0044708 199.2185974  12.5935173
  43.9221153 198.9348297  12.2812662  42.8528061 200.6408691  13.0482283
  41.9834251 201.0488281  12.5326300  42.6929703 200.7036591  14.6205044
  42.6059341 201.7524414  14.9043779  41.7812386 200.2049255  14.9493227
  43.7914162 199.9886932  15.4481344  43.9748039 198.9835510  15.0684719
  44.7468605 200.5130463  15.4649048  43.4359970 199.8783569  16.9327202
  43.6660919 198.8471680  17.5275898  42.8728256 200.8750153  17.6102581
  42.5784187 200.7212524  18.5640831  42.5481911 201.6741638  17.0848160
  44.0065536 201.4872589  12.4640388  44.9523926 200.9029694  11.9499702
  44.0149841 202.7693939  12.7174101  43.2190437 203.1474457  13.2110281
  45.0901680 203.6841736  12.2285643  45.1593399 203.5595398  11.1479225
  44.6535721 205.1412659  12.5351648  45.5545807 205.7540436  12.5071402
  44.0489044 205.4908905  11.6983624  44.1051407 205.2152863  13.8454552
  43.7512321 206.1068878  13.8830872  46.4918289 203.4087982  12.8672895
  47.5431633 203.8538513  12.3241587  46.6117744 202.7916412  14.0760794
  45.7705116 202.4856110  14.5437603  47.9308395 202.3752747  14.7094927
  48.6511765 203.1923065  14.7503767  47.6927528 202.0333099  16.1887360
  46.8360405 201.3597717  16.2107258  48.5060577 201.4162445  16.5706787
  47.5215340 203.2635803  17.1004105  48.2393150 204.0238342  16.7923717
  46.1101151 203.9823608  17.0864296  45.3229637 203.2886353  16.7910671
  45.9123116 204.4971771  18.0266113  46.1155052 204.7606201  16.3232880
  47.8525352 202.8733215  18.5361633  48.8865509 202.5301514  18.5701351
  47.8733902 203.6839600  19.2645397  47.1891632 202.0870667  18.8965073
  48.7080383 201.1955872  13.9972105  49.8469505 201.0145264  14.2760439
  48.0535316 200.4591064  13.1606922  47.0950737 200.6806946  12.9318743
  48.6855621 199.2730560  12.6026163  48.8908424 198.6282196  13.4570999
  47.7693024 198.5760803  11.6886053  48.2725029 197.6390228  11.4502382
  46.9234314 198.2324677  12.2840405  47.4435234 199.4094391  10.5392666
  46.5120049 199.6220703  10.6323433  50.0652084 199.4898987  11.9109497
  50.9543839 198.6559753  11.8614883  50.2399292 200.7445374  11.3719301
  49.4652481 201.3912506  11.3302813  51.5518112 201.2371368  10.8887358
  51.9485359 200.4117432  10.2975969  51.2655945 202.3516235   9.7804632
  52.1132660 202.4234161   9.0989933  50.4581184 201.8961792   9.2071857
  50.8534393 203.6446075  10.4907417  49.8327637 203.4813690  10.8366823
  51.5567894 203.8948212  11.2849693  50.8082428 204.8409576   9.5603180
  51.7638931 205.3408051   9.4022360  50.4975586 204.4217224   8.6033297
  49.6953011 205.7850037   9.8762627  48.7812538 205.4907990   9.5631161
  49.7918053 206.9442139  10.4112339  50.9184074 207.3983154  10.7799082
  51.7410812 207.0046234  10.3459549  50.8618317 208.2867126  11.2570467
  48.7426109 207.6129456  10.7257080  47.8105354 207.2407990  10.6123419
  48.9357567 208.5347290  11.0905333  52.6885719 201.6182098  11.8841200
  53.7683029 201.9897919  11.4064350  52.5091019 201.4547882  13.2339964
  51.6225204 201.0614929  13.5157690  53.6381035 201.4819641  14.2160206
  54.1107941 202.4592133  14.1178122  53.0211906 201.4973907  15.6069708
  52.1661606 200.8264923  15.6901484  53.7450562 201.1471710  16.3428173
  52.5190659 202.8666687  16.0001411  53.3157425 203.5957794  15.8524952
  51.6745720 203.1485138  15.3712654  52.1899071 202.9743652  17.4976692
  51.2369194 203.5032654  17.5108261  52.0479813 202.0223694  18.0092087
  53.2078285 203.6956177  18.2745419  53.9235611 204.0642090  17.6646423
  53.3168335 203.8399658  19.6196976  52.3990784 203.3384552  20.3504620
  51.5431671 203.0532379  19.8964062  52.4093437 203.3725891  21.3598328
  54.3286171 204.4405670  20.1918316  55.0222588 204.8347321  19.5724831
  54.4073410 204.6970825  21.1655369  54.6854134 200.3413544  14.0609856
  54.5245209 199.2438965  14.6606474  55.6571922 200.5842743  13.1817904
  55.7305336 201.4996033  12.7612276  56.4807892 199.4873505  12.6470718
  55.9264717 198.5554657  12.7585917  56.5910721 199.7554779  11.0846672
  55.6647415 200.1859894  10.7042971  57.3693352 200.5174408  11.0420341
  56.8785362 198.6720428  10.1094790  57.8715515 198.6901245   9.0987711
  57.5916862 197.5284424   8.4219904  58.2619133 197.1843872   7.6481533
  56.5362549 196.8892212   8.8812122  56.2291222 196.0146027   8.4802065
  56.0251236 197.6038513   9.9189968  55.1201057 197.3593903  10.4552650
  57.8129730 199.2696991  13.3624020  58.0065460 199.8898621  14.4014578
  58.6736832 198.4035492  12.8426466  58.4517288 198.0733185  11.9143209
  59.8384514 197.7456665  13.4600792  59.6898499 197.8368530  14.5360518
  59.7550583 196.2727356  13.1122952  60.7003822 195.8296661  13.4255657
  58.6338882 195.5498657  13.8955603  57.6380463 195.8479309  13.5676050
  58.8903542 194.4908447  13.8669243  58.8109894 195.7479401  14.9526806
  59.4995537 196.0132751  11.5940475  58.4244232 196.0565338  11.4199152
  59.9592323 196.8099823  11.0091848  60.1562996 194.6911469  11.1807995
  59.8733292 193.8357849  11.7943153  59.7813187 194.4723053  10.1809978
  61.2326546 194.7567749  11.0218887  61.2390747 198.3979645  13.1893778
  61.3867111 199.0773010  12.1734257  62.3120422 198.2888031  13.9414101
  63.0698776 198.7946014  13.5055819  62.8135605 197.1659241  14.7824945
  63.7547989 197.5092621  15.2117767  61.9800568 197.0496368  16.0751686
  61.0960770 196.5300751  15.7053900  62.5007095 196.2785645  16.6430264
  61.7169762 198.2150726  17.0321732  62.5320206 199.4032440  17.0024471
  63.3651543 199.5060577  16.3229485  62.2587585 200.3548431  18.0042038
  62.9687881 201.1683044  18.0273037  61.1946793 200.1855927  18.9318142
  61.1075287 200.8476410  19.7806454  60.3522797 199.0949707  18.8694153
  59.5093536 199.0501404  19.5431099  60.6060410 198.1409149  17.9156399
  59.9249725 197.3036346  17.8768063  63.2489014 195.8515778  13.9638567
  63.6345482 196.0561523  12.7888937  63.2696724 194.5705872  14.4597769
  62.1908760 193.9664154  15.2650681  61.3603668 193.8365784  14.5711651
  61.8141212 194.4170532  16.1832676  62.6461029 192.5604858  15.6664419
  61.8820839 191.7892761  15.7644539  63.1812820 192.6859436  16.6076870
  63.5562744 192.2503967  14.4534988  62.8725128 192.0545959  13.6275244
  64.2298508 191.4072266  14.6067228  64.2874146 193.5784760  14.2749395
  65.0525513 193.6837921  15.0440779  64.9372864 193.6135406  12.8991241
  64.3437805 193.4676208  11.8046093  66.2436981 193.8834381  12.8593311
  66.5274353 194.1224213  11.9199314  67.2775269 194.0016479  13.9624939
  68.2126541 194.0372314  13.4035912  67.3836441 192.6929016  14.8277845
  68.3979797 192.6980591  15.2267809  66.7225647 192.8148041  15.6858168
  67.1873016 191.4752045  14.0841875  67.3034973 191.7509308  13.1720057
  67.2267151 195.2916260  14.7716055  66.2651520 196.0430603  14.8680735
  68.3914185 195.6421967  15.3909912  69.2080307 195.0563354  15.2909746
  68.4706116 196.7328644  16.3679390  67.5633240 197.3312988  16.2854214
  68.4213791 196.1201782  17.7497883  68.0858078 195.0832214  17.7356052
  69.4339600 196.0954590  18.1524963  67.7313919 196.8298950  18.6766605
  66.7946243 196.6460266  18.5753880  69.5057144 197.8688354  16.1765499
  69.4701996 198.8786316  16.8672848  70.5638428 197.8049164  15.3422241
  71.0356674 198.6871490  15.2038317  71.2064133 196.7611694  14.5914850
  72.2402191 197.1011505  14.5302649  70.6395187 196.6588745  13.1272860
  69.7187653 196.0819244  13.2135696  70.3422012 197.6703033  12.8503342
  71.4660645 195.8582001  12.0740833  71.6538544 194.8505859  12.4449558
  70.8489685 195.7383575  11.1836138  72.8536987 196.4900360  11.7876253
  73.4233246 196.5110626  12.7167006  73.4292145 195.8801880  11.0912294
  72.6768646 197.9297791  11.2962675  71.9093933 198.3788147  11.9267187
  73.5483704 198.5787659  11.3822556  72.3671799 197.8882751   9.8811636
  71.6165390 197.2346497   9.7096405  71.9298325 198.7697601   9.6535482
  73.1337509 197.7674713   9.2347288  71.4919815 195.4851227  15.3651676
  70.7816772 194.4930267  15.0732975  72.2700424 195.5212250  16.4469528
  72.1399612 194.5037079  17.4871082  72.0854263 193.4683075  17.1508904
  71.3541641 194.7678833  18.1948109  73.4134140 194.5167847  18.2569466
  73.7492142 193.5705566  18.6812057  73.3120193 195.3656158  18.9331932
  74.4362183 194.8977509  17.1683388  75.3708878 195.3229218  17.5340233
  74.6497192 194.0619049  16.5021114  73.6441422 195.9115601  16.3161011
  73.9592361 195.7871094  15.2800856  74.0292053 197.3720245  16.6844387
  73.4637451 197.9246216  17.6428795  75.1741638 197.8979492  16.1991196
  75.6328430 197.3546295  15.4818153  76.0226288 199.0303955  16.6698704
  76.8209229 199.0652313  15.9285116  75.2852631 200.3600616  16.6304417
  75.0072250 200.4416046  15.5796585  74.3943176 200.3301239  17.2576752
  76.0039062 201.6463776  17.1727314  76.1464005 201.6111603  18.2528038
  77.0120926 201.7729797  16.7782173  75.2078323 202.8831635  16.9063129
  74.2775955 202.7762756  17.4642830  75.7275162 203.7708588  17.2669048
  74.8058243 203.0241089  15.4175129  75.6866989 202.6470490  14.8978987
  73.9402084 202.3860474  15.2394695  74.4837570 204.4419708  15.1021652
  75.3142014 204.9787903  15.3078327  74.3393021 204.4845886  14.1034565
  73.6067200 204.7585907  15.4903202  76.7674332 198.7141113  18.0059147
  77.9279861 199.0363007  18.1443024  76.1366577 197.9431763  18.9211693
  75.1742020 197.7059174  18.7275620  76.7172546 197.5121918  20.1992989
  77.5305176 198.2115479  20.3932381  75.6747971 197.6419830  21.2932549
  76.1285400 197.1575317  22.1578465  75.3236389 199.0975800  21.5414009
  74.7372131 199.5235748  20.7273140  74.7981186 199.0522919  22.4952736
  76.1542664 199.7856445  21.6986523  74.4292374 196.8356171  21.0486641
  74.7422028 195.8692932  20.6532478  73.8314133 196.7006531  21.9500465
  73.7636871 197.3274841  20.3392887  77.4348145 196.1742706  20.3182125
  78.2177963 196.0082855  21.2670612  77.3200150 195.2595367  19.3248577
  76.8736496 195.6227264  18.4948235  77.6314697 193.8463593  19.3983212
  77.3633270 193.3907623  18.4450932  79.0917892 193.5809937  19.5715752
  79.4777527 193.7826691  20.5708084  79.3259201 192.5223999  19.4591084
  80.1005859 194.3300781  18.6647720  81.0739670 195.1356506  19.1361237
  81.1766357 195.2418365  20.2059765  81.9262543 195.5236664  18.1159859
  82.7660294 196.0845184  18.1341343  81.6655426 194.7800446  17.0113239
  82.3746185 194.6698608  15.7661495  83.2442093 195.2951355  15.6273584
  81.8504715 193.9069672  14.7315903  82.2440186 193.9543610  13.7269640
  80.6160736 193.2154236  14.9743567  80.2361526 192.5718994  14.1946535
  80.0229187 193.2281647  16.2318916  79.1392441 192.6658478  16.4951401
  80.5089340 194.0396729  17.2805195  76.7184830 193.0745850  20.4294720
  75.5149689 193.2380066  20.3934231  77.2873993 192.2332306  21.3160572
  78.2909164 192.1484375  21.2394428  76.7173386 191.5312500  22.4830551
  77.6378860 191.0161133  22.7575378  75.6807098 190.4205627  22.0906162
  74.9591522 190.2406769  22.8875542  75.0403671 190.6778870  21.2469006
  76.4932098 189.2208405  21.6524277  75.8717804 188.7567291  20.8865719
  77.4072342 189.5466156  21.1558952  76.6124039 188.0593262  22.7013130
  75.6819229 187.6959991  23.4410858  77.7756958 187.4370728  22.8366222
  77.8439407 186.7378845  23.5622826  78.5145874 187.7292175  22.2130909
  76.3708954 192.4580383  23.6676579  76.3394165 193.6674957  23.5159454
  76.2056961 191.8677673  24.8596325  76.1459656 190.8647003  24.9616795
  76.3604355 192.5292511  26.1608944  76.1491089 191.8217773  26.9627075
  77.8085938 193.0174713  26.3424244  77.9889832 193.7834473  25.5882072
  77.8944016 193.4756165  27.3277397  78.8135681 191.8970184  26.0572929
  79.6728897 191.9609222  25.1337204  78.8693924 190.9803925  26.9320030
  75.4644547 193.7568207  26.4172287  75.7494965 194.9066925  25.9641514
  74.3528900 193.5235443  27.1854191  74.1679535 192.5545349  27.4019966
  73.4026718 194.5260010  27.6667500  72.4965057 194.0088501  27.9822102
  73.9835510 195.2171783  28.9932079  73.2115021 195.9192810  29.3079910
  74.0627823 194.4435120  29.7569256  75.2996597 195.9463196  28.9314117
  75.5613403 196.1103668  29.9767418  76.0877686 195.3476715  28.4746895
  75.3623886 197.4259949  28.4592915  74.3855209 197.8906708  28.5931816
  76.0004120 198.0317841  29.1027508  75.9094162 197.6282959  27.1214943
  75.3424149 197.4255829  26.3106174  77.1957703 197.7509766  26.7410030
  78.1840897 197.8562317  27.5800648  77.9574585 197.6959229  28.5511665
  79.1521530 197.8407288  27.2924442  77.5155411 197.7231750  25.4536781
  78.4690170 197.8207703  25.1351414  76.8177490 197.5114136  24.7548599
  72.7723846 195.4476776  26.6070004  72.6065292 195.1358185  25.4472027
  72.2797699 196.6194916  27.0646896  72.2740402 196.6971283  28.0716877
  71.4135666 197.6709595  26.3553753  71.3492508 198.4859924  27.0762596
  72.2031479 198.2875671  25.1592674  72.5981064 197.6242371  24.3897915
  71.5426102 198.9482574  24.5977688  73.0274963 198.8751831  25.5633183
  69.9674835 197.2947235  26.0516472  68.9755096 197.9675598  26.3184853
  69.7743073 196.2207794  25.2700310  70.5786667 195.7230530  24.9159451
  68.4904861 195.7928925  24.6940269  68.1045151 196.7424622  24.3233032
  68.7700729 195.0913391  23.3179893  67.7712097 194.7595367  23.0346565
  68.9907532 195.8673248  22.5850143  69.7645035 193.8513489  23.2114658
  69.3136673 192.5387268  23.3849335  68.2513580 192.4153290  23.5355453
  70.2136078 191.4567261  23.2368793  69.9663315 190.4216614  23.4210167
  71.5272293 191.6574249  22.7386208  72.2590103 190.8699341  22.6348801
  71.9431152 193.0323029  22.5487061  72.9316406 193.2179718  22.1553173
  71.1003113 194.1037750  22.8350105  71.4443207 195.1177216  22.6936893
  67.3424530 195.2976990  25.6506824  66.2633057 194.8925171  25.2721462
  67.5836716 195.3014832  26.9807224  68.5210190 195.5957489  27.2150402
  66.6798782 194.6337433  27.9519157  66.3440552 193.6499786  27.6239853
  67.2613220 194.4606628  29.4055824  67.2031326 195.3854980  29.9795094
  66.5503387 193.8679504  29.9811516  68.6538162 193.7544708  29.5836239
  68.4742966 192.8560181  30.1740818  69.0091095 193.3359222  28.6419868
  69.6707077 194.6885071  30.2965622  70.6820297 194.3010864  30.4199409
  69.6736603 195.5795593  29.6687546  69.2290726 195.1250916  31.6290226
  68.6305084 194.5074310  32.1584778  69.5895996 196.2364655  32.2618217
  70.2573471 197.2534027  31.7424583  70.5883484 197.2361603  30.7883930
  70.2767181 198.1328278  32.2387810  69.1706543 196.3820190  33.4762726
  68.5477600 195.7017975  33.8878403  69.1335526 197.2566681  33.9799805
  65.3796692 195.5039978  27.9904900  64.3083878 194.9259491  27.8081017
  65.5044022 196.8064270  28.2548485  66.4424667 197.1746521  28.3222618
  64.4083710 197.7246552  28.2445698  63.7180748 197.4754486  29.0504780
  65.0122147 199.1165009  28.6335640  65.8594742 199.3168335  27.9777260
  64.2147217 199.8587646  28.5994682  65.6748352 199.1635742  30.0785923
  64.8381653 198.8658142  30.7105885  66.4900208 198.4481506  30.1870193
  66.1529694 200.5795441  30.4909363  67.0635376 201.1685944  29.8610077
  65.6622925 201.1410065  31.5786743  66.0834122 202.0014648  31.8986149
  64.9852448 200.6747131  32.1654282  63.6121407 197.8310242  26.9517918
  62.4108391 198.0764465  26.9086552  64.2521820 197.6081696  25.8374214
  65.2459106 197.4482422  25.9212036  63.6562500 197.4112244  24.4968987
  62.9090042 198.1657104  24.2509995  64.7748642 197.4960175  23.4867058
  64.9846878 198.5649261  23.5252590  65.6282806 196.8641510  23.7327118
  64.3573990 197.1464539  22.0892048  63.8203087 197.9595795  21.1583138
  63.5823441 198.9922791  21.3664017  63.4888268 197.2546844  20.0316792
  63.1189156 197.6920166  19.1998100  63.8385048 195.8788147  20.1510410
  63.8041611 194.8230591  19.2469196  63.3960381 194.9269409  18.2524128
  64.3057861 193.5930481  19.6284389  64.2971497 192.8213043  18.8729744
  64.7412491 193.4286194  20.9826145  65.1960831 192.4752655  21.2076416
  64.7470322 194.4762115  21.8468914  65.1459274 194.4086456  22.8482475
  64.3246689 195.8011780  21.5157738  62.8966103 196.0802917  24.3455906
  61.9519691 196.0647278  23.6069126  63.2800331 195.0008392  25.0147343
  64.1694107 194.9735413  25.4926014  62.4667091 193.7571106  24.9968109
  62.2074585 193.5497437  23.9585972  63.2444916 192.4909363  25.4902916
  63.9534454 192.7885437  26.2628880  62.5448532 191.8476257  26.0239334
  63.9339104 191.6923981  24.4661293  65.2778625 191.4450378  24.4002419
  66.0501022 191.8334045  25.0477085  65.5195694 190.6562805  23.2593346
  66.4376907 190.3108063  23.0189056  64.3880920 190.4222412  22.5337811
  64.1214752 189.9280701  21.2562847  64.9492035 189.7916412  20.5760880
  62.7884064 189.9219818  20.7809601  62.6266670 189.7416229  19.7284794
  61.7408333 190.3017120  21.5564709  60.7301559 190.2664795  21.1774063
  61.9878464 190.9017792  22.7994061  61.1761246 191.2673340  23.4108620
  63.3218307 190.9737549  23.2823353  61.1195068 193.9420624  25.6575775
  60.0637665 193.5305634  25.1434250  61.1026154 194.7932587  26.7767563
  62.0335350 194.9769745  27.1227875  59.8482437 195.2263184  27.4308262
  59.3002129 194.3137360  27.6652489  60.2081947 195.8460693  28.8116817
  61.0397491 196.5469971  28.7387753  59.3363342 196.3550568  29.2226562
  60.5771332 194.8034821  29.8808613  59.7407608 194.1215973  30.0345097
  61.3603172 194.1480255  29.4999485  61.0439568 195.4687347  31.1894989
  61.8001060 196.4608002  31.1617641  60.6610489 194.8953857  32.3285561
  61.0805473 195.3434296  33.1306610  59.8729706 194.2714539  32.4273529
  59.0160599 196.0896759  26.4785461  57.8385010 195.8184662  26.3707466
  59.6621628 197.0594940  25.8274117  60.6341362 197.1443787  26.0884819
  59.1465149 198.0592499  24.9054947  58.2986145 198.5995483  25.3264961
  60.1764069 199.1020050  24.6493645  60.7944832 199.4654388  25.4703388
  60.9101448 198.7270355  23.9358273  59.5689774 200.3693848  24.1600914
  58.9964561 200.0848083  23.2772923  58.8648148 200.7928619  24.8762894
  60.6714668 201.3874817  23.7995892  61.3819733 201.6241608  24.5915909
  61.3206520 200.9731140  23.0282574  60.0598907 202.8054810  23.3536282
  60.8644409 203.3351440  22.8434753  59.2407074 202.5474091  22.6824780
  59.5640945 203.6267700  24.4764042  60.3341789 203.7351837  25.1208534
  59.3712387 204.5926056  24.2526455  58.7507477 203.2475128  24.9397945
  58.6037102 197.3925781  23.6079521  57.5241013 197.7691040  23.2126427
  59.3044930 196.4504700  22.9610310  60.1523781 196.1808624  23.4390564
  58.8364830 195.7964478  21.7258759  58.6350594 196.5752411  20.9903469
  59.9029884 194.9018555  21.1980476  60.7029800 195.4715271  20.7252045
  60.4430351 194.2693024  21.9025497  59.5948868 193.9118652  20.0759335
  59.8457108 194.2746887  18.7351761  60.3935013 195.1878815  18.5551815
  59.5380363 193.3646393  17.7240696  59.8390007 193.5139771  16.6976547
  59.0209160 192.0632477  17.9860916  58.8048019 191.2275848  16.9147015
  58.8523941 191.5246277  16.0030537  58.6784744 191.7319031  19.3617229
  58.1337738 190.8148804  19.5313587  58.8631554 192.6869049  20.3937340
  58.4533424 192.4793091  21.3711605  57.4962502 195.0597992  22.0912056
  56.5101700 195.3745575  21.3730373  57.4694939 194.2391205  23.2073746
  58.3416100 194.1472321  23.7084446  56.2086945 193.7269745  23.7114868
  55.8473320 193.0968933  22.8987617  56.5639572 192.7052002  24.8159599
  56.7503166 191.7847748  24.2626038  57.4926682 192.9912109  25.3097115
  55.4442902 192.4297333  25.8017216  55.0104561 193.3025360  26.2896557
  54.6396866 191.9201813  25.2715511  55.9053841 191.4813385  26.9364204
  56.5616455 190.4534454  26.7022610  55.5045891 191.7987976  28.1582432
  55.7931900 191.1892548  28.9100914  54.8648605 192.5713806  28.2763653
  55.1001244 194.7808075  24.0185947  53.9602814 194.6006927  23.5424747
  55.4391670 195.8699036  24.6836300  56.3735428 195.9247131  25.0631504
  54.5017395 196.9919586  24.9621353  53.6461563 196.4668427  25.3867950
  55.1315613 197.9778137  25.9806404  55.2585182 197.3494720  26.8622169
  56.0405121 198.4423981  25.5984421  54.1579590 199.1451874  26.3484898
  54.0265045 199.6927338  25.4152050  53.2265511 198.7471313  26.7511463
  54.7493019 200.0382080  27.4331989  54.8635788 199.4532623  28.3458214
  55.7295265 200.4470673  27.1880493  53.8294067 201.2542725  27.5911541
  53.9990578 201.8713989  26.7088356  52.7748756 200.9810181  27.6285000
  54.2301636 202.0588074  28.8007183  55.1499252 202.4621887  28.6938019
  53.5921135 202.8017426  29.0477772  54.3028526 201.5337524  29.6604462
  54.0143280 197.6469727  23.6536179  52.8412743 198.0157013  23.5946751
  54.8283005 197.8461304  22.6481247  55.8186417 197.7979584  22.8404846
  54.4457283 198.5387726  21.3563709  53.8056831 199.3892517  21.5912075
  55.7609138 199.0803680  20.7761993  56.0504570 199.7211151  21.6090984
  56.4687157 198.2605133  20.6538963  55.4867287 199.9114990  19.4669151
  54.9359970 199.3017120  18.7506981  54.8943481 200.7968597  19.6978054
  56.7024040 200.5050507  18.7227745  57.4540520 199.7193909  18.6461906
  56.4255447 200.7563629  17.6989155  57.2620811 201.6741638  19.4136772
  56.8332443 201.8579559  20.3094540  58.2538643 202.4791260  19.0079060
  58.8171310 202.2349854  17.8851624  58.4410477 201.5187378  17.2804794
  59.5168533 202.8853302  17.5572205  58.6936646 203.5326996  19.7254963
  58.2629471 203.8487701  20.5826340  59.4520302 204.1167603  19.4032326
  53.6638603 197.7012634  20.3841267  52.7564621 198.2354431  19.6871338
  54.0880127 196.4316864  20.2531853  54.9403610 196.1694336  20.7273407
  53.5120621 195.4725800  19.2380428  53.2278824 196.0420837  18.3531609
  54.7174034 194.5620880  18.9050922  55.5419312 195.2414703  18.6890354
  55.0383759 193.9510193  19.7487049  54.4610291 193.7081757  17.7141933
  53.5037613 193.2230072  17.9048328  54.4249229 194.2736053  16.7830143
  55.4875145 192.6025543  17.4568672  56.3313370 193.1524200  17.0400677
  55.7129936 192.1189423  18.4073296  55.1219254 191.5270233  16.4005661
  55.8154526 190.6863556  16.4207325  54.1537247 191.0510101  16.5558224
  55.0920525 191.9906464  14.9667549  55.9500389 192.4546509  14.7046995
  54.9440155 191.2380524  14.3096495  54.3123283 192.6174927  14.8282232
  52.2960510 194.7191772  19.7022552  51.3525276 194.6324158  18.9217033
  52.2219467 194.3133698  20.9391632  53.0126762 194.4346161  21.5557251
  51.0206642 193.5966187  21.4805813  50.3608742 193.3538666  20.6476078
  51.4415092 192.3594971  22.1977558  51.9172249 192.5883636  23.1513882
  50.5775146 191.7370605  22.4305305  52.3614807 191.4646454  21.4262199
  51.9672318 190.9572449  20.1478844  50.9870415 191.2092133  19.7708759
  52.8904991 190.1561584  19.4220409  52.5400581 189.5758514  18.5813065
  54.1814537 189.8810425  19.9531803  54.8746147 189.2674713  19.3968830
  54.6040688 190.4189301  21.1976357  55.5957031 190.3195648  21.6137924
  53.6950760 191.2462463  21.8555222  54.0025902 191.6948853  22.7885571
  50.1541443 194.5406189  22.3406754  49.1662025 194.1407471  22.9035568
  50.4335098 195.8537903  22.3683014  51.3538742 196.0666962  22.0109501
  49.5076103 196.9717255  22.7567101  49.7028656 197.2242279  23.7989273
  49.9423943 198.1977386  21.8929920  50.9945450 198.4420624  22.0392361
  49.8366966 197.9034119  20.8488140  49.2614670 199.4623108  22.0917950
  49.4725990 200.3026123  23.1802273  48.6917038 201.3342743  23.0559292
  48.6868782 202.1877136  23.7177525  47.8118248 201.0915985  22.0149612
  46.9705048 201.6292114  21.8624783  48.2203102 199.9354095  21.3678741
  47.7735863 199.4234161  20.5284138  47.9716415 196.6916962  22.4471226
  47.1710014 197.0334167  23.3445930  47.5821953 196.2012024  21.2824593
  48.3368454 196.0068207  20.6399460  46.1845322 196.0169067  20.8996925
  45.6161690 196.9055328  21.1742611  46.1032486 196.0184021  19.3777981
  46.3386612 195.0487976  18.9390011  45.0599785 196.0904999  19.0703964
  47.1539421 197.2725067  18.5622597  47.1638680 196.6928864  17.3585854
  45.4248505 194.8369293  21.4722271  44.2074585 194.7694244  21.2743931
  46.0594177 194.0352020  22.3562946  46.9934158 194.3528900  22.5726624
  45.5076408 192.8870544  23.0656223  45.0013885 192.2920227  22.3055286
  46.7023354 192.1261902  23.6683331  47.1822815 192.7771912  24.3990555
  46.3166962 191.2843781  24.2434158  47.3147125 191.7378540  22.8545208
  44.4938774 193.2821960  24.1038361  43.6165810 192.5025330  24.4799156
  44.4837265 194.5476379  24.4567509  45.1139679 195.2140656  24.0339508
  43.4473686 195.1616821  25.2843533  43.6178665 194.7183533  26.2654209
  43.7749252 196.7015686  25.3109131  43.0877533 197.1668091  26.0176258
  44.7989960 196.7986603  25.6714001  43.6280289 197.1698303  23.9838905
  43.9314766 198.0783386  24.0480995  41.9640884 194.9394684  24.8385372
  41.0799713 194.9561615  25.7305107  41.6596527 194.7275696  23.5719357
  42.4776497 194.8119507  22.9855385  40.3870392 194.3931732  23.0366573
  39.5996513 194.9355164  23.5600891  40.3564339 194.7361298  21.5511913
  41.0704727 194.0380554  21.1142349  39.4077377 194.5609283  21.0438633
  40.7811546 196.1559753  21.1557236  41.6952591 196.4425812  21.6757030
  40.9891815 196.2045288  19.6577682  40.0446930 196.0071716  19.1507282
  41.3576813 197.1940308  19.3872280  41.6772766 195.4211578  19.3400192
  39.6371574 197.0777588  21.5458031  39.5200615 197.0204773  22.6279850
  39.8852196 198.1083374  21.2919292  38.7076607 196.7550049  21.0767975
  39.9948387 192.9267578  23.3571701  38.8463402 192.5480652  23.0884666
  40.9023285 192.0265503  23.7698841  41.8188210 192.3897247  23.9895515
  40.6393547 190.6084442  24.1608276  39.5734978 190.4345551  24.0131168
  41.3821106 189.6043091  23.2514439  40.8125572 188.6806793  23.3545380
  41.3700142 189.9230957  21.7483215  41.9465523 190.8435974  21.6567898
  41.7468185 189.1420441  21.0879536  40.3652153 190.1168060  21.3728867
  42.6900864 189.2741699  23.7259579  43.0494804 188.5165710  23.2585411
  40.8034973 190.2768402  25.6120300  41.0989609 191.1297760  26.4483013
  40.4779091 189.0131683  25.9437923  40.0071640 188.4279633  25.2684841
  40.5367622 188.5767365  27.3207073  40.0836411 189.3530884  27.9371910
  39.7717743 187.2724762  27.5104008  39.9260559 186.8559875  28.5058041
  38.6939011 187.4323730  27.4834461  40.0443954 186.2251282  26.6137295
  39.5990753 185.3944244  26.7960281  41.9686356 188.3682404  27.9181442
  42.0598373 188.0718842  29.1163349  43.0322609 188.5681458  27.1523418
  42.8993950 188.8792877  26.2006874  44.4342003 188.3129730  27.5230484
  44.3309288 187.8294525  28.4944630  44.9898415 187.2993622  26.5454025
  45.0407104 187.8136292  25.5856915  46.0189209 187.0430756  26.7972164
  44.1576614 186.0274811  26.3340836  43.4546204 185.8029938  25.2145824
  43.3558121 186.5438232  24.4349594  42.7641945 184.6291046  25.3143082
  42.1800041 184.3031921  24.5576077  42.9188576 184.0882874  26.5738735
  42.3988724 182.9498291  27.1209316  41.7851410 182.3292694  26.4848175
  42.8697052 182.4560852  28.3540535  42.5315056 181.4847107  28.6833744
  43.8425636 183.2010651  29.0174446  44.2130127 182.9083557  29.9887772
  44.3454132 184.4212952  28.4998569  45.0072365 185.0415039  29.0861454
  43.8861618 184.8940887  27.2613888  45.3909950 189.5213623  27.5902576
  45.4934311 190.2986755  26.6313553  46.2223091 189.6653442  28.6591015
  46.3046532 188.7445068  29.7657089  46.3927803 187.6853943  29.5235596
  45.4237061 188.8836365  30.3923473  47.5348015 189.1241455  30.5363598
  48.3028450 188.4257507  30.2040119  47.4053307 189.0839844  31.6178989
  47.8525352 190.5681458  30.1025620  48.9300537 190.6996613  30.0037861
  47.4250832 191.3210754  30.7647324  47.2653809 190.6281586  28.6313038
  46.8648453 191.6295471  28.4735374  48.4516563 190.4114685  27.5730915
  48.7038002 189.2758789  27.1300373  49.3004456 191.4477234  27.2686005
  49.3184700 192.7951202  27.8522930  49.6901703 192.7659607  28.8765430
  48.3118515 193.2106323  27.8989868  50.2275925 193.7025146  27.0436783
  50.7856750 194.3446808  27.7250633  49.5753365 194.3154144  26.4215679
  51.0698090 192.8105774  26.2222824  52.0370026 192.6904449  26.7103443
  51.1677055 193.1993256  25.2086811  50.2602272 191.4173126  26.1701622
  49.7671242 191.3023682  25.2048969  51.2686386 190.2463989  26.2392559
  51.6576500 189.6984253  25.2289448  51.6575165 189.7357025  27.4209938
  51.4027176 190.1521606  28.3051529  52.6952095 188.6764832  27.5521564
  53.5624199 188.9880066  26.9699230  53.2910156 188.5723114  28.9833183
  53.8862953 187.6622925  29.0582352  53.9506035 189.4366913  29.0601234
  52.2761116 188.6012115  30.0900440  51.9307823 189.6594086  30.8751183
  52.2973289 190.6737366  30.8188591  51.0629387 189.2428436  31.8074532
  50.6257286 189.8777771  32.4599953  50.6916847 187.8887787  31.6643257
  49.8233185 186.9971771  32.2991982  49.1756096 187.4036407  33.0618706
  49.7891273 185.6535187  31.9402466  49.1032829 185.0007477  32.4597702
  50.6951675 185.1703186  31.0024853  50.6180611 184.1346741  30.7060051
  51.4936523 186.0445862  30.2627926  52.0369682 185.5802002  29.4531345
  51.4897461 187.4630585  30.5251751  52.2645836 187.2317200  27.0498371
  53.1813812 186.4844513  26.7287960  50.9865799 186.8320618  26.9622231
  50.2596550 187.5057831  27.1565571  50.5617065 185.5086823  26.4631386
  51.2358208 184.8025970  26.9480400  49.1253548 185.1944885  26.8877316
  48.9858017 185.2700348  27.9661179  48.4895096 185.9906158  26.5004768
  48.6058121 183.7952881  26.4003353  48.8589897 183.6977081  25.3446445
  49.2251244 182.6728821  27.2539692  49.1333237 182.8754272  28.3210468
  48.6418800 181.7748108  27.0505276  50.2504578 182.4347839  26.9709492
  47.1005936 183.6384430  26.4104481  46.6308403 184.5323639  26.0001698
  46.8453064 182.7836914  25.7840843  46.7644043 183.4928589  27.4370346
  50.8259201 185.4658813  24.9221954  51.0720787 184.4648895  24.3528767
  50.6921616 186.6060944  24.2003384  50.5496979 187.4521790  24.7332134
  51.1063957 186.7301025  22.7883015  50.6661263 185.8464813  22.3262711
  50.3207779 187.8666992  22.1616383  50.5832329 188.8192596  22.6218987
  50.6769867 187.8457794  21.1316986  48.8013191 187.7205505  22.1350803
  48.1539955 186.7139587  21.3074932  48.7050247 185.9618073  20.7624779
  46.7854996 186.4412842  21.4036541  46.3974304 185.6618042  20.7647419
  45.9476242 187.2175140  22.2160168  44.6205864 186.9617004  22.3296833
  44.2232666 186.4822083  21.5990486  46.5795403 188.2066193  23.0044422
  46.0187263 188.8716583  23.6444492  47.9541931 188.5057220  22.9415264
  48.3253822 189.2840118  23.5918293  52.5852318 186.7242279  22.5611763
  53.0637665 186.0824738  21.6604633  53.3828239 187.1592712  23.5344353
  52.9249992 187.7003632  24.2539616  54.8529892 186.9409180  23.5024376
  55.1868210 187.2370605  22.5079727  55.5160866 187.8054504  24.5439243
  55.1200981 187.5644226  25.5304337  56.5830154 187.5923462  24.4780312
  55.3197937 189.2398529  24.2415905  56.0307312 189.7217407  24.6704903
  55.3105507 185.5084839  23.6931343  56.3815231 185.1299133  23.1730251
  54.4163742 184.6811218  24.2907734  53.5412941 185.0590973  24.6246529
  54.6183052 183.1933136  24.4765873  55.7000427 183.0804749  24.5487995
  53.9020996 182.7419586  25.8123932  52.8278236 182.8977661  25.7136383
  53.9430580 181.6543274  25.8716564  54.5060120 183.3422089  27.1474419
  54.4933052 184.4320984  27.1376629  53.6783562 182.7825470  28.2927113
  53.8720169 181.7149658  28.3969479  54.0562592 183.2637634  29.1947727
  52.6193924 182.9856415  28.1331654  55.9135742 182.9042206  27.3415413
  56.5731926 183.3450012  26.5940609  56.3258858 183.0912781  28.3330574
  55.8582802 181.8230286  27.2148037  54.1862946 182.4074554  23.2383442
  54.2757072 181.1773987  23.2267151  53.6927490 183.0792542  22.1500072
  53.6081161 184.0854645  22.1280651  53.3384399 182.4268188  20.8583202
  53.7261353 181.4108734  20.7830906  51.8087311 182.2949219  20.7555046
  51.3935051 183.2879791  20.9272709  51.4993248 181.9678497  19.7628326
  51.1618652 181.2106323  21.6424847  50.7776070 181.4560242  22.9660206
  50.9446640 182.4505615  23.3525200  50.2251434 180.4412231  23.7439537
  50.0807114 180.6150665  24.8000412  49.8853188 179.1837006  23.2586460
  49.1529884 178.3090210  24.0022278  48.5809784 178.6705322  24.6831875
  50.2360954 178.9001007  21.8834133  50.0040436 177.9807129  21.3664436
  50.8767014 179.9069366  21.0982590  50.9382973 179.6597137  20.0487404
  54.0456276 183.2106323  19.7000561  53.9865990 182.7065277  18.5652981
  54.6172867 184.3860474  19.9055119  54.5262299 184.8883514  20.7770023
  55.2755356 185.1784363  18.8845959  54.5594597 185.3523407  18.0814209
  55.6934814 186.4501953  19.5702572  54.7535439 186.9972992  19.6430321
  56.1312370 186.1529846  20.5232162  56.6205711 187.2952728  18.6796436
  56.4371452 187.4023743  17.4349823  57.5241928 187.9587402  19.2643490
  56.5313835 184.4276886  18.3442345  57.4353676 184.0528259  19.0645561
  56.5953636 184.1619415  17.0453033  56.0069695 184.6538544  16.3881035
  57.8438339 183.5409851  16.4838657  58.0427017 182.5699615  16.9373779
  57.7198486 183.3082733  14.9578037  57.4853172 184.2265320  14.4193697
  58.6720009 182.9635010  14.5545139  56.9895210 182.5213623  14.7694025
  59.1326294 184.3479919  16.7798824  60.1777878 183.7744598  17.1425858
  59.1457596 185.6804352  16.7670975  58.2401848 186.1267090  16.7376862
  60.3325996 186.5601501  17.0227051  61.1363373 186.1184845  16.4336090
  60.1265488 188.0448608  16.4985237  59.3951225 188.5388489  17.1381340
  61.0116386 188.6492920  16.6970024  59.7379227 188.2548981  15.0052128
  58.8402710 187.6696777  14.8056192  59.5420341 189.3054047  14.7903881
  60.8981056 187.8600922  14.0364790  62.1123657 187.8035126  14.4206123
  60.5470352 187.4196472  12.9125309  60.8726845 186.4319153  18.4306583
  62.0711861 186.1930389  18.6390190  59.9713478 186.5479126  19.4411125
  59.0661469 186.9280090  19.2039871  60.3413582 186.4421082  20.8275928
  61.2671890 187.0017395  20.9608154  59.1997452 186.9421539  21.8253822
  58.3268127 186.2895508  21.8397369  59.7738533 186.9393311  23.2705421
  60.7210503 187.4672699  23.1600800  59.1922989 187.5597382  23.9524384
  59.8027153 185.9752045  23.7782269  58.7579231 188.3018951  21.5759926
  58.3068199 188.3074188  20.7285995  60.7726746 184.9881592  21.1943188
  61.7532196 184.8305511  21.9247456  60.1536102 183.9738617  20.5426884
  59.4793587 184.3131256  19.8715878  60.4280434 182.5151215  20.7380848
  60.4552231 182.2399292  21.7924252  59.2419586 181.6893158  20.0943642
  59.0908470 182.0657196  19.0826397  59.6067390 180.6738434  19.9398861
  57.9044037 181.5446014  20.8071098  57.5661011 182.5357971  21.1090832
  56.8602180 180.8417664  19.9708691  57.1696014 179.8138275  19.7818565
  55.9438705 180.7996063  20.5596199  56.7362442 181.3093567  18.9940968
  58.0036469 180.8072052  22.1297493  58.5558472 181.3269043  22.9127502
  57.0523376 180.4908447  22.5575676  58.4545479 179.8373108  21.9197559
  61.7412758 182.0802155  20.0918503  62.3554916 181.1279297  20.5194378
  62.1487160 182.6795502  18.9617176  61.5023232 183.3480530  18.5675278
  63.4651909 182.6090698  18.3476257  63.7273788 181.5655670  18.1730747
  63.5670547 183.3541107  17.0004349  63.0823212 184.3302460  17.0174637
  64.5963669 183.6363068  16.7791100  63.0281372 182.5482788  15.8569393
  63.6339836 181.6494293  15.7424030  62.0462341 182.1731873  16.1455116
  62.9586868 183.2015228  14.1906013  64.7077255 182.9494019  13.8444996
  64.8117523 181.8652191  13.8874407  65.0022507 183.2505951  12.8391972
  65.4031296 183.4209747  14.5388527  64.5105286 183.1855011  19.3217106
  65.5411911 182.5304108  19.6137428  64.2747726 184.3680878  19.8354588
  63.4942741 184.9374084  19.5408192  65.2319641 184.9012756  20.8558693
  66.2063065 184.8488007  20.3700752  64.9798431 186.4017487  21.1701488
  64.9161835 186.9226532  20.2147903  64.0496674 186.4119110  21.7382793
  66.0809708 187.0894470  22.0456696  65.7723236 188.1137238  22.2547302
  66.1538315 186.5845947  23.0089493  67.3816605 187.0530548  21.2505112
  67.3941040 187.2620392  20.0149059  68.4836273 186.9095154  21.9299164
  65.4380417 184.0907288  22.1436272  66.5799103 183.7952576  22.4360752
  64.3538361 183.6023560  22.7858276  63.4580956 183.9654999  22.4927826
  64.5910110 182.7140503  23.8933697  65.0796509 183.2037048  24.7357273
  63.1833344 182.2657013  24.4472885  62.6153831 181.8202820  23.6305046
  63.3994484 181.5827332  25.2688389  62.4847107 183.4853516  25.0745659
  63.0140305 183.8056793  25.9719563  62.4050713 184.3437500  24.4075623
  61.1164436 183.0025482  25.5208759  60.5711212 183.8524323  25.9312668
  60.6174011 182.7522583  24.5847015  61.1537437 181.9050751  26.5529270
  61.9935150 181.7804108  27.1000500  60.1444397 181.1412506  26.9007282
  58.9400101 181.0975189  26.3565311  58.7322617 181.8119812  25.6735439
  58.1961670 180.5083923  26.7025604  60.2914925 180.3768311  27.8677216
  61.0750504 180.3495941  28.5044289  59.5122948 179.7786865  28.1025887
  65.5051880 181.5238037  23.5552826  66.2741699 181.1399689  24.3714905
  65.4725037 181.0477295  22.2934399  64.7702484 181.3989258  21.6581516
  66.3577118 179.9607239  21.8495808  66.5015106 179.2232361  22.6392345
  65.8026199 179.1325531  20.6797371  65.5681610 179.7097168  19.7852955
  66.7215958 177.9770660  20.2017937  66.7290039 177.2589722  21.0217876
  66.2259140 177.4921722  19.3607960  67.7210159 178.3077087  19.9190636
  64.4364090 178.5187225  21.1289501  63.7064362 179.2809906  21.4013596
  63.9642944 178.1104126  20.2353668  64.6199951 177.8705902  21.9858704
  67.8406219 180.4276276  21.5776730  68.8059158 179.7443848  21.9596863
  68.0221634 181.6720581  21.0153122  67.1969376 182.2196503  20.8171978
  69.3866425 182.2677307  20.7946339  69.9877701 181.5229645  20.2730312
  69.1951828 183.5404510  19.9182949  68.2699661 184.0850220  20.1067734
  70.0584412 184.1438751  20.1989651  69.2382431 183.1858978  18.4575520
  70.0787048 182.5162659  18.2749996  68.3107910 182.7071228  18.1433620
  69.4373550 184.4616547  17.6129913  68.7967072 185.2401123  18.0273113
  70.4677582 184.8043671  17.7073727  69.0390472 184.1505432  16.1680279
  69.7207260 183.4446259  15.6935797  68.0408707 183.7130432  16.1501446
  69.1036530 185.4223633  15.3864708  69.9792480 185.9157410  15.4865913
  69.0639572 185.3164215  14.3828259  68.4446945 186.1098633  15.7229595
  70.0826492 182.5097046  22.0990715  71.2312241 182.1163788  22.2366810
  69.4163055 182.9927826  23.1860256  68.4822617 183.3529053  23.0519505
  70.0162659 183.0893860  24.5478096  70.9130783 183.7040100  24.4700108
  69.0243835 183.8477936  25.5112457  68.7635727 184.7507477  24.9592152
  68.1477661 183.2057953  25.5978355  69.5642776 184.1647644  26.8615627
  69.5859985 183.2807159  27.4988060  70.5871506 184.5390778  26.8201294
  68.6364365 185.2337646  27.5212517  68.9763336 185.5705566  28.5006084
  68.7486725 186.1844025  26.9999065  67.2161026 184.8370819  27.5782719
  67.0527115 183.9658661  28.0624084  66.2673035 185.6952209  27.3140030
  66.5249329 186.9004364  26.7969093  67.4869308 187.1696014  26.6478653
  65.7782669 187.5066986  26.4886169  65.0361252 185.3881073  27.5877399
  64.7996521 184.5782623  28.1430073  64.4469223 186.1851044  27.3934708
  70.5195084 181.7407379  25.1035099  71.3919601 181.8542480  25.9669361
  70.0995941 180.5455627  24.5824261  69.4356918 180.5711823  23.8217201
  70.8253021 179.2763214  24.8003998  71.2097778 179.2455292  25.8198757
  69.7261734 178.1686096  24.7686329  69.0268250 178.2617950  25.5994930
  69.1104889 178.1065521  23.8713112  70.3164444 176.7502136  25.0048733
  69.5450821 176.0017242  24.8235779  71.1125183 176.5283661  24.2941341
  70.8593674 176.6173553  26.3825321  70.1367722 176.4411316  27.3313007
  72.1329193 176.7633972  26.5751667  72.4246597 176.8317413  27.5396957
  72.7918472 176.7349091  25.8102493  71.8909531 179.0264587  23.7850685
  72.9993439 178.7413330  24.0941734  71.6220016 179.1621399  22.4463501
  70.6919403 179.4453888  22.1727676  72.6179352 178.8872833  21.3687954
  72.9432831 177.8581238  21.5207672  72.0534897 179.1255951  20.0286369
  71.6797180 180.1493530  20.0102901  72.8091354 179.0108948  19.2515011
  70.8870544 178.2483826  19.6438293  70.1191177 178.2414093  20.4173412
  70.2470169 178.7201080  18.3271217  70.9800415 178.5188446  17.5459194
  69.3645706 178.1232605  18.0965748  70.0523758 179.7923279  18.3031311
  71.3704834 176.7931519  19.2418003  71.7189331 176.2681427  20.1312065
  70.5104294 176.2309265  18.8780785  72.1120071 176.8157349  18.4432144
  73.9237137 179.7175598  21.5135784  75.0038910 179.2956390  21.1547222
  73.8511887 180.9262238  22.0915127  72.9427032 181.2840576  22.3497734
  75.0568237 181.7199707  22.4634056  75.7413025 181.6699677  21.6165886
  74.6778412 183.1864471  22.5559387  73.7649078 183.3540955  23.1273861
  75.3879547 183.6236267  23.2578697  74.6626129 183.8382263  21.1657295
  75.8552246 184.2753143  20.5731068  75.4759903 184.8063660  19.3856792
  76.1177368 185.3863525  18.7390003  74.1257782 184.7015839  19.2230759
  73.6002502 185.1395721  18.4800510  73.6240540 184.0729980  20.3303528
  72.5749588 184.0389252  20.5846024  75.9027939 181.2628479  23.6469727
  77.0434723 181.7278900  23.7059937  75.3485336 180.5001831  24.5411987
  74.4012222 180.1805878  24.3978367  76.0844040 179.7095184  25.5589218
  76.9338684 180.2831879  25.9296169  75.1987457 179.3125153  26.7362003
  74.3715210 178.7684326  26.2803860  75.7418442 178.5896912  27.3450356
  74.6805649 180.4537048  27.6676331  74.6370316 181.4522400  27.2327652
  73.6798782 180.1538544  27.9787807  75.5223846 180.4218903  28.9226017
  76.3941269 181.3504791  29.1551952  75.3435287 179.5283813  29.7662144
  76.6720276 178.4478455  24.9739170  77.7304153 178.0488129  25.4465256
  76.0530014 177.8110809  23.9862022  75.1624298 178.1272125  23.6297626
  76.6219788 176.6403351  23.3603458  77.1649628 176.1234894  24.1516438
  75.5885696 175.7033844  22.7807198  74.9427719 176.3465271  22.1828728
  76.1108475 174.9614410  22.1766968  74.6810837 174.9960022  23.7480659
  75.0539322 174.5337067  24.9500637  76.0412445 174.6677551  25.3667660
  73.9887772 173.8303070  25.4850731  74.0533371 173.3894806  26.3914967
  72.9858932 173.7290344  24.5694523  71.7742310 172.9805603  24.5397072
  71.5168304 172.5717773  25.5056572  70.8997726 172.9318848  23.3915730
  69.9518890 172.4163513  23.3453331  71.2810135 173.7028961  22.2499294
  70.6963959 173.7133026  21.3419018  72.5008774 174.4183197  22.3069267
  72.7894669 174.9048462  21.3869152  73.3512726 174.4881439  23.4503002
  77.6698990 177.0050201  22.2214279  78.3766785 176.0862427  21.8277245
  77.7429428 178.2839203  21.7901974  77.1387253 178.9302673  22.2773037
  78.7146912 178.7338715  20.8431263  79.5691528 178.0728302  20.9881115
  78.1452560 178.5368652  19.4374866  77.4443665 177.7044678  19.3744335
  77.4922791 179.3533020  19.1290131  79.1682510 178.4649658  18.3569927
  80.3776245 178.5930786  18.6210098  78.7292557 178.3624573  17.2036476
  79.2556381 180.1258698  21.1293182  78.8158417 181.1058044  20.5976715
  80.1691818 180.2148590  22.0243626  80.4639511 179.3414459  22.4371052
  80.6694260 181.4653015  22.5699272  79.8136292 182.0886536  22.8290501
  81.4701309 181.2200928  23.8444500  82.4150620 180.7205963  23.6306763
  81.6994476 182.2086029  24.2423954  80.7414551 180.3984833  24.9701099
  81.1563416 180.8281097  25.8819122  79.6686859 180.5177917  24.8183670
  81.0187454 178.8507538  25.0020046  81.0553741 178.2127838  23.9509602
  81.3117523 178.3037720  26.0620804  81.4528198 182.3803711  21.5847454
  81.7951431 183.4901886  21.9327526  81.7237244 181.8748169  20.3956413
  81.1954422 181.0497894  20.1500359  82.3379745 182.5870209  19.2501297
  82.5020447 183.5648041  19.7030411  83.7117233 181.9299011  18.9391384
  83.5179825 180.8891449  18.6795788  84.1256790 182.3587799  18.0265522
  84.6723099 182.0497131  20.1009922  85.1170273 181.0003357  20.5566387
  85.0906906 183.2428284  20.5409145  85.8251495 183.2586975  21.2340336
  84.9320908 184.1206818  20.0673008  81.4250412 182.8360748  17.9752655
  81.9615936 183.0632629  16.9031830  80.0919571 182.6036835  18.1562634
  79.7421265 182.3347015  19.0647621  79.2083282 182.6665955  17.0417786
  79.6844482 182.2191620  16.1693077  78.0044174 181.8371277  17.3982735
  78.4855270 180.8647766  17.5038528  77.5690842 182.1064758  18.3605843
  76.8251114 181.7413788  16.3216133  77.2021561 182.1465607  15.3825874
  76.2865143 180.3806000  16.0601101  75.9068680 179.8957977  16.9595203
  75.4440460 180.5331116  15.3855095  77.1279907 179.7683105  15.7358894
  75.7230530 182.6940002  16.8143749  76.0337448 183.7172546  17.0253544
  74.9457016 182.7246094  16.0509033  75.2680740 182.2462616  17.6979008
  78.8515549 184.0931854  16.6652107  78.4298706 184.8551483  17.4935703
  78.8758545 184.3467255  15.3742733  79.5418015 183.7685242  14.8820429
  78.1443176 185.4400635  14.6563749  77.8957367 186.2269440  15.3685102
  78.9770660 185.9841003  13.4996214  79.1431656 185.2590637  12.7028608
  78.4485855 186.7198639  12.8934374  80.3017197 186.5527344  14.0980768
  80.1698074 187.5836945  14.4264364  80.6792679 186.0454559  14.9858999
  81.3732986 186.5541229  13.0346603  82.3201065 186.7089386  13.5520487
  81.4581757 185.5518341  12.6147680  81.1109314 187.5374146  11.8949928
  81.9175491 187.5293732  11.1619129  80.2213669 187.2716217  11.3239098
  81.1695938 188.9430389  12.3403215  82.1212234 189.2061157  12.5531788
  80.8956985 189.5748749  11.6014853  80.6282654 189.1091003  13.1766729
  76.8542557 184.9612579  14.0964680  76.7444916 183.8932953  13.5264530
  75.7994461 185.7622223  14.2480211  75.8438187 186.5440826  14.8858595
  74.3958359 185.4301605  13.9332552  74.1200256 184.5464783  14.5086756
  73.4478531 186.5509796  14.3481483  73.8724365 187.5498199  14.2475376
  72.5862732 186.5291138  13.6808395  72.7894669 186.4724426  15.7891045
  73.5739441 186.2413940  16.7617855  71.5190887 186.6229401  15.9638891
  74.2349777 185.0990295  12.4356031  73.2588654 184.4677582  12.1197815
  75.1483078 185.5175629  11.5208645  75.9450607 186.0414429  11.8538179
  75.0423584 185.3125153  10.0563917  74.1284485 185.7749329   9.6835175
  76.2031860 186.0365906   9.3643999  77.1169968 185.4428864   9.3884430
  75.9966812 186.1180420   8.2972450  76.5220032 187.4397888   9.9077120
  77.0353088 187.4374237  10.8692818  77.1092758 187.9749298   9.1615009
  75.3271255 188.3648834  10.1661854  74.3102036 188.3010254   9.4072752
  75.4308777 189.2485352  11.0690365  75.1238403 183.8403015   9.6114502
  74.8311844 183.4942017   8.4618473  75.4812241 182.8718414  10.5431604
  75.5946198 183.0998688  11.5205269  75.4835815 181.3955231  10.3409967
  75.6818466 181.0993042   9.3109255  76.6390152 180.8374939  11.1670952
  76.8252182 179.7966919  10.9021931  77.5587311 181.3907471  10.9770174
  76.2839203 180.8917999  12.4892178  77.0220337 180.5542297  13.0019016
  74.1468353 180.6926727  10.6350136  73.8639832 179.5958405  10.1205006
  73.2485657 181.2771912  11.3598928  73.4395599 182.2423553  11.5881519
  71.9234924 180.7376404  11.6552391  71.8288498 179.6779633  11.4181366
  71.6825790 180.9325104  13.1524925  71.8391418 181.9917603  13.3564615
  70.6597900 180.6971283  13.4467821  72.7093048 180.1206360  14.0444956
  73.7065430 180.4385529  13.7402658  72.4978180 180.4039917  15.5772762
  71.4633331 180.2189636  15.8665972  73.2473831 179.8706360  16.1619110
  72.6448898 181.4702911  15.7489586  72.5745163 178.5853882  13.8763285
  72.5272522 178.2150269  12.8522730  73.3559952 178.0804596  14.4441681
  71.6067352 178.2531128  14.2519484  70.7812729 181.4045715  10.8642273
  70.8457794 182.6020508  10.6342049  69.6967468 180.6144104  10.4849014
  69.5027237 179.2139435  10.5544786  68.9405670 178.9426422  11.4480534
  70.4620590 178.7035370  10.4692707  68.7424927 178.9363403   9.2949677
  68.3183060 177.9364929   9.3871908  69.3818359 179.0363770   8.4178553
  67.7001953 180.0205536   9.3039618  66.9369431 179.7805786  10.0442038
  67.2310791 180.1775970   8.3326912  68.5886993 181.2022095   9.7237387
  69.0123825 181.5261383   8.7731247  67.7457657 182.3273926  10.4036484
  67.3795547 182.3420410  11.6056690  67.3398438 183.3050995   9.5941877
  67.6850739 183.3871765   8.6485767  66.3715515 184.3374329  10.0416250
  66.6319580 184.6064453  11.0653038  66.4351349 185.5591888   9.2265120
  65.7102432 186.3078613   9.5460472  67.8022766 186.2075500   9.2559509
  68.5660477 185.5460663   8.8470564  67.8244705 187.0753784   8.5967922
  68.0564804 186.4384460  10.2904415  66.2197342 185.2879791   7.8002715
  66.1217804 186.0943451   7.2886295  64.9532089 183.8169556  10.0904474
  64.1372452 184.3208160  10.8981075  64.6092148 182.7696838   9.3029976
  65.2839584 182.3494720   8.6798983  63.2423592 182.4736176   9.0387096
  62.5681839 183.3220673   9.1558456  63.1694527 181.9201355   7.6084332
  63.6279449 182.5885773   6.8796916  63.8711319 181.0861053   7.6207223
  61.7122917 181.6555023   7.2294579  60.8218079 182.3486176   7.5909348
  61.5584679 180.5552216   6.6070881  60.6334419 180.3947144   6.2347088
  62.3847771 180.0838470   6.2677979  62.8795586 181.4082794  10.0988979
  63.6249466 180.4300995  10.1141357  61.8410759 181.5070190  10.9150372
  60.9519005 182.7061157  11.0261221  60.7260742 183.2082672  10.0854101
  61.3723946 183.4489136  11.7040100  59.6983986 182.2270813  11.7068901
  58.9892731 181.8061829  10.9940844  59.3149452 183.0233307  12.3448982
  60.2539749 181.1307373  12.6555643  59.4466972 180.4358368  12.8868961
  60.5642242 181.6429443  13.5663261  61.4904289 180.5981750  11.9480057
  62.3140869 180.5663452  12.6612253  61.3407593 179.1438293  11.4760818
  61.8204079 178.2924652  12.2280521  60.8857651 178.8492584  10.2607803
  60.5352287 179.6293182   9.7234259  60.7918663 177.4455414   9.7606945
  60.2506332 176.7742310  10.4274054  60.0615807 177.4772644   8.3620453
  60.6372948 178.1526337   7.7291780  60.1931343 176.0805359   7.6627603
  59.7718582 175.2729187   8.2614174  59.5167198 175.9231567   6.8226399
  61.2220497 175.8093414   7.4263549  58.5747948 177.9196167   8.5355511
  57.9521370 177.4558868   7.7704611  58.1993942 177.5899506   9.5043106
  58.5067787 179.4311523   8.2992716  58.7211876 179.6595306   7.2552505
  57.4698830 179.7542114   8.3919106  59.2189522 180.0643768   8.8283567
  62.2198944 176.8860321   9.6626081  62.5168076 175.9330139  10.3918276
  63.0586243 177.4349213   8.7753019  62.8230782 178.3192902   8.3481092
  64.4503403 176.9536285   8.7309170  64.4345322 175.9098206   8.4173670
  65.1679001 177.7693787   7.5925570  65.2156296 178.7635803   8.0368443
  66.2011414 177.4618378   7.4314966  64.3979721 177.9284515   6.2374887
  63.7366219 178.9689178   6.0428214  64.5096588 176.9647827   5.3870029
  65.2847748 176.9716187  10.0117407  66.0964432 176.0621643  10.2450562
  65.1057053 177.9267731  10.9464006  64.4373932 178.6625214  10.7671309
  65.6924210 177.9687042  12.2485676  66.7618179 177.7690887  12.1804619
  65.5180359 179.2935181  12.9600229  65.8536377 180.0459137  12.2463274
  64.4546280 179.5327301  12.9667778  66.0221176 179.4782257  14.3561335
  65.1904526 179.1713715  15.4355993  64.2227936 178.7703705  15.1725073
  65.6623383 179.3798065  16.7571316  65.0374832 179.1396484  17.6046505
  66.9526901 179.7889252  16.9608822  67.3028717 180.0795898  17.9403152
  67.7850800 180.1439056  15.8611670  68.7692566 180.5544434  16.0322285
  67.3108673 179.9279022  14.5756445  67.9243088 180.2043915  13.7308702
  65.2019348 176.8154297  13.2025156  65.9737091 176.0576324  13.7605314
  63.8713531 176.6278534  13.3265800  63.1998329 177.2754059  12.9395065
  63.3398972 175.6106720  14.1660242  63.7541924 175.7540741  15.1639690
  61.8341560 175.6650848  14.2981157  61.3789978 174.8967133  14.9230499
  61.5441399 176.6588287  14.6393766  61.3395004 175.5265808  12.9712772
  61.5482941 176.2675781  12.3977509  63.7666435 174.1700897  13.7171946
  64.2550125 173.3950195  14.5363474  63.6997643 173.9164886  12.4046364
  63.1688805 174.5720978  11.8492641  64.0281448 172.6436920  11.7954845
  63.4817505 171.8287506  12.2702665  63.6606789 172.5445557  10.3074675
  63.9920959 173.4533844   9.8051853  64.2443542 171.6870728   9.9725494
  62.2666664 172.2323761   9.9301291  61.6831131 171.0503540  10.4755688
  62.1674500 170.4501648  11.2316151  60.4854088 170.5374451   9.8659449
  59.9755363 169.6561584  10.2261591  59.8857956 171.2699432   8.8706894
  58.7181206 170.7633057   8.3261919  58.4549522 171.3164062   7.5869837
  60.4651566 172.4439850   8.2748775  59.9363213 172.9827728   7.5025873
  61.6496773 172.8825836   8.8788137  62.2485275 173.7122650   8.5332575
  65.4917221 172.4394531  12.0804586  65.8392258 171.3120880  12.3680429
  66.4100189 173.4188995  11.9460649  65.9978867 174.2750397  11.6035824
  67.8551941 173.2770538  12.3603573  68.4479370 172.5655212  11.7854757
  68.5890121 174.6374817  12.2487812  68.5027008 175.0527496  11.2446852
  68.0785675 175.3536072  12.8927717  70.1012650 174.5836792  12.7064533
  70.4273987 175.6089478  12.8812065  70.2473755 174.0766296  13.6602116
  71.0976639 173.9614105  11.6586714  72.0834198 174.2526398  12.0214176
  70.9515076 172.8818665  11.6221752  70.9206619 174.5231323  10.2649145
  70.1757278 174.1091309   9.7229033  71.5567627 175.5534058   9.7336588
  72.2911453 176.3917694  10.4847336  72.4318695 176.1133270  11.4453440
  72.8348312 177.1045380  10.0194902  71.3311920 175.9017792   8.5205460
  70.7167358 175.3357239   7.9529724  71.6600037 176.8050537   8.2105799
  67.9540634 172.8541870  13.8575583  68.7428665 171.9940186  14.2387085
  67.0965424 173.3304443  14.6850843  66.4875259 174.0451050  14.3129845
  67.1997681 173.1985474  16.1736202  68.2598419 173.1596222  16.4242783
  66.7315063 174.4527588  16.9065838  65.7973022 174.8108368  16.4739857
  66.6207581 174.3201447  18.4740314  67.5953369 174.0590973  18.8865299
  66.2600098 175.2530212  18.9072895  65.9730835 173.4938049  18.7669029
  67.6771317 175.6448669  16.6407490  67.9138336 175.6808014  15.5773621
  67.1954956 176.5742950  16.9445515  68.6427841 175.5208740  17.1308994
  66.5686264 171.8814697  16.6961956  67.2599792 171.1447449  17.4314461
  65.3467178 171.5454865  16.3092308  64.9076080 172.1243744  15.6076775
  64.8850555 170.1603851  16.4268055  64.6133270 169.8866730  17.4462929
  63.5857048 170.0740814  15.6513767  63.8427124 170.2377472  14.6048307
  63.1656380 169.0717163  15.7346792  62.8773079 170.8506927  15.9396963
  65.8943329 169.0820770  15.8077250  66.0533142 168.0502014  16.4726982
  66.5277634 169.2752380  14.6245022  66.4073944 170.1950531  14.2250624
  67.5136566 168.4099274  14.0520983  67.0484314 167.4459991  13.8459110
  67.9816971 169.0454559  12.7095156  68.2423325 170.1001129  12.7983675
  68.8246002 168.5123138  12.2697821  67.2371902 168.8325195  11.9424019
  68.6677704 168.1444702  15.0327969  69.0253067 166.9724731  15.2868958
  69.3531570 169.2072906  15.5345755  69.0358810 170.1075439  15.2044420
  70.5607834 169.0930176  16.3174934  71.1742783 168.2657928  15.9605217
  71.4640274 170.2933807  16.0695992  72.4497986 170.1508789  16.5123825
  71.7022629 170.4860382  15.0235443  70.6941757 171.7172699  16.8025856
  69.8191910 171.8711548  15.8047838  70.3402252 168.8117523  17.8534718
  71.3022385 168.8117828  18.6416302  69.0932846 168.5947571  18.3689137
  68.3671112 168.3583069  17.7079563  68.7558594 168.5002594  19.7760620
  69.3322601 169.3004150  20.2404118  67.2472458 168.8019409  19.9959831
  66.6824951 168.6461792  19.0768051  66.8664780 168.1633148  20.7930260
  67.0967636 170.3094330  20.4881744  67.8858795 170.9200592  20.0493736
  65.6688309 170.7632751  20.1860085  64.9354706 170.1733246  20.7357750
  65.6509628 171.7718964  20.5988960  65.4336014 170.8114624  19.1227837
  67.1355209 170.4879761  21.9928055  68.0940475 170.0608215  22.2875519
  67.0466309 171.5494537  22.2240086  66.4261932 169.9082794  22.5834999
  68.9829712 167.1165314  20.4561520  68.6053314 166.1197357  19.8170509
  69.4921951 166.9438324  21.7252407  70.3944855 167.9351044  22.3433571
  69.8792801 168.7785492  22.8029976  71.0246811 168.2721558  21.5203438
  71.1252060 167.2023926  23.4663582  70.4269028 167.2266846  24.3029461
  72.0031509 167.7702789  23.7742958  71.1400070 165.8079529  22.9621315
  71.2054977 165.1319427  23.8146667  71.9880905 165.7046204  22.2852421
  69.8979568 165.6157837  22.1643314  70.1435623 165.0381012  21.2732353
  68.7309799 164.9187622  22.9755592  68.6306152 165.1463318  24.1700211
  67.9191666 164.1380768  22.3214073  67.9927292 164.0378265  21.3190918
  66.6530533 163.5756683  22.8801098  66.8043518 163.3315582  23.9315987
  65.4859467 164.6113892  22.7466507  64.5554657 164.0464325  22.8025894
  65.4109726 165.6296234  23.9474354  66.1948700 166.3869781  23.9421253
  64.4506226 166.1173553  23.7803001  65.4045944 165.0670319  24.8810062
  65.5042343 165.3549500  21.3653736  66.2706223 166.1277924  21.3065739
  65.6049652 164.6248627  20.5623016  64.1499557 166.0395813  21.0123425
  63.9309425 166.8261108  21.7344990  64.2179794 166.6569672  20.1166306
  63.3677711 165.3092804  20.8050919  66.3246613 162.2409058  22.3341866
  66.8182907 161.8577423  21.2739429  65.5894470 161.3969116  23.0693760
  65.2354202 161.6224976  23.9880028  65.1439972 160.0723419  22.5612335
  65.9910126 159.4802704  22.2146587  64.4414062 159.2902069  23.6888008
  63.8674965 158.4642944  23.2685738  65.1844406 158.7378235  24.2640114
  63.5083771 160.0376282  24.5821724  63.9228096 161.0098114  25.2114410
  62.3212433 159.6257629  24.7367764  64.0865173 160.1615295  21.4727249
  63.4596138 161.1779175  21.2567482  63.9914055 159.0855865  20.7067623
  64.4665222 158.2301178  20.9568729  63.3175964 159.1230469  19.4301796
  63.7008324 160.0456848  18.9943333  63.6134109 157.9806061  18.4945717
  63.2303009 157.0969849  19.0050163  63.0174332 158.0321198  17.5833817
  65.1434326 157.7845917  18.2573528  65.8457565 158.7253265  17.8344059
  65.6794815 156.6983185  18.6183491  61.7805748 159.3523712  19.5834656
  61.2288857 160.2081451  18.9538956  61.1753578 158.7568512  20.5964718
  61.6763458 158.1098633  21.1885223  59.7545204 158.9798584  20.8615189
  59.1189690 158.6547394  20.0378189  59.4172401 158.0820618  22.0890236
  60.1022987 158.3473511  22.8942661  58.4138680 158.3115387  22.4477711
  59.4869232 157.0275879  21.8219891  59.4140434 160.4541473  21.1592979
  58.2940598 160.8721924  20.7690544  60.4260750 161.2740021  21.5849781
  61.3233643 160.8217773  21.6872997  60.4119606 162.7110596  21.7867699
  59.3970528 162.9554596  22.1003494  61.2831917 163.0361786  23.0304432
  60.7914734 162.5649109  23.8814583  62.3046570 162.6951904  22.8617954
  61.4013138 164.5064087  23.3907127  61.9953384 165.0396576  22.6484985
  60.0512123 165.2353668  23.4742889  59.3901558 164.7195740  24.1707458
  60.2750626 166.2631378  23.7600937  59.5909157 165.1223602  22.4927311
  62.1018562 164.5671997  24.7539883  62.9431915 163.8806000  24.8479977
  62.4905434 165.5730438  24.9130592  61.3991585 164.2829590  25.5372639
  60.7773552 163.4584198  20.4902573  60.1288643 164.4648590  20.2169628
  61.6654778 162.9418488  19.6649323  62.0880432 162.0683899  19.9453125
  61.9157982 163.4335632  18.2963562  62.0271034 164.5178375  18.3030834
  63.2573357 162.9193878  17.6430569  63.1589203 161.8618011  17.3982410
  63.4178925 163.4981537  16.7334690  64.4575424 163.1739197  18.5328465
  64.6559601 164.2406006  18.6373272  64.2366180 162.7856293  19.5270920
  65.7774887 162.6439972  18.0992432  66.5279922 162.9250793  18.8380470
  65.5718002 161.5741577  18.1342831  66.2599487 163.0598450  16.7388630
  66.3673248 162.3221130  16.0574512  66.8954010 164.1439362  16.3775082
  67.2950287 165.0294189  17.2174397  67.2253342 164.9075165  18.2176323
  67.8130264 165.8363037  16.9001045  67.2601471 164.2375031  15.1273470
  67.1242752 163.4468842  14.5136986  67.8549271 164.9900208  14.8110390
  60.6996536 163.1601105  17.3671551  60.4758530 164.0079651  16.5136261
  59.8297234 162.1602478  17.6121063  60.1510544 161.4467621  18.2506866
  58.5362320 161.9993286  16.9478512  58.5692406 162.1233673  15.8654346
  58.0519753 160.4808960  17.1154652  57.9479752 160.2947845  18.1844120
  56.6952705 160.3365479  16.4591198  56.7530441 160.7531586  15.4535379
  56.3392944 159.3102264  16.3694954  55.9350510 160.8247986  17.0688553
  58.9963989 159.3554688  16.5243702  59.0933914 159.5538330  15.4569664
  59.9813690 159.3809204  16.9905109  58.5185547 157.9024658  16.6764965
  57.7984543 157.5975952  15.9171429  59.3979416 157.2658539  16.5790310
  58.1603546 157.6246185  17.6677551  57.5251427 162.9597778  17.4686508
  56.7244263 163.4740906  16.6916351  57.3905602 163.2171326  18.7865124
  57.9180183 162.6940460  19.4708118  56.5057907 164.2170410  19.3622017
  55.4828148 164.0094299  19.0483303  56.5878716 164.2263336  20.8654804
  57.5888557 164.4142914  21.2538204  55.9696045 165.0508118  21.2205505
  56.1261826 162.9566193  21.6599598  57.0029182 162.3507538  21.8887882
  55.6981888 163.3592224  22.5780258  55.1551514 162.0193024  20.9311123
  54.0848923 162.4196625  20.4719315  55.4817467 160.7554626  21.0254707
  54.8859215 160.0362244  20.6410332  56.4507599 160.5585632  21.2312450
  56.7863007 165.6319733  18.7106304  55.8411140 166.2815704  18.3672485
  58.0629005 165.9517365  18.5276165  58.7616081 165.3459167  18.9336834
  58.5201569 167.2075195  17.8897209  58.0247803 168.0659485  18.3433533
  59.9563370 167.3198547  18.2999783  60.0302467 167.1458588  19.3734608
  60.4614410 166.6131744  17.6415062  60.6163330 168.6888733  18.0236912
  60.5935898 168.9682007  16.9703331  59.9390488 169.7999878  18.7417240
  59.7969284 169.5281525  19.7876701  60.5273590 170.6954803  18.5414677
  58.9339027 169.9213104  18.3379078  62.0340385 168.5544128  18.5289955
  62.6626282 167.8228912  18.0212002  62.5326653 169.5185699  18.4296112
  61.9685898 168.2702026  19.5792522  58.3190765 167.1508331  16.3674393
  57.7558441 168.0522308  15.7482271  58.6883354 166.0373077  15.6859760
  59.1396713 165.3197784  16.2351284  58.5111198 165.8640289  14.2205105
  59.0252380 166.7082367  13.7610531  59.1964149 164.5773468  13.7626314
  60.2719345 164.5223846  13.9309750  58.7695198 163.8177643  14.4175167
  58.8970566 164.1017914  12.3343449  57.8703804 164.2311249  11.9918451
  59.7871590 164.8420105  11.3586950  60.8039551 164.4606323  11.2649813
  59.3545914 164.7952576  10.3592958  59.8545990 165.9002838  11.6109257
  59.1095505 162.5441589  12.2548132  58.5379486 162.0773010  13.0569572
  58.8154526 162.2042236  11.2618132  60.1552620 162.3069000  12.4504862
  57.0073967 165.9797516  13.8202868  56.7880554 166.5173340  12.7303581
  56.0726318 165.5061188  14.6338348  56.3283997 164.9185944  15.4145298
  54.6038437 165.6359863  14.3543282  54.4046402 165.3170013  13.3312588
  53.7963905 164.7677155  15.3444672  54.1980782 164.9630890  16.3387375
  52.7686882 165.1141357  15.4536457  53.6339111 163.2882233  14.9951849
  52.9785004 163.0661621  14.1530323  54.5953102 162.9409332  14.6167679
  53.1630516 162.4329376  16.2967987  54.0904770 162.0302277  16.7040005
  52.6884537 163.0975342  17.0187092  52.2412987 161.2446899  15.8970346
  51.5391350 161.7310028  15.2198486  52.9109650 160.5139923  15.4434719
  51.5987625 160.6702728  17.0540447  50.9584579 161.3097382  17.5025883
  51.0806961 159.8526459  16.7656231  52.2916260 160.3745422  17.7267857
  54.0784645 167.0817108  14.4363346  52.8113098 167.2725983  14.1792068
  54.8847847 168.0026245  14.9699945  55.8671227 167.8322754  15.1315279
  54.2229805 169.3091278  15.2245674  53.2580833 169.0920258  15.6827631
  55.0723305 170.0323334  16.2741814  56.0979652 170.0601807  15.9062099
  54.7448235 171.4719543  16.5087070  53.6767273 171.6280518  16.6600494
  55.3984528 171.7380371  17.3394127  55.0330353 172.0691833  15.6436329
  54.8603134 169.3711853  17.6323318  54.8523216 168.2945099  17.4626274
  55.6476402 169.5742798  18.3582649  53.5227280 169.6088562  18.4038792
  52.6781998 169.1230927  17.9151001  53.6031418 169.0767670  19.3517799
  53.3316536 170.6800995  18.4674358  54.0548019 170.2025604  14.0006008
  54.9960403 170.3296509  13.1688099  52.8576660 170.7966919  13.9010658
  52.2427635 170.7255707  14.6991482  52.3469620 171.4526062  12.7142115
  52.5553055 170.7851868  11.8780041  51.2578049 171.4954529  12.7158918
  52.9279480 172.7803802  12.3387728  52.8809814 173.1475220  11.1868048
  53.3694916 173.5919037  13.3044577  53.4184189 173.1301422  14.2013874
  53.7306557 174.9755859  13.0869331  53.9141846 175.1782074  12.0317707
  52.6542549 175.8810272  13.6651659  51.6487999 175.5935669  13.3577261
  52.7024422 175.9147339  14.7535791  52.9450417 177.1835022  13.1691618
  52.3353500 177.3665161  12.4505653  55.0364532 175.2377167  13.8341255
  55.2405815 174.7554169  14.9107018  55.8540802 176.1180267  13.2658043
  55.7458611 176.2159882  12.2664051  57.1527557 176.4519806  13.8090572
  57.7115021 175.5209656  13.9045019  57.9033165 177.2737427  12.7964697
  57.1682777 177.8863678  12.2744379  58.6130371 177.9382629  13.2892351
  58.3614426 176.6044006  12.0683231  56.9913712 177.1060333  15.2036247
  57.7672348 176.8505402  16.0664234  56.0095177 178.0716705  15.2919989
  55.5423584 178.4288483  14.4708471  55.6063004 178.5951233  16.6480999
  56.3476372 179.2740326  17.0695534  54.2086906 179.3064117  16.5632668
  53.5648155 178.6508179  15.9769878  53.4273720 179.5507202  17.9213028
  53.9969254 180.1031952  18.6686115  52.5040894 180.1230927  17.8317394
  53.1976929 178.5449677  18.2731800  54.4099731 180.6866302  15.8351040
  55.0677185 181.3038177  16.4471073  55.0156097 180.4901581  14.9503984
  53.1689377 181.4268799  15.3288116  52.5667534 181.8745880  16.1193981
  53.5945282 182.3114319  14.8549662  52.5400963 180.8276215  14.6703644
  55.5290298 177.4434662  17.7562084  56.0443268 177.5900726  18.8447037
  54.7798233 176.3417206  17.4855614  54.3105965 176.3946381  16.5927429
  54.5675087 175.2449493  18.4683647  54.2286224 175.6132355  19.4366722
  53.5450554 174.2998352  17.7975330  53.9675217 174.0864105  16.8156624
  53.5231895 173.3389130  18.3116131  52.1017838 174.7509155  17.7058163
  51.7308846 174.9188080  18.7169266  52.1212769 175.7296295  17.2264099
  51.1036568 173.9595642  16.8915386  51.4638634 173.0792847  16.1337376
  49.8132172 174.1541748  17.1172276  49.1387482 173.6318970  16.5764599
  49.5134087 174.8689728  17.7647419  55.8125000 174.4552002  18.5910931
  56.1475258 174.1169586  19.6697235  56.5210266 174.2485962  17.4891510
  56.1519890 174.4751587  16.5766926  57.7594185 173.5323486  17.4879036
  57.4960670 172.5989380  17.9854069  58.1005592 173.2944489  15.9909487
  57.1676483 173.3349762  15.4286871  58.6956024 174.1071930  15.5744381
  58.8577843 171.9727478  15.8524208  59.9159279 172.1055603  16.0777950
  58.4450111 171.2100220  16.5126877  58.7399788 171.4362793  14.4451866
  59.2563286 170.4765778  14.4235687  57.7135506 171.1040192  14.2897968
  59.2950363 172.3446960  13.4692106  60.1578560 172.7920990  13.7439308
  58.7869797 172.6804504  12.2217712  57.7822990 172.1276398  11.5811310
  57.2232208 171.3716431  11.9499207  57.3940735 172.6203918  10.7895699
  59.3197289 173.6631927  11.6366005  59.9756126 174.2559357  12.1250277
  58.8195686 173.9550934  10.8091116  58.7771454 174.2485046  18.4071712
  59.4181633 173.5873566  19.1594677  58.8721199 175.5711670  18.3243847
  58.4094315 176.1278381  17.6200161  59.6019020 176.4403534  19.2438602
  60.6355400 176.0989838  19.3000927  59.5441895 177.9051514  18.8041363
  58.4912109 178.1157379  18.6170692  59.8533401 178.5754547  19.6061554
  60.2471886 178.2220612  17.5353394  60.1452370 177.3158722  16.9382458
  59.5523033 179.4670868  16.8488255  59.9902840 180.3606415  17.2936268
  59.7648354 179.3779297  15.7834692  58.4678917 179.4551392  16.9583893
  61.7700005 178.6124573  17.6438389  62.3030357 177.7293396  17.9960690
  62.1293564 178.8914795  16.6533298  62.0191574 179.4704742  18.2682037
  59.1948357 176.2601318  20.6970291  60.0398979 175.9078827  21.4671936
  57.9188347 176.3325348  21.0909653  57.2368088 176.4582062  20.3566952
  57.4505806 176.0625305  22.4732590  57.7968483 176.8729401  23.1146832
  55.9640312 176.2354736  22.5193920  55.4728928 175.5782318  21.8018131
  55.6943512 175.9937134  23.5474625  55.4764442 177.6699677  22.1718788
  55.8144875 178.3678284  22.9379196  55.9734726 178.0861206  21.2955914
  53.9204407 177.7531128  22.0048943  53.6163292 178.7971497  21.9300938
  53.7799377 177.2749939  21.0354805  53.2062836 177.0162048  23.1103153
  52.9690857 176.0420227  22.9886742  52.7662010 177.4749298  24.2404518
  53.0202942 178.7218781  24.6606503  53.3602448 179.3581848  23.9537945
  52.6078529 179.0723267  25.5134029  52.1379738 176.6591339  25.0534725
  51.6903839 175.8869934  24.5806446  51.9515190 176.9603271  25.9993095
  57.8939171 174.7086945  23.0466728  58.5394821 174.6189728  24.0871525
  57.7340317 173.6394806  22.2078819  57.2522583 173.8557281  21.3469391
  58.2371941 172.2685394  22.5366077  57.7469559 171.8644867  23.4223366
  57.7940598 171.3554688  21.4091663  56.7570267 171.5758209  21.1559849
  58.3635712 171.6360474  20.5231438  57.9882545 169.5716858  21.7356472
  57.0652733 169.5563660  22.7014542  59.7843628 172.2454529  22.6301918
  60.2618675 171.7579956  23.7185459  60.5490036 172.9251251  21.7283821
  60.1403427 173.2833710  20.8770542  62.0220108 173.0499573  21.8552475
  62.4747696 172.0596466  21.8062878  62.5330086 173.9115753  20.7021980
  61.9075127 174.7911072  20.5495701  63.4920273 174.2615051  21.0842133
  62.7219276 173.2140808  19.3676472  63.5657845 172.5241547  19.3665009
  61.8798943 172.5570831  19.1498547  62.7362518 174.2445984  18.2305241
  63.5378075 175.1846771  18.3109188  61.9129944 174.0145569  17.2644138
  62.3653679 173.7069550  23.2431946  63.2647858 173.2538605  23.9356823
  61.6838303 174.7596436  23.6210537  60.9767609 175.1022644  22.9864120
  61.9376755 175.5730133  24.8227749  62.9942131 175.8405457  24.8066406
  61.1758728 176.9141693  24.8182220  60.1419182 176.7063751  24.5427914
  61.1676674 177.2984314  25.8382111  61.6912193 178.0096741  23.8246727
  61.9186745 177.4795685  22.8998146  60.5989799 179.0440674  23.6136951
  60.3826027 179.6721497  24.4778709  60.9250412 179.6775818  22.7888069
  59.7935829 178.4518738  23.1792564  62.9184074 178.6401825  24.3893948
  63.6030617 177.8374023  24.6631031  63.2663574 179.3420258  23.6314793
  62.6595116 179.1766815  25.3022156  61.6525803 174.8208313  26.1193066
  62.3426971 174.9241791  27.1240540  60.5435104 174.0151672  26.1262112
  59.8974152 174.1036835  25.3549595  60.1488914 173.0839996  27.2254333
  60.1435776 173.5977173  28.1867657  58.7268715 172.6615295  26.8669548
  58.0404243 173.4942474  26.7137337  58.7017708 172.0909882  25.9385414
  58.0594902 171.9093781  28.0380440  57.8571968 172.4864044  29.1710796
  57.7462387 170.7253571  27.8651390  61.1301880 171.9282990  27.4332523
  61.5054321 171.6379395  28.5560970  61.6007690 171.3575897  26.2900219
  61.2694092 171.6477203  25.3811111  62.8269501 170.5136261  26.2782764
  62.4572182 169.6908569  26.8902016  63.1745224 170.0251770  24.7978897
  63.1660843 170.8948059  24.1407948  64.4842148 169.3849182  24.6919098
  64.5405350 168.5769196  25.4213352  64.6256943 168.9719086  23.6931572
  65.2405930 170.1492004  24.8704185  62.1098061 169.0058594  24.3577919
  62.2779922 168.0525665  24.8588352  61.1246262 169.3869476  24.6266727
  61.9422035 168.9054871  22.8063622  62.9176521 168.7838440  22.3353882
  61.3203850 168.0951538  22.4258308  61.4731674 169.8199768  22.4433060
  64.0584488 171.2174835  26.9382000  64.6773376 170.6349945  27.8329391
  64.4192963 172.4162140  26.5126324  64.0321198 172.7981110  25.6615429
  65.5866623 173.1380463  27.1061783  66.4416580 172.4620514  27.1168213
  65.9003830 174.4249725  26.3436661  65.0873108 175.1340332  26.4993687
  66.7642593 174.9093781  26.7988548  66.2833328 174.1996307  24.8782444
  67.0762863 173.4650421  24.7377911  65.3281555 173.8732758  24.4668713
  66.6869049 175.6611023  23.8714409  67.7887192 175.0192871  22.5840816
  67.1854019 174.4881134  21.8479004  68.3060989 175.8565674  22.1157112
  68.5455627 174.3393707  22.9752235  65.3810501 173.4910431  28.6045914
  66.3451538 173.6748505  29.2697697  64.1864319 173.6677094  29.1210346
  63.3817825 173.6971130  28.5112991  63.8828926 173.9167633  30.4982529
  64.6017227 174.6530914  30.8577271  62.4486122 174.5168610  30.6756306
  61.6785736 174.0426331  30.0671463  62.1310043 174.3703308  31.7079906
  62.3509102 176.0464478  30.3672371  63.2792969 176.7543488  30.1697483
  61.1647148 176.5348206  30.6699085  61.0029640 177.5270233  30.7673359
  60.4535446 175.8313904  30.8095779  64.0632172 172.6875305  31.3657990
  64.7629852 172.7652283  32.3795166  63.5051193 171.5854492  30.8267632
  62.9294052 171.7182007  30.0075989  63.3395691 170.3202515  31.6380405
  63.1919060 170.5517426  32.6928902  62.1118088 169.5034180  31.1207886
  62.0726929 169.5496063  30.0324707  62.0975685 168.4622803  31.4431934
  60.8919373 170.1865692  31.6350040  61.0315399 170.2467346  32.7143517
  60.7939072 171.1977539  31.2400169  59.6607666 169.3901978  31.2203255
  59.6165161 169.3152771  30.1338024  59.6587830 168.3846741  31.6410446
  58.3799095 170.0999603  31.7119331  58.3810654 170.0587311  32.8011551
  58.4753227 171.1399078  31.3997116  57.1155205 169.5321198  31.1708202
  57.1688423 168.5357971  31.3276367  56.2996330 169.9308167  31.6129341
  57.0445747 169.7693481  30.1916428  64.5758591 169.3747101  31.5176048
  64.7503433 168.5222473  32.4400597  65.3998642 169.4514923  30.4700108
  65.0466003 170.0295715  29.7209167  66.6815338 168.7558594  30.3184052
  66.5284119 167.6912384  30.4951324  67.0579987 169.0130157  28.8632717
  66.3683395 168.5369720  28.1662388  67.1506500 170.0686951  28.6082497
  68.6619339 168.2807007  28.6174126  68.3329849 167.0205536  28.9152241
  67.6415176 169.3750458  31.2657642  67.9381790 170.4960632  31.1692867
  68.2835236 168.5697021  32.1329002  68.1205673 167.5755310  32.0609703
  69.4189911 168.9829102  32.9926949  69.7529526 169.9512482  32.6199837
  69.0407867 169.0723572  34.4703522  69.8323898 169.5156708  35.0744438
  67.8796768 170.1410675  34.6737404  66.9778824 169.8678284  34.1258278
  67.6548767 170.2702637  35.7324524  68.3085480 171.0894165  34.3500023
  68.5884552 167.8228302  34.9286880  68.6939240 167.7763062  35.8817444
  70.6551285 168.0697021  32.8890419  71.7957382 168.4900665  32.8449059
  70.3817368 166.7700958  32.8379745  69.4209900 166.4833374  32.9597626
  71.3403473 165.7249908  32.8533249  72.3616104 166.0838928  32.7256508
  71.3558044 165.0835724  34.2532616  71.8623199 165.8964081  34.7736816
  70.3394012 164.8804779  34.5905647  72.2152328 163.9434204  34.5006790
  71.7145309 163.1409912  34.3363876  71.1422729 164.6302338  31.7554798
  70.0472488 164.5281830  31.1593590  72.2296295 163.9145813  31.4001141
  73.1132126 164.2264557  31.7770882  72.2259521 162.8650818  30.3639183
  71.1774826 162.6026306  30.2227364  72.7796097 163.4340668  29.0660343
  73.7805405 163.7724915  29.3338032  73.0364761 162.6685181  28.3338814
  72.0713120 164.6223602  28.3985882  71.6498718 165.3204193  29.1219139
  73.0442581 165.4516602  27.4894791  73.7643204 164.8915100  26.8929424
  72.5319443 166.1352234  26.8124447  73.6141968 166.0765076  28.1770992
  71.0227509 164.1750336  27.3755245  70.2380829 163.6977539  27.9625416
  70.5674210 165.0027008  26.8316994  71.5022354 163.4874725  26.6787624
  73.0563507 161.6675262  30.7640686  74.2444916 161.7317352  31.2089710
  72.4141846 160.4374542  30.6397705  71.4707184 160.5000763  30.2847328
  72.9037170 159.2352448  31.2311192  73.8811417 159.3652954  31.6956959
  71.9102097 158.7810974  32.3028412  70.9277191 158.5191956  31.9101334
  72.1993179 157.8183594  32.7243309  71.7383728 159.9918976  33.6822548
  70.7032623 160.7508850  33.3116074  73.0138474 158.1041260  30.1638374
  72.6152573 158.2728119  28.9985409  73.4617157 156.8487854  30.4797840
  73.6604004 156.6497498  31.4498425  73.3314514 155.6643372  29.6290493
  73.4871292 155.9900818  28.6005802  74.4172058 154.5764313  29.9556007
  75.3692322 155.0251160  29.6720047  74.4137268 154.3406677  31.0197906
  74.1584930 153.0337677  29.0162792  75.3795471 152.4917755  29.0298328
  71.9067535 155.0880585  29.6631279  71.2995071 154.9488525  30.6804447
  71.3956757 154.7027283  28.4574013  71.9108200 154.8910217  27.6093044
  70.0996857 154.0571899  28.3061028  69.3864212 154.5706177  28.9508877
  69.6765366 154.2135162  26.7994366  69.7837753 155.2454071  26.4650993
  70.3349609 153.6132202  26.1715736  68.1809235 153.9004517  26.5934849
  68.0830460 152.8887329  26.9871330  67.5431290 154.6403656  27.0770531
  67.7654190 153.7292175  25.0979748  68.4991150 153.0034027  24.7472954
  66.7924957 153.2390594  25.0623131  67.7533340 155.0666656  24.3360481
  67.0662537 155.7147369  24.8801346  68.7484055 155.5106812  24.3079777
  67.3939590 154.8722839  22.8905144  66.4773865 154.4836731  22.7202969
  67.3587799 155.7448425  22.3830585  68.0350342 154.2682648  22.3962536
  70.0416260 152.6200867  28.7471066  68.9822540 152.1871490  29.1523857
  71.1278839 151.8560791  28.7292728  71.9789963 152.1711731  28.2860851
  71.0487366 150.5072021  29.3295841  70.1135254 150.0865173  28.9601154
  72.2435989 149.7669220  28.7068996  72.0533371 149.6564636  27.6393299
  73.0997086 150.4397278  28.7569828  72.5865936 148.4250946  29.3641701
  72.8747635 148.5498505  30.4079609  71.7646103 147.7101593  29.3281403
  73.6717834 147.6452332  28.6110325  74.0322647 147.9732666  27.4974804
  74.1829758 146.5395050  29.1237183  74.8279800 145.9650421  28.6002045
  73.8389206 146.1914825  30.0072422  71.0780640 150.5098114  30.8331242
  70.4734497 149.6092682  31.4707909  71.7058487 151.5047150  31.4714298
  72.2488861 152.1569672  30.9239120  71.6713333 151.6369934  33.0181999
  71.7668839 150.6904602  33.5502319  72.8898621 152.4453735  33.3866997
  72.7566376 153.4014282  32.8804245  72.9539337 152.7097626  34.4422073
  74.4671326 151.7605591  32.8027420  75.0644531 151.5504303  33.9791565
  70.4097061 152.3860779  33.5350685  69.8887329 152.1658325  34.6758957
  69.9030457 153.2387695  32.6410789  70.5499344 153.3498535  31.8734169
  68.9721451 154.3828735  32.8540039  68.9430695 154.9564819  31.9275990
  67.4816437 153.9241486  33.0684052  67.3860703 153.5178680  34.0753365
  66.7514877 154.7237396  32.9433670  67.1988297 152.8740845  32.0168152
  67.5268631 153.3185425  31.0771542  67.7314835 151.9523773  32.2509460
  65.7498550 152.3758698  31.8825779  65.1374664 151.8689423  32.8057823
  65.0772934 152.4660187  30.7242203  64.0948944 152.2366486  30.6754646
  65.6513062 152.5238190  29.8952026  69.4759064 155.3973389  33.8918228
  69.2695465 156.6019135  33.6407776  70.1371689 154.9795685  34.9350967
  69.9113617 154.0334778  35.2071800  70.5336533 155.8805237  36.0538521
  69.8331604 156.7131042  36.1189041  70.5214081 155.0965729  37.3975372
  70.3555756 155.8178711  38.1977501  69.6278000 154.4734344  37.3621979
  71.7040787 154.1103210  37.6103172  72.2998352 153.6283875  36.6199722
  71.9036331 153.7617645  38.7689476  71.9072952 156.5498352  35.8870850
  72.1321411 157.5988770  36.4532013  72.9030228 155.9045410  35.2333984
  72.7286148 154.9247131  35.0612411  74.2578201 156.4501343  35.2864838
  74.5679626 156.6044617  36.3199730  75.1269455 155.2599335  34.8125343
  74.7658997 154.9954987  33.8186455  76.6591492 155.3693542  34.8481064
  77.0069580 155.4245300  35.8796501  77.0914459 154.4705200  34.4084549
  76.9514694 156.2877808  34.3390388  75.0316467 154.0770569  35.5714645
  74.1194611 153.8766479  35.7936096  74.5373001 157.6679688  34.3842926
  74.5508118 157.6526642  33.1619263  74.8728790 158.8043213  35.0386658
  74.8797379 158.7192535  36.0450554  75.2627335 160.0646362  34.4512253
  74.4868622 160.3534851  33.7422256  75.3473358 161.1533813  35.5499954
  74.3823318 161.2476501  36.0479698  76.1454010 160.8462219  36.2258987
  75.7055588 162.5451660  34.9369278  76.6166458 162.4265900  34.3504486
  74.8874207 162.8698883  34.2940407  76.0029984 163.6054993  36.0046005
  75.8278503 163.3007050  37.1946144  76.3855743 164.7413177  35.5682602
  76.5631561 159.9652863  33.6550407  77.6286240 159.7182159  34.1855583
  76.5235519 160.3473053  32.3771706  75.6203537 160.6550751  32.0460739
  77.7161560 160.4647217  31.5696812  78.6178589 160.0704346  32.0382652
  77.4427872 159.7715607  30.2310696  76.4023895 159.8898315  29.9282722
  78.1424255 160.4322510  29.0796261  79.2184906 160.4570770  29.2516022
  77.9264908 159.9051208  28.1503239  77.7411423 161.4284210  28.8932552
  77.8259506 158.2251129  30.2741871  77.6226120 157.7665558  29.3064728
  78.9035873 158.1213684  30.4007816  77.0502090 157.3637390  31.3139038
  75.9657745 157.2940369  31.2288132  77.3601456 156.3248138  31.2012253
  77.3264999 157.6821747  32.3190689  78.0595398 161.9833984  31.4272823
  79.2630005 162.2754059  31.3661861  77.0777130 162.8809052  31.2982426
  76.0910645 162.6677246  31.2639561  77.4305801 164.3097534  31.0554943
  78.2250977 164.6013336  31.7423916  77.9028702 164.5850525  29.6083641
  78.7458649 163.9521637  29.3310432  76.8282089 164.4671021  28.5638084
  76.0183640 165.1854858  28.6909847  77.1298828 164.4342499  27.5169029
  76.3352585 163.4990540  28.6532402  78.4733200 165.9069061  29.5115643
  79.3910522 165.7774353  29.7617702  76.2445374 165.2261200  31.4260178
  75.0864563 164.7893982  31.5584221  76.4964142 166.5266724  31.6695824
  77.4672546 166.7988892  31.6106987  75.5018005 167.6067963  31.8663578
  74.4767227 167.2407074  31.9238377  75.8020554 168.2541962  33.2557755
  75.6721115 167.5042725  34.0360489  77.1563416 168.9186249  33.3125496
  77.2214890 169.6232758  32.4835052  77.3520660 169.4130096  34.2640610
  77.8983383 168.1278534  33.2020416  74.8858871 169.2693329  33.4382668
  74.8693466 169.5610199  34.3527298  75.3440857 168.5764618  30.6623821
  76.1571960 168.5713348  29.6955738  74.2086563 169.3099213  30.6862717
  73.6857681 169.0417328  31.5077133  73.7580948 170.1934357  29.6702995
  73.7524948 169.6199646  28.7433681  72.3562775 170.6592712  30.0795574
  71.6224060 169.8634949  29.9519920  72.3530045 170.9398499  31.1328239
  71.9935074 171.8797913  29.2399712  72.7227631 172.6760559  29.3891125
  71.8785019 171.6322327  28.1847038  70.6023331 172.4626312  29.6804562
  69.8172455 171.7451782  29.4417076  70.6027069 172.6687317  30.7507935
  70.2376556 173.7179565  28.9499741  71.1166000 174.3550110  28.8513145
  69.8466339 173.5944672  27.9400463  69.2127075 174.4497070  29.7442455
  69.4277496 174.5601044  30.7248917  68.9901047 175.3574677  29.3614941
  68.3476639 173.9284210  29.7357826  74.8579483 171.3208923  29.5928574
  75.2612991 171.6838837  28.4620476  75.3636932 171.7459259  30.7449226
  75.0736237 171.3256073  31.6162968  76.3820724 172.7884369  30.8767147
  76.0614853 173.7403259  30.4533596  76.5738144 173.0973969  32.3658028
  76.9302826 172.2619934  32.9683914  77.4431686 173.7547302  32.3812904
  75.4573364 173.8453522  33.1051102  74.6078568 174.4929504  32.4715996
  75.2550507 173.7365570  34.3733215  74.5139160 174.2574615  34.8199463
  75.7926865 173.1242523  34.9700890  77.6969681 172.4906464  30.2341785
  78.4665756 173.4174500  29.9832935  77.9893646 171.2342072  29.8702316
  77.3228531 170.5085907  30.0923977  79.2193451 170.8359222  29.0959072
  79.9843674 171.5800781  29.3173923  79.7496338 169.4512177  29.4942513
  79.1028366 168.7307129  28.9936314  80.7385712 169.4380951  29.0360603
  79.9260941 169.0495911  30.9151592  78.9104385 169.0041199  31.3082085
  80.3961411 168.0676727  30.9699974  80.8670807 169.8922424  31.7975254
  81.2780914 171.0268555  31.4780426  81.1883011 169.3857880  32.8671722
  79.0483627 170.7962646  27.5715046  79.9259949 170.3926544  26.8086891
  77.9061584 171.2045288  27.0667820  77.1955414 171.5657501  27.6869812
  77.5106506 171.1302795  25.6366901  78.0174103 170.2719727  25.1955452
  75.9832077 170.8761292  25.3294277  75.3732147 171.5409698  25.9409809
  75.6904068 171.0619965  23.8709469  76.3411789 170.4131317  23.2847881
  74.6549683 170.9209595  23.5609951  75.7957687 172.0999298  23.5552006
  75.6747208 169.4246826  25.7726269  76.1862411 168.7432556  25.0928440
  76.1465530 169.2585907  26.7410736  74.2068481 169.0751190  25.7548351
  73.7543945 169.1477509  24.7658386  74.1508102 168.0104218  25.9815159
  73.6514587 169.7124634  26.4428978  78.0486298 172.3524475  24.8539715
  78.0074844 173.4515686  25.3764629  78.7619019 172.0679626  23.7620087
  78.7760544 171.0806885  23.5493736  79.3666000 173.0694580  22.8678913
  78.8650818 174.0355072  22.9256878  80.7863693 173.3417053  23.2324905
  81.0140610 174.4075165  23.2146339  80.9123001 173.1395721  24.2961559
  81.8591995 172.4894257  22.5377922  81.9437714 171.1784821  22.8585052
  81.2399902 170.7398071  23.5503559  82.8450928 170.3663483  22.1438065
  82.9303207 169.2995300  22.2888107  83.7392197 170.9659729  21.2338276
  84.5455399 170.4818573  20.7029057  83.7152023 172.3697205  20.9487457
  84.4383316 172.9241791  20.3690281  82.7139206 173.1026154  21.6092262
  82.6957397 174.1727600  21.4647751  79.1414108 172.6772308  21.3271198
  79.0668335 171.4782562  20.9441433  79.0475693 173.7396393  20.5487785
  78.9927826 174.6665344  20.9462261  78.8003082 173.7543030  19.1018887
  78.1588745 172.9212189  18.8144417  77.9891968 175.0164490  18.8086777
  78.5234833 175.9135742  19.1214123  77.8172073 175.0876465  17.7346897
  76.7493668 174.9226379  19.4505043  76.1851425 175.6452026  19.1656170
  80.0774384 173.6339722  18.2980080  80.6140594 174.6189575  17.7993774
  80.5576324 172.3841553  18.1324310  80.1585007 171.6575317  18.7093391
  81.6317902 172.1022797  17.2545300  82.3476868 172.9170532  17.3629379
  82.3455734 170.7945557  17.6293640  82.5036469 170.9111328  18.7015209
  81.5723572 170.0448914  17.4613247  83.6357651 170.5086670  16.9331417
  83.6024399 170.4627686  15.8446178  84.8221054 171.4697113  17.1792316
  85.1254196 171.5005646  18.2257271  85.6313248 171.1134949  16.5417595
  84.7198639 172.4818878  16.7878895  84.1362762 169.1030884  17.4132595
  83.3813934 168.3470001  17.1974220  85.1128616 168.8866577  16.9802113
  84.2384644 169.1536255  18.4972820  81.2602615 172.2246399  15.7419491
  82.0577011 172.5279388  14.8780537  79.9849014 172.0348969  15.4609127
  79.3092422 171.7646942  16.1613312  79.5319061 172.2526855  14.1078014
  80.3634109 172.2193451  13.4038162  78.6132660 171.0802155  13.7398758
  79.0512619 170.0856171  13.8237820  77.7128220 171.1120453  14.3533020
  78.2758484 171.1516266  12.4171963  78.2524643 170.3198853  11.9383955
  78.8217697 173.6052246  13.9673157  78.2325134 174.1695099  14.9163551
  78.7839890 174.1411133  12.7680664  79.3487320 173.7389984  12.0335770
  77.7673950 175.0682068  12.2784834  77.6696777 175.9496460  12.9122334
  78.1873093 175.5140228  10.9006834  78.1345520 174.6277161  10.2684088
  77.3331604 176.1082764  10.5760422  79.4458237 176.3957214  10.8098116
  80.3143082 175.9098663  11.2545433  79.7650833 176.6388397   9.3347921
  78.8598633 176.9642487   8.8221636  80.4479446 177.4779510   9.2018175
  80.1980743 175.7826080   8.8175945  79.1798859 177.7821503  11.3966265
  79.3275604 177.8372803  12.4751663  79.8568649 178.4981384  10.9306240
  78.1381531 178.0218964  11.1835423  76.3314667 174.5734253  12.2930307
  75.3679504 175.3391571  12.4493885  76.1338043 173.2466888  12.3243608
  76.9022522 172.5913544  12.3135509  74.8334808 172.6111450  12.5451689
  74.1292267 173.1849670  11.9427996  74.7928696 171.1520844  12.0392723
  75.5323868 170.5278931  12.5408802  73.8024139 170.7633820  12.2759180
  75.0900803 171.1925964  10.2536268  74.4500885 170.0465546  10.0048189
  74.3729324 172.7596283  14.0085802  73.1752396 172.4691772  14.2379456
  75.2152939 173.1474457  14.9988213  76.1458969 173.4232788  14.7195387
  74.9522781 173.2657318  16.4236813  75.1091843 174.2831879  16.7818279
  73.8918991 173.0286713  16.5102825  75.6759338 172.2061462  17.2725067
  76.7623138 171.8299866  16.8720341  75.2301331 171.8811188  18.4917393
  73.9484711 172.2895813  19.0742512  73.1226044 172.2916260  18.3628883
  74.1183624 173.3125458  19.4100933  73.6898956 171.4050140  20.2955589
  73.1500092 170.5018005  20.0112743  73.1064987 171.9004364  21.0716572
  75.1044006 171.0023193  20.6853886  75.0268631 170.0669098  21.2395668
  75.5742950 171.7115936  21.3667297  75.8851242 170.8569641  19.4201031
  76.8935013 171.1833191  19.6746120  76.0556641 169.4105835  18.9499950
  76.6193390 168.5431976  19.6786175  75.4284973 168.9710541  17.8621788
  74.8849258 169.6499939  17.3486900  75.1234131 167.6174774  17.4539623
  76.0527725 167.1282196  17.7455482  73.9843140 167.0867920  18.2264442
  73.9577942 167.4281311  19.2612839  73.1117020 167.6345215  17.8705730
  73.7580948 165.5457916  18.2454948  73.7313766 165.2186584  17.2060871
  74.6191483 165.0557098  18.6999283  72.2213364 164.8910370  18.9712276
  71.1661072 164.9956207  17.5470181  71.6782303 164.4944000  16.7256775
  70.1609497 164.5818176  17.6278496  71.1632996 166.0204163  17.1757030
  74.8578644 167.5318756  15.9488516  74.3548889 168.5058289  15.3593550
  75.3941803 166.5066528  15.2264643  76.0075302 165.8688965  15.7134666
  75.0119400 166.2130280  13.8528099  73.9502411 166.4237061  13.7243099
  75.7746429 167.2142029  12.8863668  76.8570786 167.0913696  12.9231243
  75.3905945 167.1007690  11.8725939  75.5927200 168.2496490  13.1741896
  75.1117630 164.7577820  13.5797014  75.0910339 163.9386139  14.5009079
  75.2323532 164.3320312  12.3172398  75.4513550 164.9546051  11.5526838
  75.0244904 162.9349670  11.9808969  74.9969406 162.3038177  12.8691568
  73.6550827 162.8342590  11.2963829  73.6118240 163.3838196  10.3560600
  73.4243546 161.7916412  11.0777140  72.8930740 163.3200073  11.9058905
  76.1580963 162.5150146  10.9877453  76.5314713 163.2787933  10.1102495
  76.6626205 161.2985687  11.1006432  76.1539993 160.6299591  11.6613169
  77.8723297 160.8302765  10.4329252  78.0446625 161.3539581   9.4926195
  79.0823975 161.3052368  11.2902756  78.9826126 160.7689056  12.2339354
  80.0109940 161.0382690  10.7857590  79.1792984 162.7875824  11.7143402
  79.5941315 163.8275299  10.7833271  79.8127365 163.6239471   9.7454567
  79.7562180 165.1540222  11.2599249  80.0474548 165.9292450  10.5666504
  79.4284668 165.4532013  12.5772715  79.4343567 166.7153931  13.0532551
  79.5931320 167.3184509  12.3233919  78.9256516 164.4693298  13.4132223
  78.5853195 164.7391357  14.4020491  78.8015900 163.1558380  12.9796915
  78.3640823 162.4405823  13.6604300  77.8436356 159.2845612  10.1493034
  76.8852768 158.6069794  10.5165520  78.9396362 158.7255707   9.5763245
  79.7152023 159.3556671   9.4294529  79.1052475 157.2866669   9.2781467
  78.4309158 156.6727600   9.8752031  78.6143723 156.9295502   7.8314357
  78.7444305 155.8635559   7.6447368  77.1104279 157.1819611   7.6405711
  76.7384491 158.2024841   7.7314076  76.7825012 156.9658813   6.6237731
  76.4580154 156.5517578   8.2449894  79.4475327 157.7079010   6.8102899
  80.4973373 157.4183197   6.7639832  78.9972382 157.5934601   5.8242698
  79.2354050 158.7446442   7.0716000  80.5405731 156.7153320   9.4573565
  81.4608383 157.3367310   8.9007559  80.7046814 155.4879608   9.9406242
  79.9263306 154.9769745  10.3319883  81.9694748 154.6357574   9.7815018
  82.7685928 155.3728027   9.8606033  82.0129623 153.6250000  10.9228573
  83.0257874 153.2727966  11.1184263  81.5719833 154.1298981  11.7823343
  81.2438889 152.3637848  10.6707134  80.1589127 152.4839478  10.0847063
  81.6449203 151.2015686  11.1523647  81.0510941 150.4067230  10.9634542
  82.3600998 151.2234802  11.8652067  82.0608444 154.0300598   8.3744698
  80.9841843 153.9541779   7.7681460  83.2120514 153.4240265   7.9239044
  84.3788528 153.3417664   8.7282324  84.2929840 152.4557037   9.3572092
  84.5910797 154.2279816   9.3263016  85.4404373 153.0995483   7.6766686
  86.2496796 152.5205536   8.1216383  85.7220993 153.9925232   7.1186681
  84.7532196 152.1625061   6.6927309  84.8078690 151.1986542   7.1988091
  85.2610474 152.0435791   5.7356172  83.3627548 152.7557220   6.6512074
  83.3471909 153.6045227   5.9675317  82.2746582 151.6862030   6.3148546
  81.8572769 151.5602875   5.1605649  81.8346176 150.9312134   7.3363762
  82.3159180 151.1239624   8.2031469  80.7438736 149.9671783   7.3748345
  80.9178772 149.4405212   6.4365077  80.9017792 148.9822235   8.5954494
  80.6118546 149.5989685   9.4461432  80.1739731 148.1719208   8.5530081
  82.3073349 148.4138336   8.7769079  83.2696075 148.9544983   9.5666466
  84.3768082 148.2449341   9.3288660  85.2911453 148.3598480   9.8920479
  84.1095428 147.3237457   8.3805857  84.8713837 146.7393799   8.0672007
  82.8003082 147.3788300   8.0541306  82.2356491 146.8683167   7.2880092
  79.3172989 150.6138000   7.3503032  78.3187027 149.9328613   7.4214063
  79.2324219 151.9349518   7.1292415  80.0817108 152.4651337   7.2623906
  78.0537872 152.7280731   6.6813617  78.4509048 153.7200623   6.4660783
  77.6444092 152.3081512   5.7625713  76.8595276 152.9333649   7.6581292
  75.9376526 153.6395569   7.3417721  76.8624802 152.2971039   8.8538389
  77.7077942 151.7897491   9.0732222  75.9318542 152.5677643   9.9568796
  74.9288483 152.4068451   9.5616817  76.2866135 151.6372375  11.1306610
  76.5311050 150.6527863  10.7316828  77.2328491 151.9446106  11.5759192
  75.2560654 151.5336761  12.3004007  74.1913605 150.6562042  12.1828032
  74.1672134 149.9270020  11.3865099  73.2127609 150.5551605  13.2053747
  72.4912415 149.7517090  13.2218351  73.3502045 151.4096527  14.3379574
  72.5604477 151.2248535  15.4301128  72.0662613 150.4040985  15.3688011
  74.3254700 152.4483185  14.3104868  74.3163910 153.1210480  15.1553202
  75.2709427 152.5457458  13.2971115  75.9626617 153.3742218  13.2573833
  75.9683456 154.0637360  10.3987198  77.0707779 154.5784149  10.6873579
  74.7871857 154.7060547  10.6352911  73.9328308 154.2126923  10.4190302
  74.7110519 156.1655121  10.9076710  75.5486069 156.6477203  10.4035950
  73.4751892 156.8074799  10.2015429  72.5646439 156.3054047  10.5285234
  73.4163818 158.3424530  10.5074482  72.6606674 158.7908325   9.8624916
  73.1236572 158.4716187  11.5494347  74.4032059 158.7440948  10.2773123
  73.4136734 156.6378632   8.6653109  73.6141586 157.5503693   8.1038513
  74.1449814 155.9010468   8.3330574  72.0114365 156.0521088   8.3361311
  71.2095184 156.7810974   8.4528475  71.9513321 155.6237335   7.3356442
  71.7812271 155.2836914   9.0741282  74.8256912 156.3752289  12.4397793
  74.1006546 155.7522583  13.2482691  75.7348099 157.2420044  12.8321857
  76.2369385 157.7191620  12.0971460  76.0359039 157.6788177  14.1738405
  75.2916718 157.1145172  14.7357788  77.4848785 157.3361816  14.6291113
  78.1584549 157.7556610  13.8818245  77.6641159 157.7953033  15.6013165
  77.7405777 155.8485107  14.7125139  77.0996857 155.0831757  15.6861038
  77.6958313 153.8845367  15.5343790  77.3961639 153.0045929  16.0842152
  78.6027298 153.8505249  14.5278902  79.2781982 153.1439819  14.2736683
  78.6790237 155.1380615  14.0358906  79.3654556 155.5062561  13.2877941
  75.6311722 159.1410828  14.3400593  75.7710266 159.9265137  13.4046535
  75.0197983 159.4697418  15.4727526  74.7873611 158.8212128  16.2113247
  74.7173615 160.8416290  15.8028965  75.1393814 161.5455933  15.0856562
  73.2132568 161.2232819  15.8603039  72.6948090 160.5460205  16.5389996
  73.2813339 162.2160187  16.3051853  72.4320526 161.3780975  14.5643129
  72.9109650 162.0182953  13.8234463  72.2350311 160.4068909  14.1103783
  71.0508118 161.9010315  14.9143229  70.2783279 161.2657013  15.7044525
  70.6444550 162.9747620  14.3553867  75.4278183 161.2249603  17.1625290
  75.1493988 160.6007080  18.2033863  76.4286804 162.1227417  17.0828991
  76.6135178 162.5932007  16.2084789  77.3629532 162.4069672  18.1508675
  77.1431961 161.8231049  19.0446892  78.7970123 162.0572968  17.7541084
  79.4941711 162.4392395  18.4998951  79.0209274 160.5286102  17.5092373
  78.8010712 160.2440033  16.4802685  80.0903320 160.3180695  17.5213203
  78.5351105 159.9743500  18.3122883  79.0765610 162.7344971  16.5260715
  79.9608917 162.4310303  16.3081703  77.1362381 163.7706909  18.7199554
  77.4343567 164.7580566  18.0643234  76.7130585 163.8620148  19.9745369
  76.6774292 162.9739532  20.4543171  76.6502457 165.0422668  20.8075523
  76.2120056 165.8460541  20.2159672  75.7323990 164.8067474  21.9702053
  74.6871796 164.7602997  21.6644974  76.0014954 163.8299255  22.3720837
  75.7152023 165.8775482  23.0289860  76.7479553 166.1051636  23.2930393
  74.9426880 167.0963440  22.4213448  73.9244003 166.8294678  22.1385708
  75.0135727 168.0009155  23.0253582  75.4580536 167.5657196  21.5833759
  74.9445267 165.4544220  24.2646046  75.5216522 164.6902313  24.7851963
  74.7190323 166.3301239  24.8732071  73.9520493 165.0754089  24.0207920
  78.1386032 165.3471527  21.2582893  78.7442627 164.4749298  21.8793850
  78.5659714 166.6002655  20.9905300  78.0036392 167.1770782  20.3812904
  79.9356384 166.9767456  21.3162632  80.4480743 166.0311584  21.4933834
  80.6406937 167.6128998  20.1359558  81.5944366 167.9066010  20.5743713
  80.8388138 166.6757660  18.9402695  79.9143448 166.6283569  18.3647594
  81.6463394 167.0382996  18.3041992  81.1444168 165.6690216  19.2251701
  79.9158859 168.7481537  19.6237450  79.2092056 168.9290161  20.2478409
  79.9859238 167.7946777  22.6318417  79.2293015 168.7577515  22.8342876
  80.7712097 167.3101654  23.5417824  81.2652664 166.4440002  23.3812275
  80.9316864 167.9404602  24.8979740  80.5475082 168.9605103  24.8938217
  80.1411819 167.1524963  25.9933338  80.3555908 167.6018066  26.9630051
  78.6161728 167.2542419  25.8775768  78.2401657 166.5594940  25.1265392
  78.1718369 167.1194916  26.8637390  78.3493805 168.2336578  25.4805031
  80.4939728 165.6889496  26.2371807  81.5394592 165.5207520  26.4955883
  80.0276184 165.3010712  27.1428070  80.2198715 165.0788422  25.3765106
  82.3840179 168.0112152  25.2928524  83.0902328 167.0941620  24.9229450
  82.8538361 169.0347137  26.0288506  82.2077789 169.7490234  26.3329639
  84.2900620 169.0619659  26.4197369  84.9102631 169.1196442  25.5252361
  84.5764160 170.3531494  27.1626625  84.0619812 170.4133759  28.1217403
  85.6433868 170.3901367  27.3824368  84.2687225 171.6615448  26.4559383
  85.2235336 172.1297913  25.5031128  86.0835800 171.5505219  25.2011776
  84.9514847 173.3832550  24.8330631  85.6946869 173.7933807  24.1653461
  83.8586502 174.1379395  25.2172146  83.6901855 175.4045715  24.7118301
  84.0405884 175.5716400  23.8338203  82.9765625 173.6834869  26.1914787
  82.1866150 174.3496857  26.5054054  83.1366348 172.4194489  26.7602081
  82.4000168 172.0755310  27.4712029  84.7529373 168.0075073  27.4321041
  85.9675217 167.7013550  27.5236359  83.8506165 167.5109863  28.2639904
  82.9091797 167.8761749  28.2849579  84.1421814 166.5993195  29.3826618
  85.0699844 166.0437927  29.2460556  84.4367447 167.5140228  30.5754738
  85.3255081 168.0367737  30.2220268  83.6038208 168.2148132  30.6322136
  84.8220749 166.9117737  31.9371033  84.0399551 166.2785950  32.3560066
  85.7177963 166.3036499  31.8106976  85.0872269 168.0917511  32.9382744
  85.8840485 168.7606659  32.6130943  84.1587677 168.6604462  32.8869629
  85.3900299 167.5302277  34.3113708  85.3577652 168.3613281  35.0158730
  84.5925980 166.8405914  34.5881462  86.7548447 166.9529114  34.4631920
  87.5136871 167.4981232  34.0797882  86.9392548 166.9079285  35.4551964
  86.9154205 166.0496826  34.0406914  82.9804230 165.6346130  29.6487198
  81.7922363 165.9693909  29.4235611  83.2956238 164.4606628  30.1363354
  84.2542267 164.1574554  30.0401440  82.3688049 163.4136200  30.5360527
  81.3839340 163.8079376  30.7863426  82.1593704 162.5067291  29.3026104
  83.1414261 162.0711670  29.1183548  81.4152908 161.7548370  29.5654736
  81.8628769 163.1637573  28.4849892  82.8267059 162.5749512  31.8093605
  84.0216827 162.4589386  32.1130104  81.8868942 162.0870056  32.6649742
  80.9375458 162.0158997  32.3276787  82.1811981 161.4507904  33.9952126
  83.1879730 161.8466644  34.1286011  81.3601227 162.1697693  35.0738564
  80.2849960 162.1344147  34.8979301  81.5749664 161.7469635  36.0552711
  81.9412231 163.9078674  35.1877327  81.1095734 164.3964081  34.2632942
  82.2974014 159.9650574  34.0165100  83.4390030 159.5144958  34.2611084
  81.2263412 159.1565094  33.9463043  80.3761597 159.6705627  33.7645149
  81.2953186 157.7199402  34.1424217  82.1550980 157.5433960  34.7887306
  79.9688797 157.3253937  34.8297653  79.1004333 157.5648193  34.2161064
  79.9825592 156.2531891  35.0254288  79.8757477 158.0066528  36.1713219
  80.6882706 157.7170715  37.0441208  79.0397797 158.9589081  36.3585587
  78.9646378 159.3679199  37.2789726  78.3700714 159.2184906  35.6484833
  81.5957794 156.9493561  32.8294182  80.8018188 156.0375061  32.4331360
  82.7288895 157.2498627  32.1693878  83.3109741 158.0114288  32.4876556
  83.1928711 156.4854889  31.0110512  82.4793015 155.6896057  30.7977238
  83.2108002 157.3300476  29.6940269  83.9685974 158.1088867  29.7791424
  83.4513092 156.6330261  28.8912678  81.8439789 157.9412994  29.3588142
  81.4266357 158.4918976  30.2018871  82.0807266 158.9675751  28.2735195
  82.3959579 158.4275208  27.3807297  81.0790482 159.3582458  28.0943222
  82.7075272 159.7636871  28.6753006  80.9055481 156.8316650  28.9002552
  80.6366119 156.1757202  29.7282143  79.9495010 157.2212982  28.5506058
  81.4305038 156.2075806  28.1770363  84.5796509 155.9310760  31.1713791
  85.4902802 156.6314697  31.5606441  84.7667542 154.6504364  30.8131905
  83.9180069 154.2504578  30.4393673  86.0297089 154.0231781  30.6291962
  86.8275375 154.5011444  31.1976280  86.0509872 152.5485687  31.1824646
  85.2565155 151.9887695  30.6889610  87.0012131 152.1390839  30.8396931
  85.9520416 152.4393616  32.6967049  85.8231812 153.3998718  33.5020027
  85.8582458 151.1851196  33.0857658  85.9368668 151.0078125  34.0769653
  85.9775391 150.5311127  32.3254166  86.4400635 154.1281281  29.1144676
  85.5663986 154.1192322  28.2471046  87.7393875 154.1669312  28.7845802
  88.2819366 153.7444611  29.5243549  88.3051834 154.1193085  27.4428577
  87.5756989 154.4655914  26.7107086  89.4826736 155.1021271  27.3561592
  90.2797623 154.7453766  28.0084457  89.8719177 155.1635284  26.3398800
  89.0156097 156.5399170  27.7751560  88.3603821 156.5383301  28.6462345
  90.2510529 157.2673645  28.1740284  90.9543381 157.1616821  27.3479958
  90.1281052 158.3223114  28.4191151  90.6842041 156.7852936  29.0504436
  88.3333282 157.3089600  26.6073380  87.4252014 156.7988434  26.2861214
  87.9528656 158.2753296  26.9381809  89.0723267 157.4550629  25.8195343
  88.7086487 152.6756897  27.0961952  89.1307144 151.8620605  27.8960686
  88.7458420 152.3790283  25.7819309  88.5115814 153.0807037  25.0942726
  89.3318558 151.1215515  25.2151470  90.0694809 150.7080231  25.9029007
  88.2491226 150.0573883  25.0677757  88.5657196 149.1798706  24.5040092
  87.9080887 149.8005066  26.0706768  87.1377182 150.6336517  24.3254128
  86.4249039 149.9950562  24.2499676  90.0450287 151.3932343  23.8713531
  89.8620453 152.4753265  23.2980232  90.9511185 150.5322113  23.4231262
  91.0392227 149.6925659  23.9774933  91.7332382 150.6571655  22.2011242
  92.2752838 149.7612457  21.8984585  91.1283035 150.8506012  21.3152657
  92.8222351 151.7252655  22.3491745  93.3191605 151.9892120  23.4310322
  93.2126923 152.3115692  21.1997910  92.8423767 151.9253693  20.3431568
  94.2169952 153.3718414  21.0713844  94.2120972 153.8225555  22.0638275
  95.6138306 152.8640594  20.6496124  95.5287247 152.2717896  19.7385273
  96.3110580 153.6412964  20.3367634  96.3616257 151.9257202  21.6283703
  95.7089081 151.0746002  21.8223991  97.2295837 151.5243988  21.1052170
  96.8326187 152.6703186  22.9347057  97.4931183 153.4938202  22.6632595
  95.9841995 153.0672913  23.4920979  97.5776138 151.6593018  23.7997799
  98.5414124 151.5567780  23.5157185  97.1228333 150.7194824  24.6522884
  95.8497086 150.7712097  25.0634327  95.2464828 151.5394287  24.8063889
  95.4855118 150.0382843  25.6552753  97.8641968 149.7526703  25.0342560
  98.8310547 149.7217255  24.7438698  97.5252457 148.9886169  25.6011944
  93.7694168 154.3754883  19.9789238  93.0180130 154.0420074  19.0706730
  94.2498779 155.6258087  20.0434704  95.1182404 156.1713562  21.1231232
  96.1526031 156.0992584  20.7869663  94.9444427 155.6130676  22.0430164
  94.7794571 157.6534271  21.2036247  95.5574722 158.3373108  21.5428772
  93.8708267 157.7839203  21.7913818  94.4746170 157.8855438  19.7245808
  95.3702927 158.1228485  19.1505089  93.8488770 158.7779694  19.7356625
  93.7860794 156.6541290  19.1452961  92.7169418 156.6436310  19.3572922
  94.0829849 156.3692780  17.6446800  95.0411606 155.7227783  17.2263145
  93.1778336 156.8107147  16.7754173  92.2214279 157.0144806  17.0281277
  93.3531189 156.9219055  15.3068457  94.3802567 157.1859131  15.0550823
  93.0476837 155.5227356  14.6602306  93.7656326 154.7747040  14.9965372
  92.0127335 155.3384094  14.9483452  93.1927338 155.6463318  13.2684660
  93.6744766 154.8523407  13.0253897  92.5245514 157.9522552  14.6310062
  91.4133606 158.2344360  15.0676012  93.0371857 158.5956573  13.5602531
  94.0387421 158.4971161  13.4750109  92.3873367 159.6378174  12.7050543
  91.6042633 160.1698456  13.2452698  93.5067978 160.6537628  12.2426291
  93.0392456 161.4253387  11.6309366  94.1146698 161.4964600  13.3751965
  94.7730865 160.8461761  13.9511385  94.6724625 162.3399963  12.9684925
  93.3807831 162.0068970  13.9988604  94.5261078 159.9938507  11.5418272
  94.2174149 159.8521423  10.6439257  91.7575150 158.9375610  11.4736624
  91.1318588 159.6711273  10.6523075  91.7946320 157.5470581  11.3679504
  92.2299118 156.9856873  12.0859394  91.1325150 156.7693787  10.3032713
  91.5118484 157.1737213   9.3648129  91.4768677 155.3073730  10.3841791
  91.2015533 154.8867645  11.3513393  90.9427490 154.7404480   9.6216688
  93.0303116 155.0172119  10.2361832  93.6794128 155.6517792  10.8395872
  93.1864700 154.0402527  10.6936350  93.5076523 154.9987030   8.7458105
  92.9015503 155.5404510   7.8090725  94.5593109 154.4370117   8.4711800
  89.5747375 156.9619293  10.2623968  88.8157349 156.5797424  11.1669512
  89.1503448 157.5998688   9.1418610  89.7806778 157.7176819   8.3615408
  87.7509384 157.9949951   8.8808060  87.6606903 158.4255219   7.8835087
  86.9025497 156.7430115   8.7307158  87.5117645 155.8636475   8.5217667
  86.4098740 156.4225006   9.6486712  85.8491135 156.7462616   7.6739354
  84.4768219 156.7814636   7.9466381  83.8521271 156.8520355   6.7559280
  82.7785645 156.8828735   6.6422930  84.7574997 156.7795715   5.7506800
  84.4897766 156.7569580   4.7770720  86.0348434 156.7663879   6.3246813
  86.9485626 156.6910095   5.7538543  87.1929245 158.9327087  10.0261517
  85.9827271 159.0004730  10.2542353  88.0264282 159.7607574  10.6880407
  89.0131226 159.7123871  10.4778051  87.5520325 160.7033081  11.7529659
  87.0253983 160.1215515  12.5094843  88.7988815 161.4221954  12.3266373
  89.3398590 160.5776062  12.7534180  89.4205399 161.9420471  11.5976667
  88.4136810 162.2959900  13.3411827  89.2374039 162.7284546  13.5779572
  86.6213531 161.8035583  11.2546635  87.0329285 162.6932068  10.4782133
  85.3873520 161.8519592  11.7315998  85.1572647 161.2907562  12.5392036
  84.3487778 162.8643036  11.4472237  84.1118240 162.7899933  10.3858852
  83.1537857 162.4197693  12.2398062  83.3562927 162.5713196  13.3000555
  82.3384171 163.1165161  12.0453453  82.7164078 160.9941864  11.9617748
  82.8861618 160.2961884  10.7877188  83.2724609 160.7410278   9.8825750
  82.3755875 159.0274811  10.8970699  82.4552612 158.3808746  10.1252899
  82.0027313 158.7413330  12.2163334  81.4641266 157.6349030  12.7921429
  81.2791061 156.7469177  12.2059221  81.1358032 157.6799011  14.1842470
  80.8088989 156.7902679  14.7020340  81.5081863 158.8608398  15.0182638
  81.3643265 158.8485870  16.0885696  81.9580078 159.9753876  14.2960386
  82.2200089 160.8458557  14.8791637  82.1859741 159.9740601  12.9162006
  84.7621613 164.2420502  11.7922583  84.0131149 165.1344910  11.3457527
  85.8972244 164.4869537  12.4673338  86.3414078 163.6003113  12.6587763
  86.4956512 165.6818848  13.0729876  86.0307922 166.5793152  12.6647654
  86.2718964 165.6148071  14.5331221  86.6384125 164.6643982  14.9210787
  86.7369385 166.4385529  15.0746727  84.7644653 165.7712250  14.8562136
  84.1389465 166.9840851  14.4772739  84.6433334 167.8480225  14.0703306
  82.7935333 167.1567688  14.7504139  82.3448792 168.1300507  14.6167955
  81.9961319 166.1653595  15.2690659  80.9487534 166.3184357  15.4834547
  82.5612411 164.9055176  15.5015745  81.9216995 164.1353912  15.9068899
  83.9479294 164.7140961  15.3006392  84.3143234 163.7350006  15.5717487
  87.9912338 165.7398682  12.7195711  88.8641815 165.3120728  13.4979019
  88.3657455 166.2196045  11.5413399  87.4521942 166.7687683  10.5165949
  86.9925385 167.7201996  10.7841635  86.6748276 166.0372925  10.2958107
  88.3112106 166.9846649   9.2877007  87.9024658 167.7568054   8.6359024
  88.4095230 166.0402222   8.7524834  89.7135544 167.5027618   9.8610191
  89.7528381 168.5674438  10.0912666  90.5161438 167.2182007   9.1805916
  89.7848740 166.5813446  11.1525068  90.2981949 165.6466827  10.9266510
  90.5774612 167.1756744  12.2823257  90.2694473 168.3016815  12.7588005
  91.8044205 166.6457520  12.4925308  91.9744263 165.7899628  11.9837933
  92.7687836 167.1113281  13.4690285  93.7706985 166.8549194  13.1247683
  92.6799316 168.1969910  13.5084734  92.6465225 166.5197144  14.8412895
  93.3435516 166.9268799  15.8000994  91.6882935 165.6481781  15.0397100
  91.1009979 165.2847290  14.3027687  91.4600372 164.7953186  16.2043858
  92.1558838 165.0521240  17.0031013  90.1066437 165.1408844  16.8733559
  89.3049393 164.9126892  16.1710033  89.9064789 164.5647583  17.7767448
  89.9900055 166.5702057  17.3494110  90.2776337 166.8445587  18.7255878
  90.5018005 166.0630646  19.4365139  90.1397018 168.1552734  19.1688957
  90.3836136 168.4415131  20.1813087  89.7630463 169.2108154  18.3000507
  89.8023453 170.5528259  18.7587719  90.1994095 170.6682281  19.6251545
  89.4373550 168.8577576  16.9782295  88.9248276 169.5639343  16.3418064
  89.5877686 167.5633240  16.4875317  89.1663666 167.3180695  15.5238552
  91.5914230 163.3261108  15.9424381  91.1559906 162.9139099  14.8903151
  92.1066589 162.5406647  16.8743382  92.5135345 162.9320221  17.7118301
  92.0226059 161.0660706  16.8403015  91.8154755 160.6561890  15.8517666
  93.4248276 160.4555511  17.2457790  93.6431732 160.8288422  18.2463188
  93.1955872 159.3899689  17.2360458  94.1893158 160.7572632  16.5297966
  90.8876724 160.6245728  17.7300968  90.7200623 161.1811066  18.8185711
  90.0382080 159.7350311  17.1996593  90.1841354 159.4139862  16.2532291
  89.0074387 159.0484467  18.0367107  88.6299820 159.7812958  18.7498493
  87.7630310 158.7086792  17.1999073  87.0272064 158.2638245  17.8698082
  87.3230743 159.6092682  16.7715473  87.9808807 157.8118439  16.0346832
  88.0861893 158.1812439  14.7457333  88.0878754 159.2263641  14.4734964
  88.3937988 157.0626068  13.9993448  88.5882874 157.1157379  13.0096712
  88.4733505 155.8806000  14.6829681  88.7182922 154.5558472  14.3341093
  88.9604340 154.2047882  13.3418751  88.5121307 153.6210175  15.3741407
  88.6958008 152.6003571  15.0725994  88.1639938 154.0011749  16.6985607
  88.0581512 153.2983704  17.5117435  88.0401077 155.3813629  17.0371113
  87.9104385 155.6471863  18.0758247  88.1773071 156.3697357  16.0402584
  89.5899124 157.8750000  18.8564701  90.5256042 157.1945496  18.4512653
  88.9637833 157.6784515  20.0232372  88.2892380 158.3463745  20.3681545
  89.2683868 156.5238647  20.8199348  89.4604187 155.7024841  20.1296043
  90.5920944 156.7178955  21.6237755  91.4397354 156.7777863  20.9411106
  90.6472626 157.9924927  22.4845638  89.9933929 157.8971863  23.3514462
  91.6887207 158.1027985  22.7867146  90.3354721 158.8902130  21.9507217
  90.8966904 155.6450500  22.4161034  91.6958694 155.8816986  22.8924599
  88.0289536 156.1606140  21.6369572  87.2925797 157.0140381  22.1643353
  87.7257614 154.8371277  21.5629158  88.5186615 154.2370605  21.3859348
  86.4422226 154.3241272  21.9901447  85.7310333 154.8066101  21.3196793
  86.3772125 152.7709351  21.7112503  87.1487198 152.2468872  22.2753868
  84.9997559 152.2297821  22.1078548  84.1198349 152.6251068  21.6003723
  84.9439468 151.1660614  21.8765869  84.9322205 152.3804169  23.1852798
  86.6622467 152.3735199  20.2198715  86.2211151 151.3991852  20.0096760
  86.2362671 153.1080475  19.5364094  88.1801758 152.1936035  19.9845428
  88.4598999 151.3762360  20.6491985  88.3142548 151.6558533  19.0459557
  88.8363342 153.0628815  19.9405499  86.1540146 154.7389526  23.4500618
  87.0252838 154.6638947  24.3505001  84.8212662 154.9594574  23.6814442
  84.1746597 155.0344849  22.9091949  84.1892929 155.1145325  25.0517769
  85.0485535 155.0718079  25.7210674  83.5827179 156.5166931  25.1769199
  82.8333359 156.7438812  24.4186916  83.1016541 156.4625854  26.1535206
  84.3877792 157.2513428  25.1933155  83.2455750 153.9796600  25.3833447
  82.4473267 153.5498657  24.5842800  83.2746887 153.4687805  26.6035557
  83.9478531 153.8660126  27.2432079  82.2508392 152.6045990  27.2642498
  81.4522400 152.5564270  26.5239620  82.9405518 151.2231750  27.4061871
  83.8838501 151.3920441  27.9255791  82.2753677 150.6770935  28.0750904
  83.2741013 150.4583130  26.0722504  82.4399872 150.5704803  25.3795948
  84.1086121 150.9660645  25.5886440  83.8167038 149.0015717  26.1404552
  84.8926773 148.7637787  26.6268253  83.0446396 147.9893646  25.6978512
  83.4213409 147.0569916  25.6036129  82.1088867 148.1440582  25.3506603
  81.7159805 153.1870728  28.5183887  82.4093704 153.8007507  29.3422146
  80.4457703 152.8112030  28.9043045  79.9162674 152.2979584  28.2141609
  79.8054504 153.0876007  30.2342377  79.7095108 154.1398926  30.5017891
  78.3450775 152.7059631  30.0362015  77.9082489 153.3260498  29.2533970
  78.3233566 151.6436615  29.7930584  77.4463272 153.0489044  31.6459904
  76.2406235 152.5110016  31.4414253  80.4338226 152.3329468  31.3681355
  80.6659698 151.1286621  31.2354069  80.7040787 152.9624329  32.5408745
  80.3460007 153.9067841  32.5490532  81.5764236 152.4661255  33.6741066
  82.4540863 151.9584045  33.2740593  82.0513840 153.6097107  34.5193481
  82.5224075 154.3733978  33.9004631  81.2083740 154.0671082  35.0372543
  83.1227875 153.2025146  35.5312500  82.6221619 152.6078796  36.2953720
  83.8705139 152.5236359  35.1212120  83.6808777 154.4763031  36.1661072
  82.8982544 155.1019287  36.5952797  84.3631897 154.2248840  36.9781036
  84.4640045 155.2164612  35.1386337  84.5769272 154.7337494  34.2586670
  85.2802887 156.2105560  35.2925186  85.3603363 156.9996643  36.3498383
  84.5942841 156.8948975  36.9996796  86.0559540 157.7225800  36.4664497
  86.2256393 156.4917145  34.4414787  86.3761520 155.9374390  33.6106834
  86.8442459 157.2769775  34.5856972  80.8610535 151.3215790  34.4566917
  81.5195389 150.4316864  34.9230804  79.5012207 151.3510284  34.4863014
  79.0751724 152.2238464  34.2092209  78.6932449 150.3049774  35.2192345
  79.2957153 149.9801483  36.0675316  77.3978806 150.9083099  35.7940178
  76.9229889 151.4660645  34.9868698  76.3674164 149.8875885  36.2460937
  76.7166214 149.1937103  37.0107460  75.4901199 150.4395905  36.5833511
  76.0041122 149.2511902  35.4391823  77.7569656 152.0068359  36.8516579
  78.3857346 152.7932587  36.4341812  76.8386383 152.5061951  37.1605530
  78.3567429 151.5252533  38.1118698  79.4446793 151.4929352  38.0531616
  78.1300583 152.2067871  38.9317589  78.0835419 150.5102539  38.4003754
  78.4528656 149.0727081  34.3641472  78.3469543 147.9696960  34.9008446
  78.3997574 149.1950836  33.0281792  78.5761185 150.0762634  32.5671768
  77.8439713 148.1031342  32.2251015  77.7346497 147.1517181  32.7456322
  76.3909454 148.5021210  31.8676090  75.9348831 147.5850525  31.4946556
  75.8480530 148.8276825  32.7549477  76.2980423 149.8293304  30.6200752
  75.0098495 150.1143951  30.8302670  78.5805740 147.7647858  30.9637337
  78.1766968 146.8097382  30.3280735  79.6060791 148.4994812  30.5363407
  79.9384308 149.2486115  31.1266365  80.4540176 148.1811371  29.4166889
  81.4278259 148.6413727  29.5839710  80.5902252 147.1056366  29.3033581
  79.8814545 148.6386566  28.0766907  80.5479279 148.4363708  27.0704861
  78.7154846 149.3000031  27.9491901  78.1584930 149.4157867  28.7837276
  77.9965591 149.5766754  26.6712074  77.9025269 148.6994019  26.0311546
  76.5650101 150.1259613  26.9303474  76.1987915 149.3773346  27.6328773
  76.5975571 151.1322021  27.3481083  75.6403656 150.0547333  25.7174282
  75.5044479 149.0222168  25.0761566  74.9416428 151.1138306  25.4813709
  74.3249969 151.0968781  24.6816463  74.9707718 151.9754639  26.0075359
  78.7579041 150.5929871  25.8675938  79.3148499 151.4874115  26.4441776
  78.8746567 150.4088898  24.5319843  78.6650238 149.5100250  24.1218681
  79.4776459 151.3619843  23.5911293  80.5233154 151.6355438  23.7319832
  79.4085693 150.8660736  22.1256237  80.0251541 149.9722595  22.0306511
  78.4255829 150.5531616  21.7735901  79.8867111 151.8431702  21.0895290
  79.3842392 152.0905457  19.8037586  80.2180176 152.9806213  19.2869701
  80.0540161 153.5243378  18.3683472  81.2461243 153.2505951  20.1348343
  81.9130173 153.9963379  19.9962025  81.0764542 152.5415497  21.2945805
  81.7835083 152.5819244  22.1099606  78.7097931 152.7098236  23.6995831
  77.4905548 152.7435608  23.4989033  79.3834534 153.7802429  24.0199509
  80.3407440 153.6211243  24.2999210  78.7462311 155.1158600  24.2441711
  77.6857452 155.0262909  24.0086784  78.9713516 155.6475372  25.6464310
  80.0329895 155.6203003  25.8919773  78.7067108 156.7015076  25.7312012
  78.2231293 154.8126068  26.6861458  78.6254883 153.8233948  26.9044571
  78.2376938 155.3277130  27.6466484  76.4115906 154.5436554  26.4334660
  76.0434952 156.2739105  26.5063190  76.3736267 156.7968750  25.6087532
  74.9650803 156.4233856  26.5590897  76.5561066 156.7799683  27.3243809
  79.2782440 156.1730652  23.1814594  78.9143753 157.2698669  23.2159672
  80.0870209 155.7660065  22.2265377  80.3163605 154.7891541  22.1113014
  80.7393723 156.6534729  21.2508621  80.5929642 156.1811371  20.2794876
  80.3899002 157.6858368  21.2653599  82.2772980 156.6993561  21.4958038
  82.9591141 155.6109161  21.5491962  82.7905121 157.9504089  21.4419823
  82.1481323 158.7173462  21.3032665  84.2484970 158.1379242  21.4230099
  84.7559662 157.3461914  21.9741325  84.8753662 157.9892883  20.0044231
  84.7425156 158.9127197  19.4407558  85.9477005 157.8524170  20.1439629
  84.4300232 156.9317169  19.0574474  85.0995331 155.7981720  18.8539696
  86.0156174 155.5538025  19.3711548  84.4341202 154.9133759  18.0769787
  84.7399750 153.9718323  17.8768940  83.1611481 155.3890686  17.8100700
  82.0931549 154.8199158  17.1155891  82.2496033 153.8195190  16.7399235
  80.8770676 155.5375519  17.0485020  80.0139847 155.1181335  16.5529385
  80.7990036 156.8043213  17.6876240  79.9029922 157.4072723  17.6916180
  81.9429550 157.3857269  18.2828426  81.9220276 158.4017792  18.6483479
  83.1571274 156.7245483  18.3488312  84.7132874 159.4107819  22.0463715
  84.0956650 160.4969482  21.9027596  85.7997513 159.2974243  22.7931786
  86.2884827 158.4138184  22.8153152  86.6388321 160.4239044  23.1798801
  85.9539032 161.2022400  23.5162544  87.5969620 160.1663361  24.3378296
  87.0325394 159.8865204  25.2273388  88.2882996 159.3955841  23.9971066
  88.4062958 161.3820496  24.8700523  88.9624939 161.8343048  24.0489540
  87.6484756 162.1009369  25.1814861  89.3726273 161.1160736  26.0677853
  88.7374954 160.7505493  26.8746891  90.1531219 160.4297943  25.7392521
  89.9896545 162.4958038  26.5209846  90.6851196 162.7991333  25.7384033
  89.2913666 163.3316803  26.5633831  90.7209167 162.2387238  27.8069630
  91.2162170 161.3621063  27.7274532  91.3973389 162.9616699  28.0067158
  90.0617828 162.2291260  28.5721779  87.4331665 160.8202209  21.9106979
  87.8703690 159.9925690  21.1213417  87.7407303 162.0998230  21.9169559
  87.3140106 162.7225647  22.5879192  88.4929581 162.7593536  20.9050217
  89.0277939 161.9886932  20.3499050  87.6143188 163.6829376  20.0411034
  86.9960251 164.3238068  20.6696625  88.3274841 164.2620239  19.4544621
  86.8645172 162.9483337  19.0208569  87.3868256 162.6874542  17.7039528
  88.3694534 163.0480194  17.4377842  86.4979553 162.1605682  16.7327919
  86.8086548 162.0749512  15.7019968  85.1857529 161.7674561  17.0810528
  84.5200882 161.1743469  16.4715500  84.7978058 161.7785339  18.3999043
  83.8688049 161.3190765  18.7036362  85.6015091 162.4273834  19.3795090
  85.2453690 162.5190887  20.3949680  89.6754227 163.5494385  21.5532360
  89.5136414 164.5998230  22.1496372  90.9005280 163.0794525  21.3074284
  90.8825302 162.2399597  20.7461662  92.2284317 163.6709290  21.6871452
  92.1732941 164.3161011  22.5639648  93.2681580 162.6064301  22.2110062
  94.3050308 162.9009705  22.0489750  93.1033020 162.2750244  23.7117958
  92.1573334 161.7537689  23.8585911  93.8405228 161.5250854  23.9985256
  93.0538940 163.2114258  24.2674828  93.1320114 161.4007568  21.5295315
  93.6055984 161.5976257  20.7180119  92.7574463 164.3814392  20.4121685
  92.9453278 163.7158508  19.3893204  93.1061249 165.6364136  20.5530167
  92.9071121 166.1631775  21.3914814  93.6721115 166.3988190  19.4029560
  93.0077133 166.3325348  18.5413933  93.6734543 167.8874664  19.7486839
  94.4138947 168.0506287  20.5317707  93.9121552 168.4302063  18.8340473
  92.6945496 168.2805634  20.0231323  95.0981445 165.9200439  18.9989452
  95.9319992 165.7458038  19.9056797  95.4084320 165.7032318  17.6897259
  94.7622757 165.8380127  16.9252567  96.8280563 165.3187561  17.2969685
  97.1669540 164.5691833  18.0120869  96.8852921 164.6795807  15.9391785
  97.9083023 164.3567352  15.7460079  96.0089951 163.4422760  15.8761845
  95.0082703 163.6811066  15.5161581  96.4176788 162.7873077  15.1067085
  96.0026855 162.9391479  16.8431015  96.4322205 165.4904175  14.8600988
  96.3360596 164.9350739  14.0829592  97.8511429 166.4572906  17.2790298
  99.0410080 166.2365875  17.4801769  97.3884888 167.7013702  17.1306190
  96.3922729 167.7223969  16.9656334  98.1921082 168.9444580  17.1263294
  99.2465210 168.6730652  17.0747166  97.7755432 169.7309418  15.9741087
  96.6948166 169.7116852  15.8335190  98.0401459 170.7633667  16.2025356
  98.4747696 169.2498932  14.6765213  99.5528488 169.3164062  14.8229094
  98.3435059 168.1733246  14.5675011  98.1166000 170.0814514  13.4120941
  97.8468704 171.0864716  13.7365704  98.8938141 169.9981384  12.6524200
  96.8731308 169.3122406  12.8133831  97.2009659 168.3458862  12.4302330
  96.1638107 169.2394257  13.6377974  96.2854462 170.2116699  11.7403708
  96.8219910 170.4897003  10.9310951  95.4485474 169.7495117  11.4146166
  95.8793030 171.0566101  12.1161890  98.0941620 169.6326599  18.4695110
  97.0161133 169.5999146  19.1311092  99.2302170 170.2801514  18.9055347
  99.9775696 170.0856018  18.2546005  99.4399490 170.8813171  20.2131386
  98.9964905 170.1119537  20.8452339 100.8925858 171.0668640  20.5333843
 100.9980087 171.2467194  21.6032619 101.4998779 170.1847687  20.3304024
 101.6112289 172.1483154  19.6747971 101.7357712 171.7258301  18.6777554
 100.9756699 173.0338135  19.6656265 102.9454117 172.4880981  20.3700562
 102.7824783 172.5610352  21.4453373 103.6731644 171.7070618  20.1499519
 103.5690918 173.8339844  20.0020218 102.9000778 174.5972290  20.3995190
 104.5248184 174.0064240  20.4969368 103.5898361 174.0496979  18.5547962
 102.6741562 174.2365875  18.1717720 104.2245789 174.8026581  18.3305836
 103.9686508 173.2294922  18.1032848  98.7943344 172.2848053  20.4205379
  98.8269577 172.7994080  21.5603218  98.2643509 172.9210358  19.3465443
  98.3096313 172.4751587  18.4414215  97.7638016 174.3419495  19.3496876
  98.0187912 174.6827850  20.3531380  98.4831085 175.1759338  18.2652740
  98.0221786 176.1605988  18.1874046  99.5293503 175.3197479  18.5350761
  98.5628510 174.6345978  16.8121834  98.2731628 173.4326477  16.6265354
  98.9597702 175.4069366  15.8942995  96.2592163 174.5056915  19.1479073
  95.6557770 175.5820618  19.2880630  95.5757751 173.4138641  18.7592354
  96.0415115 172.5306396  18.6071529  94.1286545 173.3322754  18.6190643
  93.8457413 174.0810699  17.8792286  93.6895981 171.9055023  18.1681118
  94.1939774 171.1591797  18.7818756  92.6034012 171.8433685  18.2346554
  94.1577377 171.8090363  16.6805401  93.7942963 172.6782837  16.1324444
  95.2451248 171.8436890  16.7476730  93.7091751 170.3281097  15.6934166
  92.0801697 170.8078156  15.0344734  92.0544739 171.8916779  15.1470356
  91.9172287 170.4709778  14.0107059  91.3475647 170.3623810  15.7075214
  93.4807281 173.5973969  19.9349213  93.9775620 173.1253662  20.9563866
  92.3756485 174.2949219  19.9125805  92.0657959 174.6362305  19.0139160
  91.4425583 174.5060730  21.0151825  91.7193527 173.8447418  21.8362255
  91.6093140 175.8974609  21.6593609  92.5910873 175.8841858  22.1326942
  91.6800766 176.6411285  20.8655949  90.5681915 176.0966339  22.6052647
  90.7110825 176.9873657  22.9335861  90.0151520 174.2144470  20.5189705
  89.6793976 174.8006439  19.4613495  89.1782074 173.4283752  21.2412872
  87.7680588 173.1377869  20.9279423  87.6427917 172.8492432  19.8843174
  87.1248322 173.9735413  21.2034340  87.4360352 171.9261627  21.7470074
  87.9090805 171.0332489  21.3382893  86.3870087 171.7140656  21.9535503
  88.2414169 172.2495575  23.0162239  88.3591690 171.3851471  23.6696968
  87.6945877 173.0195312  23.5604801  89.5143814 172.8190460  22.5142899
  89.9515762 173.5296326  23.2157402  90.6082458 171.7261963  22.4155045
  90.6357040 171.0444641  21.3618050  91.3903275 171.5161743  23.4508400
  91.3498535 172.1070099  24.2690010  92.4006958 170.4276886  23.4319344
  92.9360733 170.5574188  22.4913807  93.2895279 170.6772156  24.6744442
  93.8785324 171.5605316  24.4276180  92.7113113 170.9386902  25.5606689
  94.2721786 169.5779114  25.0349140  94.8974380 169.9544830  25.8444462
  93.7182312 168.7038422  25.3773460  95.1865692 169.1666565  23.8241138
  95.2655411 169.8952026  22.8123550  95.7594070 167.9595795  23.8480320
  96.4057617 167.7571564  23.0987949  95.8020630 167.4560089  24.7225056
  91.7880859 169.0253448  23.3529682  92.3784866 168.1044464  22.7592850
  90.6459427 168.8156281  24.0054016  90.1500168 169.6095123  24.3847198
  89.8793716 167.4807281  24.1757870  90.0865402 166.7886047  23.3596115
  90.2186584 166.8805542  25.5759506  89.5624924 166.0286102  25.7540665
  91.2307892 166.4795074  25.5226669  90.0868683 167.7855377  26.8118420
  90.5463943 168.7605133  26.6494961  89.0645294 167.8748016  27.1792049
  90.8073196 167.1040039  28.0086060  90.1984940 167.3775024  28.8703690
  91.0208206 166.0465088  27.8529663  92.1525269 167.7390900  28.3364639
  92.8525772 167.4944153  27.5376053  92.1336746 168.8254242  28.4237843
  92.7841721 167.2518463  29.5415573  92.9178467 166.2607117  29.6826286
  93.6994476 167.6694031  29.6311474  92.2697601 167.5783539  30.3470783
  88.3734131 167.7270355  24.0399208  87.8551254 168.7424316  24.4976101
  87.6375427 166.7840729  23.4095154  88.1258011 165.9440765  23.1336498
  86.1758041 166.6944580  23.6106186  85.8497620 167.0601044  24.5843296
  85.3896942 167.6115875  22.6164742  84.3836288 167.7635956  23.0073967
  85.8776932 168.5857544  22.6476250  85.3235855 167.1375275  21.1628704
  86.4321518 167.3885498  20.2717800  87.2906799 167.9573364  20.5970516
  86.4230804 166.8496094  18.9851570  87.1630859 166.9450378  18.2043285
  85.3487625 166.0149841  18.6312218  85.2901154 165.5561981  17.6552734
  84.2692261 165.8426361  19.4432373  83.3563995 165.3290100  19.1799393
  84.2102737 166.4333344  20.7071533  83.3110123 166.2945862  21.2889385
  85.7196732 165.2546082  23.5237274  86.5385590 164.3630219  23.3482170
  84.4269562 164.9900970  23.6291847  83.8181305 165.7477722  23.9037056
  83.7821960 163.6823273  23.4693279  84.4742584 162.9321747  23.0867043
  83.3196259 163.1600189  24.8670006  82.5312195 163.7989960  25.2647820
  82.8561783 162.1813202  24.7425861  84.3927078 163.0217896  25.9593277
  85.0166321 163.9994507  26.5790825  84.8747177 165.0494232  26.3697701
  85.8879700 163.5421600  27.4987679  86.6145248 164.0662842  27.9651508
  85.8516388 162.1518555  27.5615864  86.4051208 161.1710510  28.4286346
  87.0911484 161.5029602  29.1938858  86.1339264 159.7749023  28.2726250
  86.5450363 158.9859772  28.8849869  85.1922836 159.4230957  27.2716675
  84.8416672 158.4104004  27.1377716  84.6509171 160.4338684  26.4121342
  83.9503326 160.0893860  25.6658707  84.9646988 161.7841644  26.5013428
  82.5746307 163.8056335  22.4979897  81.7827682 164.6747742  22.7146187
  82.5996170 162.9338989  21.4788952  83.3956223 162.3124695  21.4962101
  81.4424896 162.6226349  20.6289902  80.7141037 163.4328918  20.5968437
  81.8510590 162.4402771  19.6350479  80.7732086 161.2979279  21.1307812
  81.1035233 160.1570129  20.8650494  79.8055115 161.5171661  21.9765720
  79.5663834 162.4891663  22.1112442  78.8803406 160.5538635  22.6022320
  79.5144577 159.6841888  22.7744255  78.5390244 161.1205750  23.9905338
  77.8377609 161.9283905  23.7813454  78.0006104 160.3673859  24.5657940
  79.6997452 161.5636139  24.9030685  80.3513870 162.1988525  24.3031216
  79.1690521 162.2717133  26.1507034  78.5046082 161.6302643  26.7296410
  79.9840317 162.6056976  26.7928562  78.6073608 163.1497192  25.8317852
  80.5233917 160.4158630  25.5350113  81.0820007 159.8537140  24.7866497
  81.1888885 160.8078003  26.3041573  79.8910217 159.6461487  25.9774551
  77.6468277 160.2612457  21.7624207  77.0380936 161.2166443  21.2918625
  77.3177948 158.9857178  21.6460514  77.8159866 158.2414093  22.1128693
  76.2152405 158.4975891  20.7934475  76.3392563 159.0717010  19.8752308
  76.4364243 157.0782166  20.3185081  75.4587555 156.7484131  19.9670887
  77.4370346 156.9418793  19.1177845  78.3452911 157.5103607  19.3178139
  77.6931839 155.9174194  18.8476734  76.9321594 157.4620361  18.3037605
  76.9203568 156.1136475  21.2550106  76.7801895 155.2603607  20.8380737
  74.8308868 158.6949921  21.3724308  74.4250107 158.1109619  22.3842583
  74.0837250 159.6052856  20.7742290  74.5546646 160.0248108  19.9853573
  72.7872162 160.1533813  21.3744602  72.9790955 160.3748474  22.4243355
  72.3314590 161.5482025  20.8188534  71.5573654 161.9885101  21.4473438
  73.1579361 162.2583313  20.7914124  71.7944031 161.4116211  19.4351311
  72.4454269 161.9617462  18.7557030  71.7979660 160.3837128  19.0725231
  70.4023132 162.0204010  19.2410946  70.3989410 162.9732208  19.7704487
  70.2235336 162.1863556  18.1787338  69.3461990 161.1190338  19.7560062
  69.1630096 161.0697784  20.7480316  68.6138687 160.2966461  18.9618855
  68.7838669 160.0032654  17.7141552  69.4754257 160.4711304  17.1458683
  68.0517731 159.4754791  17.2607498  67.5964890 159.7590332  19.5112591
  67.2503815 160.0067902  20.4271889  66.9836044 159.3631897  18.8128414
  71.6199799 159.1367188  21.3543987  70.7157211 159.1882935  22.1826363
  71.6604843 158.0986633  20.4247284  72.3598175 158.1334686  19.6968384
  70.7925110 156.9180450  20.4811783  69.7340851 157.1715546  20.5409088
  71.0555878 156.1044312  19.2140923  70.6746597 155.0832062  19.2052135
  70.5236588 156.5906372  18.3963184  72.4689331 156.0618439  18.9757328
  72.5654984 155.6036987  18.1376476  71.1158600 156.0175018  21.6709881
  70.2132568 155.2992706  22.1091671  72.3181839 156.0547333  22.2937336
  72.9183273 156.7322083  21.8454609  72.7048645 155.2157440  23.4967079
  71.9996033 154.3927307  23.6122189  74.0465546 154.5047455  23.1048946
  74.8055038 155.2041016  22.7542038  74.3979797 153.9646759  23.9840584
  73.8944855 153.8162537  22.2736511  72.6350021 156.0806274  24.7927246
  72.8167572 155.5913086  25.9055519  72.3987732 157.3947296  24.6682014
  72.2371521 157.7637329  23.7420177  72.0787582 158.2482605  25.8116226
  72.5468979 157.7794952  26.6771927  72.6098175 159.7077179  25.6261902
  72.3011780 160.0559692  24.6405106  72.1157227 160.3486023  26.3564224
  74.1107941 159.9571228  25.7007046  74.6194534 159.1727142  25.1402950
  74.5036163 161.2946625  25.0419617  74.1332321 162.1596527  25.5921516
  75.5883102 161.3918610  24.9962254  74.1992798 161.2571716  23.9959774
  74.6118011 160.0183411  27.1510201  74.6712036 158.9966431  27.5261650
  75.6342468 160.3818054  27.2539444  73.8790436 160.5266724  27.7777309
  70.5918579 158.2709808  26.2042656  69.7110596 157.7211456  25.5144844
  70.2844467 158.7066956  27.4706554  71.0763550 158.8597717  28.0785580
  68.9019852 158.8898315  28.0291233  68.2554932 158.9682922  27.1550579
  68.5201569 157.6395721  28.8703194  68.5738068 156.7435608  28.2519455
  69.2411194 157.5430756  29.6821098  67.1248627 157.7808533  29.4447575
  67.0540848 158.7123108  30.0064507  66.0586319 157.6663208  28.3514423
  66.1912003 156.6891937  27.8869534  65.0419922 157.6937714  28.7435989
  66.1800537 158.4334106  27.5866299  66.8522186 156.6024017  30.3879166
  67.6820297 156.5953979  31.0946484  65.9723053 156.8222961  30.9924870
  66.8213882 155.7031403  29.7727032  68.8677750 160.2251434  28.8009644
  69.6609573 160.4278717  29.7012501  67.8749466 161.1124268  28.5046749
  67.3193130 161.2594452  27.2188702  66.2708817 160.9618073  27.2362728
  67.8125000 160.6809235  26.4377327  67.3828049 162.7884369  26.9347935
  66.5916748 163.1290131  26.2667942  68.3981934 162.9869385  26.5917358
  67.0755157 163.3641968  28.3322029  66.0044785 163.2429657  28.4943638
  67.4778519 164.3721924  28.4330273  67.7607803 162.4196472  29.2578602
  68.7232819 162.8459473  29.5406189  67.0420151 162.4070282  30.6435623
  66.2760773 163.2803192  30.9448662  67.3935699 161.5115051  31.5506611
  68.1633835 160.9148865  31.2832012  66.8732071 161.3323364  32.8524742
  65.7973251 161.5035400  32.8166161  67.2551804 159.9361725  33.3476562
  66.8843460 159.1841736  32.6511726  68.3352585 159.8128357  33.4271126
  66.5782089 159.5889893  34.7302475  66.9134521 160.3780212  35.4034042
  65.4952698 159.7127075  34.7370110  67.0970535 158.3224487  35.3245773
  68.1030350 158.0505829  35.0049133  67.1323395 158.5312500  36.3938103
  66.1788406 157.2695312  34.8641472  66.0052795 157.2765656  33.8691978
  65.5606995 156.4874878  35.5929985  65.6131592 156.5487976  36.8989449
  65.9833984 157.3772125  37.3425293  64.9674301 155.9666595  37.4129944
  64.8670349 155.5140533  35.0294876  64.8886795 155.4332733  34.0229568
  64.1855469 155.0096588  35.5783577  67.4730377 162.4019623  33.7852707
  66.7094574 162.9958038  34.5416069  68.7227707 162.6272278  33.7538795
  84.6585922 154.6308441  14.7146578  85.1377258 153.5139465  13.9874496
  83.7513504 153.5714417  14.4067011  85.1501160 152.2015991  13.2488747
  82.9371185 152.5975800  14.0946207  83.7118073 151.8436127  13.5206308
  84.7727356 155.9961700  12.1922998  84.7653961 156.6859436  13.2340145
  84.4945602 155.9906464  14.4999733  84.9771729 158.1171265  13.1842976
  84.6293182 156.9040375  15.4091911  85.0015259 158.9884186  14.2882214
  84.8180618 158.0810852  15.4517336  85.0774078 160.2166748  14.1955929
  84.9078293 158.5591278  12.2752304  85.9929657 151.8038940  12.2496147
  86.2415466 150.9472809  11.2258244  87.2934723 149.9578705  11.4285650
  86.8991623 152.0931702  10.9110556  88.6188736 150.1378937  11.0328865
  87.8961258 152.7302856  10.5918350  89.7647247 150.8923035  10.5774622
  88.7833710 151.9291687  10.5824871  90.0409317 150.7253876   9.6103907
  86.9934845 148.6892548  12.1009970  87.8704605 147.8512268  12.2238789
  85.7500610 148.2536469  12.5869207  85.1123810 148.9259491  12.2917175
