LIG
    37
  83.2330000 150.3560000  17.5870000  83.1150000 149.3590000  18.5420000
  82.0500000 151.0140000  17.2650000  81.9450000 149.0100000  19.1490000
  80.8640000 150.6790000  17.8640000  80.7980000 149.6630000  18.8220000
  81.9150000 147.9440000  20.1400000  82.9210000 147.1550000  20.2730000
  80.8330000 147.6830000  21.0110000  80.0390000 148.2610000  20.9500000
  80.8240000 146.6060000  21.9960000  80.9770000 147.2110000  23.3250000
  79.5170000 145.8770000  21.8270000  82.0330000 147.0650000  23.9780000
  79.8820000 147.9690000  23.8430000  78.3670000 146.4850000  22.5490000
  78.6310000 147.7840000  23.1860000  77.8080000 148.7430000  23.1790000
  79.9850000 148.5810000  24.6070000  84.5290000 150.6810000  16.9700000
  85.6630000 151.1920000  14.6450000  85.6150000 149.9320000  13.8120000
  86.9690000 151.0370000  15.4450000  84.4270000 151.3660000  15.7310000
  85.9010000 152.5830000  13.6100000  83.1960000 151.9430000  15.4360000
  85.3350000 153.8780000  14.1750000  83.0180000 152.6720000  14.1580000
  83.8790000 153.8480000  14.1040000  83.2760000 155.1100000  13.9650000
  82.0140000 155.1900000  13.8990000  83.9940000 156.3760000  13.8850000
  84.4940000 156.8160000  12.6950000  84.1710000 157.1380000  15.0150000
  85.1510000 157.9690000  12.6040000  84.8470000 158.3390000  14.9660000
  85.3370000 158.7490000  13.7450000
