%VERSION  VERSION_STAMP = V0001.000  DATE = 09/07/26  08:42:26                  
%FLAG TITLE                                                                     
%FORMAT(20a4)                                                                   
LIG                                                                             
%FLAG POINTERS                                                                  
%FORMAT(10I8)                                                                   
      40       9       2      41       4      57      13      79       0       0
     175       1      41      57      79      18      38       9      11       0
       0       0       0       0       0       0       0       0      40       0
       0
%FLAG ATOM_NAME                                                                 
%FORMAT(20a4)                                                                   
S1  O1  O2  N1  C1  C2  C3  C4  N2  C5  O3  C6  C7  C8  C9  C10 C11 C12 C13 O4  
N3  H1  C14 C15 C16 O5  N4  C17 C18 O6  H2  C19 C20 O7  C21 C22 C23 C24 C25 C26 
%FLAG CHARGE                                                                    
%FORMAT(5E16.8)                                                                 
 -5.19627107E-01 -8.48521400E+00 -8.48521400E+00  1.60687886E+00  7.89568615E+00
  2.62634365E+00  2.76849582E+00  9.27241735E-01 -2.40271959E+00  5.75611479E+00
 -4.73258642E+00  1.84673899E+00  2.50088312E+00 -1.29201574E+00 -6.26300451E-01
  2.40944362E+00 -2.82482095E-01 -7.13567046E-01  4.81628145E+00 -4.92131478E+00
 -4.89689690E+00  2.85886020E+00  2.70533732E+00  4.97807725E+00 -6.44978309E-01
 -4.90551605E+00 -4.35305236E+00 -4.15468440E-03  5.36885447E+00 -4.76872124E+00
  2.91587778E+00  4.69789116E-01  1.28782461E+00 -4.40930460E+00  3.55923430E+00
 -3.06571975E-01 -3.06571975E-01 -1.10445360E-01 -1.10445360E-01 -2.02631976E-02
%FLAG ATOMIC_NUMBER                                                             
%FORMAT(10I8)                                                                   
      16       8       8       7       6       6       6       6       7       6
       8       6       6       6       6       6       6       6       6       8
       7       1       6       6       6       8       7       6       6       8
       1       6       6       8       6       6       6       6       6       6
%FLAG MASS                                                                      
%FORMAT(5E16.8)                                                                 
  3.20600000E+01  1.60000000E+01  1.60000000E+01  1.40100000E+01  1.20100000E+01
  1.20100000E+01  1.20100000E+01  1.20100000E+01  1.40100000E+01  1.20100000E+01
  1.60000000E+01  1.20100000E+01  1.20100000E+01  1.20100000E+01  1.20100000E+01
  1.20100000E+01  1.20100000E+01  1.20100000E+01  1.20100000E+01  1.60000000E+01
  1.40100000E+01  1.00800000E+00  1.20100000E+01  1.20100000E+01  1.20100000E+01
  1.60000000E+01  1.40100000E+01  1.20100000E+01  1.20100000E+01  1.60000000E+01
  1.00800000E+00  1.20100000E+01  1.20100000E+01  1.60000000E+01  1.20100000E+01
  1.20100000E+01  1.20100000E+01  1.20100000E+01  1.20100000E+01  1.20100000E+01
%FLAG ATOM_TYPE_INDEX                                                           
%FORMAT(10I8)                                                                   
       1       2       2       3       4       4       4       4       5       6
       2       4       6       4       4       6       4       4       6       2
       7       8       6       6       4       2       7       4       6       2
       8       4       4       9       6       4       4       4       4       4
%FLAG NUMBER_EXCLUDED_ATOMS                                                     
%FORMAT(10I8)                                                                   
      10       6       5       9       6       6       5       5       4       4
       2       5       6       7       3       7       2       3       6       3
       7       3       7       7       5       3       4       3       2       1
       1       3       4       5       5       4       3       2       1       1
%FLAG NONBONDED_PARM_INDEX                                                      
%FORMAT(10I8)                                                                   
       1       2       4       7      11      16      22      29      37       2
       3       5       8      12      17      23      30      38       4       5
       6       9      13      18      24      31      39       7       8       9
      10      14      19      25      32      40      11      12      13      14
      15      20      26      33      41      16      17      18      19      20
      21      27      34      42      22      23      24      25      26      27
      28      35      43      29      30      31      32      33      34      35
      36      44      37      38      39      40      41      42      43      44
      45
%FLAG RESIDUE_LABEL                                                             
%FORMAT(20a4)                                                                   
LIG 
%FLAG RESIDUE_POINTER                                                           
%FORMAT(10I8)                                                                   
       1
%FLAG BOND_FORCE_CONSTANT                                                       
%FORMAT(5E16.8)                                                                 
  6.14490000E+02  2.74380000E+02  2.38970000E+02  3.97760000E+02  6.99130000E+02
  4.28900000E+02  3.17460000E+02  5.90600000E+02  2.50880000E+02  3.36100000E+02
  2.67760000E+02  4.27600000E+02  4.03200000E+02  4.00100000E+02  3.08440000E+02
  4.66850000E+02  4.15540000E+02  3.39490000E+02
%FLAG BOND_EQUIL_VALUE                                                          
%FORMAT(5E16.8)                                                                 
  1.46570000E+00  1.72520000E+00  1.74220000E+00  1.33100000E+00  1.20950000E+00
  1.33000000E+00  1.39670000E+00  1.21900000E+00  1.50560000E+00  1.41440000E+00
  1.48480000E+00  1.37900000E+00  1.01300000E+00  1.39900000E+00  1.44060000E+00
  1.31850000E+00  1.31410000E+00  1.37210000E+00
%FLAG ANGLE_FORCE_CONSTANT                                                      
%FORMAT(5E16.8)                                                                 
  6.30880000E+01  5.43000000E+01  1.58500000E+02  1.32020000E+02  1.23190000E+02
  6.68580000E+01  7.67000000E+01  5.57930000E+01  7.80000000E+01  1.14280000E+02
  7.57000000E+01  6.96000000E+01  8.66800000E+01  6.87450000E+01  5.79000000E+01
  7.58200000E+01  6.62000000E+01  5.82000000E+01  5.67000000E+01  6.44000000E+01
  7.48600000E+01  7.79900000E+01  6.79000000E+01  4.83000000E+01  6.45000000E+01
  7.42000000E+01  6.87000000E+01  7.18850000E+01  4.76000000E+01  8.00800000E+01
  6.79000000E+01  5.73200000E+01  7.01000000E+01  6.37000000E+01  6.87450000E+01
  7.08100000E+01  6.53160000E+01  6.91610000E+01
%FLAG ANGLE_EQUIL_VALUE                                                         
%FORMAT(5E16.8)                                                                 
  2.11080210E+00  3.06427588E+00  2.09806119E+00  1.87256456E+00  1.88216387E+00
  1.73162916E+00  3.14159400E+00  3.14159400E+00  3.09237569E+00  1.09659084E+00
  1.79227938E+00  2.04273423E+00  2.13925098E+00  1.99735565E+00  3.14159400E+00
  2.22843734E+00  2.03365852E+00  3.12501337E+00  3.14159400E+00  2.06681979E+00
  2.02667720E+00  2.15094469E+00  2.01096923E+00  2.05163542E+00  2.13192060E+00
  2.14762857E+00  2.15844961E+00  2.00712950E+00  2.05774407E+00  2.13122246E+00
  2.01096923E+00  3.14159400E+00  2.12267035E+00  2.21796536E+00  1.99735565E+00
  3.09150303E+00  2.04997735E+00  2.03967990E+00
%FLAG DIHEDRAL_FORCE_CONSTANT                                                   
%FORMAT(5E16.8)                                                                 
  0.00000000E+00  3.13333333E+00  2.50000000E+00  2.17500000E+00  6.50000000E-01
  2.00000000E+00  1.05000000E+00  1.10000000E+00  1.05000000E+01
%FLAG DIHEDRAL_PERIODICITY                                                      
%FORMAT(5E16.8)                                                                 
  2.00000000E+00  2.00000000E+00  2.00000000E+00  2.00000000E+00  2.00000000E+00
  1.00000000E+00  2.00000000E+00  2.00000000E+00  2.00000000E+00
%FLAG DIHEDRAL_PHASE                                                            
%FORMAT(5E16.8)                                                                 
  3.14159400E+00  0.00000000E+00  3.14159400E+00  3.14159400E+00  3.14159400E+00
  0.00000000E+00  3.14159400E+00  3.14159400E+00  3.14159400E+00
%FLAG SCEE_SCALE_FACTOR                                                         
%FORMAT(5E16.8)                                                                 
  1.20000000E+00  1.20000000E+00  1.20000000E+00  1.20000000E+00  1.20000000E+00
  1.20000000E+00  1.20000000E+00  0.00000000E+00  0.00000000E+00
%FLAG SCNB_SCALE_FACTOR                                                         
%FORMAT(5E16.8)                                                                 
  2.00000000E+00  2.00000000E+00  2.00000000E+00  2.00000000E+00  2.00000000E+00
  2.00000000E+00  2.00000000E+00  0.00000000E+00  0.00000000E+00
%FLAG SOLTY                                                                     
%FORMAT(5E16.8)                                                                 
  0.00000000E+00  0.00000000E+00  0.00000000E+00  0.00000000E+00  0.00000000E+00
  0.00000000E+00  0.00000000E+00  0.00000000E+00  0.00000000E+00  0.00000000E+00
  0.00000000E+00
%FLAG LENNARD_JONES_ACOEF                                                       
%FORMAT(5E16.8)                                                                 
  4.90327872E+06  1.53564503E+06  3.76435470E+05  1.98533726E+06  5.29641935E+05
  7.23647490E+05  3.25035981E+06  8.92208123E+05  1.20705609E+06  2.00671338E+06
  2.02772676E+06  5.15491878E+05  7.16178718E+05  1.20132739E+06  7.02078680E+05
  1.96483601E+06  5.17507491E+05  7.10207765E+05  1.18640578E+06  7.01106848E+05
  6.96551276E+05  2.31672966E+06  5.99897901E+05  8.28144322E+05  1.38616450E+06
  8.14793385E+05  8.11497350E+05  9.44293233E+05  8.72013948E+03  9.87857350E+02
  1.82809059E+03  3.37137075E+03  1.52360475E+03  1.71458823E+03  1.88178855E+03
  1.34728399E-01  1.29636058E+06  3.27367585E+05  4.55871651E+05  7.65280989E+05
  4.46307018E+05  4.46121722E+05  5.18220260E+05  9.46795083E+02  2.83662575E+05
%FLAG LENNARD_JONES_BCOEF                                                       
%FORMAT(5E16.8)                                                                 
  1.09738109E+03  7.63007119E+02  4.69350655E+02  7.59208492E+02  4.87196412E+02
  4.98353106E+02  1.13447787E+03  7.38469198E+02  7.51664026E+02  1.13185062E+03
  9.01618117E+02  5.64804067E+02  5.82583725E+02  8.81180204E+02  6.77820248E+02
  7.82392141E+02  4.98871431E+02  5.11427129E+02  7.71958727E+02  5.97113873E+02
  5.24668528E+02  9.73020518E+02  6.15165511E+02  6.32509514E+02  9.55669738E+02
  7.37244936E+02  6.48597119E+02  8.01323529E+02  2.93990844E+01  1.22938581E+01
  1.46352678E+01  2.32108730E+01  1.57004457E+01  1.46824710E+01  1.76168249E+01
  7.34107347E-02  5.88395242E+02  3.67361018E+02  3.79365004E+02  5.74027680E+02
  4.41089616E+02  3.88758656E+02  4.79881022E+02  1.01016461E+01  2.87011518E+02
%FLAG BONDS_INC_HYDROGEN                                                        
%FORMAT(10I8)                                                                   
      60      63      13      78      90      13
%FLAG BONDS_WITHOUT_HYDROGEN                                                    
%FORMAT(10I8)                                                                   
       0       3       1       0       6       1       0       9       2       0
      12       3       9      15       4       9      33       4      12      18
       5      15      21       5      18      24       6      21      24       6
      24      27       7      27      30       8      27      93       9      33
      36      10      36      39      10      36      42      10      39      45
      10      42      48       5      45      54      11      45      51      10
      48      51       5      54      57       8      54      60      12      60
      66      14      66      69      15      66      72      16      69      75
       8      69      78      12      72      81       5      78      84      12
      81      84       9      84      87       8      93      96       5      96
      99      17      99     102      18     102     105      10     102     108
      10     105     111       5     108     114       5     111     117       5
     114     117       5
%FLAG ANGLES_INC_HYDROGEN                                                       
%FORMAT(10I8)                                                                   
      54      60      63      24      63      60      66      29      69      78
      90      24      84      78      90      24
%FLAG ANGLES_WITHOUT_HYDROGEN                                                   
%FORMAT(10I8)                                                                   
       0       9      15       1       0       9      33       1       0      12
      18       2       3       0       6       3       3       0       9       4
       3       0      12       5       6       0       9       4       6       0
      12       5       9       0      12       6       9      15      21       7
       9      33      36       8      12      18      24       9      15       9
      33      10      15      21      24       9      18      24      21      11
      18      24      27      12      21      24      27      12      24      27
      30      13      24      27      93      14      27      93      96      15
      30      27      93      16      33      36      39      17      33      36
      42      17      36      39      45      18      36      42      48      19
      39      36      42      17      39      45      54      20      39      45
      51      17      42      48      51      21      45      54      57      22
      45      54      60      23      45      51      48      19      51      45
      54      20      54      60      66      25      57      54      60      26
      60      66      69      27      60      66      72      28      66      69
      75      30      66      69      78      31      66      72      81      32
      69      66      72      33      69      78      84      34      72      81
      84      15      75      69      78      26      78      84      81      35
      78      84      87      26      81      84      87      16      93      96
      99      36      96      99     102      37      99     102     105      38
      99     102     108      38     102     105     111      19     102     108
     114      19     105     102     108      17     105     111     117      21
     108     114     117      21     111     117     114      21
%FLAG DIHEDRALS_INC_HYDROGEN                                                    
%FORMAT(10I8)                                                                   
      45      54      60      63       3      57      54      60      63       6
      57      54     -60      63       3      63      60      66      69       5
      63      60      66      72       5      66      69      78      90       3
      75      69      78      90       6      75      69     -78      90       3
      81      84      78      90       3      87      84      78      90       6
      87      84     -78      90       3      54      66     -60     -63       8
      69      84     -78     -90       8
%FLAG DIHEDRALS_WITHOUT_HYDROGEN                                                
%FORMAT(10I8)                                                                   
       0       9      15      21       1       0       9      33      36       1
       0      12      18      24       1       3       0       9      15       2
       3       0       9      33       2       3       0      12      18       1
       6       0       9      15       2       6       0       9      33       2
       6       0      12      18       1       9       0      12      18       1
       9      15      21      24       1       9      33      36      39       1
       9      33      36      42       1      12       0       9      15       2
      12       0       9      33       2      12      18      24      21       1
      12      18      24      27       1      15       9      33      36       1
      15      21      24      18       1      15      21      24      27       1
      18      24      27      30       3      18      24      27      93       3
      21      15       9      33       1      21      24      27      30       3
      21      24      27      93       3      24      27      93      96       1
      27      93      96      99       1      30      27      93      96       1
      33      36      39      45       1      33      36      42      48       1
      36      39      45      54       1      36      39      45      51       1
      36      42     -48      51       1      39      36      42      48       1
      39      45      54      57       4      39      45      54      60       4
      39      45     -51      48       1      42      36      39      45       1
      42      48     -51      45       1      45      54      60      66       3
      48      51      45      54       1      51      45      54      57       4
      51      45      54      60       4      54      60      66      69       5
      54      60      66      72       5      57      54      60      66       3
      60      66      69      75       4      60      66      69      78       4
      60      66      72      81       1      66      69      78      84       3
      66      72     -81      84       1      69      66      72      81       1
      69      78     -84      81       3      69      78      84      87       3
      72      66      69      75       4      72      66      69      78       4
      72      81     -84      78       1      72      81      84      87       1
      75      69      78      84       3      93      96      99     102       1
      96      99     102     105       7      96      99     102     108       7
      99     102     105     111       1      99     102     108     114       1
     102     105     111     117       1     102     108    -114     117       1
     105     102     108     114       1     105     111    -117     114       1
     108     102     105     111       1     108     114    -117     111       1
      27      18     -24     -21       8      93      24     -27     -30       9
      33      39     -36     -42       8      54      39     -45     -51       8
      45      60     -54     -57       9      69      72     -66     -60       8
      66      78     -69     -75       9      81      78     -84     -87       9
     105     108    -102     -99       8
%FLAG EXCLUDED_ATOMS_LIST                                                       
%FORMAT(10I8)                                                                   
       2       3       4       5       6       7       8       9      12      13
       3       4       5       6       7      12       4       5       6       7
      12       5       6       7       8       9      12      13      14      15
       6       7       8       9      10      12       7       8       9      10
      12      13       8       9      10      11      32       9      10      11
      12      32      10      11      32      33      11      32      33      34
      32      33      13      14      15      16      17      14      15      16
      17      18      19      15      16      17      18      19      20      21
      16      17      18      17      18      19      20      21      22      23
      18      19      19      20      21      20      21      22      23      24
      25      21      22      23      22      23      24      25      26      27
      28      23      24      25      24      25      26      27      28      29
      31      25      26      27      28      29      30      31      26      27
      28      29      30      27      29      31      28      29      30      31
      29      30      31      30      31      31       0      33      34      35
      34      35      36      37      35      36      37      38      39      36
      37      38      39      40      37      38      39      40      38      39
      40      39      40      40       0
%FLAG HBOND_ACOEF                                                               
%FORMAT(5E16.8)                                                                 

%FLAG HBOND_BCOEF                                                               
%FORMAT(5E16.8)                                                                 

%FLAG HBCUT                                                                     
%FORMAT(5E16.8)                                                                 

%FLAG AMBER_ATOM_TYPE                                                           
%FORMAT(20a4)                                                                   
s6  o   o   n3  c1  c1  c1  c1  n   c   o   c1  ce  c1  c1  ce  c1  c1  c   o   
ns  hn  c2  c   c1  o   ns  c1  c   o   hn  c1  c1  os  ce  c1  c1  c1  c1  c1  
%FLAG TREE_CHAIN_CLASSIFICATION                                                 
%FORMAT(20a4)                                                                   
BLA BLA BLA BLA BLA BLA BLA BLA BLA BLA BLA BLA BLA BLA BLA BLA BLA BLA BLA BLA 
BLA BLA BLA BLA BLA BLA BLA BLA BLA BLA BLA BLA BLA BLA BLA BLA BLA BLA BLA BLA 
%FLAG JOIN_ARRAY                                                                
%FORMAT(10I8)                                                                   
       0       0       0       0       0       0       0       0       0       0
       0       0       0       0       0       0       0       0       0       0
       0       0       0       0       0       0       0       0       0       0
       0       0       0       0       0       0       0       0       0       0
%FLAG IROTAT                                                                    
%FORMAT(10I8)                                                                   
       0       0       0       0       0       0       0       0       0       0
       0       0       0       0       0       0       0       0       0       0
       0       0       0       0       0       0       0       0       0       0
       0       0       0       0       0       0       0       0       0       0
%FLAG RADIUS_SET                                                                
%FORMAT(1a80)                                                                   
modified Bondi radii (mbondi)                                                   
%FLAG RADII                                                                     
%FORMAT(5E16.8)                                                                 
  1.80000000E+00  1.50000000E+00  1.50000000E+00  1.55000000E+00  1.70000000E+00
  1.70000000E+00  1.70000000E+00  1.70000000E+00  1.55000000E+00  1.70000000E+00
  1.50000000E+00  1.70000000E+00  1.70000000E+00  1.70000000E+00  1.70000000E+00
  1.70000000E+00  1.70000000E+00  1.70000000E+00  1.70000000E+00  1.50000000E+00
  1.55000000E+00  1.30000000E+00  1.70000000E+00  1.70000000E+00  1.70000000E+00
  1.50000000E+00  1.55000000E+00  1.70000000E+00  1.70000000E+00  1.50000000E+00
  1.30000000E+00  1.70000000E+00  1.70000000E+00  1.50000000E+00  1.70000000E+00
  1.70000000E+00  1.70000000E+00  1.70000000E+00  1.70000000E+00  1.70000000E+00
%FLAG SCREEN                                                                    
%FORMAT(5E16.8)                                                                 
  9.60000000E-01  8.50000000E-01  8.50000000E-01  7.90000000E-01  7.20000000E-01
  7.20000000E-01  7.20000000E-01  7.20000000E-01  7.90000000E-01  7.20000000E-01
  8.50000000E-01  7.20000000E-01  7.20000000E-01  7.20000000E-01  7.20000000E-01
  7.20000000E-01  7.20000000E-01  7.20000000E-01  7.20000000E-01  8.50000000E-01
  7.90000000E-01  8.50000000E-01  7.20000000E-01  7.20000000E-01  7.20000000E-01
  8.50000000E-01  7.90000000E-01  7.20000000E-01  7.20000000E-01  8.50000000E-01
  8.50000000E-01  7.20000000E-01  7.20000000E-01  8.50000000E-01  7.20000000E-01
  7.20000000E-01  7.20000000E-01  7.20000000E-01  7.20000000E-01  7.20000000E-01
%FLAG IPOL                                                                      
%FORMAT(1I8)                                                                    
       0
