LIG
    31
  82.1820000 151.0380000  14.9620000  82.5560000 152.3600000  14.9820000
  82.5120000 150.2510000  13.9010000  83.2610000 152.9140000  13.9500000
  83.2250000 150.8190000  12.8600000  83.6040000 152.1540000  12.8780000
  83.6370000 154.3330000  14.0170000  82.7160000 155.2080000  13.8850000
  84.9370000 154.8050000  14.2170000  85.6810000 154.1700000  14.3240000
  85.1870000 156.2260000  14.2650000  85.3060000 156.8190000  12.9110000
  84.1010000 156.9750000  14.9950000  85.4370000 156.1580000  11.8500000
  85.2660000 158.2340000  12.8290000  84.6560000 158.3750000  15.2730000
  85.1560000 158.9970000  14.0230000  85.4740000 160.2030000  14.0480000
  85.3150000 158.6830000  11.9540000  81.4220000 150.5240000  16.1220000
  79.2130000 150.1730000  17.3910000  78.7270000 151.4340000  18.0170000
  80.1260000 149.3940000  18.2960000  79.9870000 150.5540000  15.9200000
  77.7590000 149.1940000  16.9890000  79.6620000 149.6850000  14.8360000
  76.8050000 150.0710000  16.2060000  78.2600000 149.8660000  14.3150000
  77.5240000 150.7750000  15.1660000  78.1780000 151.4260000  15.6000000
  76.8440000 151.2710000  14.5890000
