%VERSION  VERSION_STAMP = V0001.000  DATE = 09/07/26  08:41:49                  
%FLAG TITLE                                                                     
%FORMAT(20a4)                                                                   
LIG                                                                             
%FLAG POINTERS                                                                  
%FORMAT(10I8)                                                                   
      39       9       2      40       4      56      13      78       0       0
     172       1      40      56      78      18      38       9      11       0
       0       0       0       0       0       0       0       0      39       0
       0
%FLAG ATOM_NAME                                                                 
%FORMAT(20a4)                                                                   
C1  S1  O1  O2  N1  C2  C3  C4  C5  N2  C6  O3  C7  O4  C8  C9  C10 C11 C12 C13 
C14 C15 C16 C17 C18 C19 C20 O5  N3  H1  C21 C22 C23 O6  N4  C24 C25 O7  H2  
%FLAG CHARGE                                                                    
%FORMAT(5E16.8)                                                                 
  1.84673899E+00 -5.19627107E-01 -8.48521400E+00 -8.48521400E+00  1.60687886E+00
  7.89570437E+00  2.62636188E+00  2.76920649E+00  9.27952405E-01 -2.38240172E+00
  6.01317678E+00 -4.70558097E+00  1.52458695E+00 -4.47020352E+00  3.54831915E+00
 -3.07045755E-01 -3.07045755E-01 -1.10445360E-01 -1.10445360E-01 -2.02631976E-02
  2.50088312E+00 -1.29201574E+00 -6.26300451E-01  2.40944362E+00 -2.82482095E-01
 -7.13567046E-01  4.81628145E+00 -4.92131478E+00 -4.89689690E+00  2.85886020E+00
  2.70533732E+00  4.97807725E+00 -6.44978309E-01 -4.90551605E+00 -4.35305236E+00
 -4.15468440E-03  5.36885447E+00 -4.76872124E+00  2.91587778E+00
%FLAG ATOMIC_NUMBER                                                             
%FORMAT(10I8)                                                                   
       6      16       8       8       7       6       6       6       6       7
       6       8       6       8       6       6       6       6       6       6
       6       6       6       6       6       6       6       8       7       1
       6       6       6       8       7       6       6       8       1
%FLAG MASS                                                                      
%FORMAT(5E16.8)                                                                 
  1.20100000E+01  3.20600000E+01  1.60000000E+01  1.60000000E+01  1.40100000E+01
  1.20100000E+01  1.20100000E+01  1.20100000E+01  1.20100000E+01  1.40100000E+01
  1.20100000E+01  1.60000000E+01  1.20100000E+01  1.60000000E+01  1.20100000E+01
  1.20100000E+01  1.20100000E+01  1.20100000E+01  1.20100000E+01  1.20100000E+01
  1.20100000E+01  1.20100000E+01  1.20100000E+01  1.20100000E+01  1.20100000E+01
  1.20100000E+01  1.20100000E+01  1.60000000E+01  1.40100000E+01  1.00800000E+00
  1.20100000E+01  1.20100000E+01  1.20100000E+01  1.60000000E+01  1.40100000E+01
  1.20100000E+01  1.20100000E+01  1.60000000E+01  1.00800000E+00
%FLAG ATOM_TYPE_INDEX                                                           
%FORMAT(10I8)                                                                   
       1       2       3       3       4       1       1       1       1       5
       6       3       1       7       6       1       1       1       1       1
       6       1       1       6       1       1       6       3       8       9
       6       6       1       3       8       1       6       3       9
%FLAG NUMBER_EXCLUDED_ATOMS                                                     
%FORMAT(10I8)                                                                   
      12       9       5       4       8       5       5       5       4       4
       4       2       4       5       5       4       3       2       1       1
       6       7       3       7       2       3       6       3       7       3
       7       7       5       3       4       3       2       1       1
%FLAG NONBONDED_PARM_INDEX                                                      
%FORMAT(10I8)                                                                   
       1       2       4       7      11      16      22      29      37       2
       3       5       8      12      17      23      30      38       4       5
       6       9      13      18      24      31      39       7       8       9
      10      14      19      25      32      40      11      12      13      14
      15      20      26      33      41      16      17      18      19      20
      21      27      34      42      22      23      24      25      26      27
      28      35      43      29      30      31      32      33      34      35
      36      44      37      38      39      40      41      42      43      44
      45
%FLAG RESIDUE_LABEL                                                             
%FORMAT(20a4)                                                                   
LIG 
%FLAG RESIDUE_POINTER                                                           
%FORMAT(10I8)                                                                   
       1
%FLAG BOND_FORCE_CONSTANT                                                       
%FORMAT(5E16.8)                                                                 
  3.97760000E+02  3.36100000E+02  6.14490000E+02  2.74380000E+02  2.38970000E+02
  6.99130000E+02  4.28900000E+02  3.17460000E+02  5.90600000E+02  2.50880000E+02
  4.15540000E+02  3.39490000E+02  2.67760000E+02  4.27600000E+02  4.03200000E+02
  4.00100000E+02  3.08440000E+02  4.66850000E+02
%FLAG BOND_EQUIL_VALUE                                                          
%FORMAT(5E16.8)                                                                 
  1.33100000E+00  1.41440000E+00  1.46570000E+00  1.72520000E+00  1.74220000E+00
  1.20950000E+00  1.33000000E+00  1.39670000E+00  1.21900000E+00  1.50560000E+00
  1.31410000E+00  1.37210000E+00  1.48480000E+00  1.37900000E+00  1.01300000E+00
  1.39900000E+00  1.44060000E+00  1.31850000E+00
%FLAG ANGLE_FORCE_CONSTANT                                                      
%FORMAT(5E16.8)                                                                 
  6.30880000E+01  1.14280000E+02  6.62000000E+01  5.43000000E+01  1.58500000E+02
  1.32020000E+02  1.23190000E+02  6.68580000E+01  7.67000000E+01  5.57930000E+01
  7.80000000E+01  7.57000000E+01  6.96000000E+01  8.66800000E+01  6.87450000E+01
  6.29000000E+01  7.58200000E+01  6.53160000E+01  6.91610000E+01  5.67000000E+01
  7.48600000E+01  5.82000000E+01  6.44000000E+01  7.79900000E+01  6.79000000E+01
  4.83000000E+01  6.45000000E+01  7.42000000E+01  6.87000000E+01  7.18850000E+01
  4.76000000E+01  8.00800000E+01  6.79000000E+01  5.73200000E+01  7.01000000E+01
  6.37000000E+01  5.79000000E+01  6.87450000E+01
%FLAG ANGLE_EQUIL_VALUE                                                         
%FORMAT(5E16.8)                                                                 
  2.11080210E+00  1.09659084E+00  2.03365852E+00  3.06427588E+00  2.09806119E+00
  1.87256456E+00  1.88216387E+00  1.73162916E+00  3.14159400E+00  3.14159400E+00
  3.09237569E+00  1.79227938E+00  2.04273423E+00  2.13925098E+00  1.99735565E+00
  3.13286735E+00  2.22843734E+00  2.04997735E+00  2.03967990E+00  3.14159400E+00
  2.02667720E+00  3.12501337E+00  2.06681979E+00  2.15094469E+00  2.01096923E+00
  2.05163542E+00  2.13192060E+00  2.14762857E+00  2.15844961E+00  2.00712950E+00
  2.05774407E+00  2.13122246E+00  2.01096923E+00  3.14159400E+00  2.12267035E+00
  2.21796536E+00  3.14159400E+00  1.99735565E+00
%FLAG DIHEDRAL_FORCE_CONSTANT                                                   
%FORMAT(5E16.8)                                                                 
  3.13333333E+00  0.00000000E+00  2.50000000E+00  1.05000000E+00  2.17500000E+00
  6.50000000E-01  2.00000000E+00  1.10000000E+00  1.05000000E+01
%FLAG DIHEDRAL_PERIODICITY                                                      
%FORMAT(5E16.8)                                                                 
  2.00000000E+00  2.00000000E+00  2.00000000E+00  2.00000000E+00  2.00000000E+00
  2.00000000E+00  1.00000000E+00  2.00000000E+00  2.00000000E+00
%FLAG DIHEDRAL_PHASE                                                            
%FORMAT(5E16.8)                                                                 
  0.00000000E+00  3.14159400E+00  3.14159400E+00  3.14159400E+00  3.14159400E+00
  3.14159400E+00  0.00000000E+00  3.14159400E+00  3.14159400E+00
%FLAG SCEE_SCALE_FACTOR                                                         
%FORMAT(5E16.8)                                                                 
  1.20000000E+00  1.20000000E+00  1.20000000E+00  1.20000000E+00  1.20000000E+00
  1.20000000E+00  1.20000000E+00  0.00000000E+00  0.00000000E+00
%FLAG SCNB_SCALE_FACTOR                                                         
%FORMAT(5E16.8)                                                                 
  2.00000000E+00  2.00000000E+00  2.00000000E+00  2.00000000E+00  2.00000000E+00
  2.00000000E+00  2.00000000E+00  0.00000000E+00  0.00000000E+00
%FLAG SOLTY                                                                     
%FORMAT(5E16.8)                                                                 
  0.00000000E+00  0.00000000E+00  0.00000000E+00  0.00000000E+00  0.00000000E+00
  0.00000000E+00  0.00000000E+00  0.00000000E+00  0.00000000E+00  0.00000000E+00
  0.00000000E+00
%FLAG LENNARD_JONES_ACOEF                                                       
%FORMAT(5E16.8)                                                                 
  2.00671338E+06  3.25035981E+06  4.90327872E+06  8.92208123E+05  1.53564503E+06
  3.76435470E+05  1.20705609E+06  1.98533726E+06  5.29641935E+05  7.23647490E+05
  1.20132739E+06  2.02772676E+06  5.15491878E+05  7.16178718E+05  7.02078680E+05
  1.18640578E+06  1.96483601E+06  5.17507491E+05  7.10207765E+05  7.01106848E+05
  6.96551276E+05  7.65280989E+05  1.29636058E+06  3.27367585E+05  4.55871651E+05
  4.46307018E+05  4.46121722E+05  2.83662575E+05  1.38616450E+06  2.31672966E+06
  5.99897901E+05  8.28144322E+05  8.14793385E+05  8.11497350E+05  5.18220260E+05
  9.44293233E+05  3.37137075E+03  8.72013948E+03  9.87857350E+02  1.82809059E+03
  1.52360475E+03  1.71458823E+03  9.46795083E+02  1.88178855E+03  1.34728399E-01
%FLAG LENNARD_JONES_BCOEF                                                       
%FORMAT(5E16.8)                                                                 
  1.13185062E+03  1.13447787E+03  1.09738109E+03  7.38469198E+02  7.63007119E+02
  4.69350655E+02  7.51664026E+02  7.59208492E+02  4.87196412E+02  4.98353106E+02
  8.81180204E+02  9.01618117E+02  5.64804067E+02  5.82583725E+02  6.77820248E+02
  7.71958727E+02  7.82392141E+02  4.98871431E+02  5.11427129E+02  5.97113873E+02
  5.24668528E+02  5.74027680E+02  5.88395242E+02  3.67361018E+02  3.79365004E+02
  4.41089616E+02  3.88758656E+02  2.87011518E+02  9.55669738E+02  9.73020518E+02
  6.15165511E+02  6.32509514E+02  7.37244936E+02  6.48597119E+02  4.79881022E+02
  8.01323529E+02  2.32108730E+01  2.93990844E+01  1.22938581E+01  1.46352678E+01
  1.57004457E+01  1.46824710E+01  1.01016461E+01  1.76168249E+01  7.34107347E-02
%FLAG BONDS_INC_HYDROGEN                                                        
%FORMAT(10I8)                                                                   
      84      87      15     102     114      15
%FLAG BONDS_WITHOUT_HYDROGEN                                                    
%FORMAT(10I8)                                                                   
       0      12       1       0      60       2       3       6       3       3
       9       3       3      12       4       3      15       5      12      18
       1      15      21       6      18      24       6      21      27       7
      24      27       7      27      30       8      30      33       9      30
      36      10      36      39      11      39      42      12      42      45
       2      42      48       2      45      51       6      48      54       6
      51      57       6      54      57       6      60      63       2      60
      66       2      63      69       2      66      72       6      69      78
      13      69      75       2      72      75       6      78      81       9
      78      84      14      84      90      16      90      93      17      90
      96      18      93      99       9      93     102      14      96     105
       6     102     108      14     105     108      10     108     111       9
%FLAG ANGLES_INC_HYDROGEN                                                       
%FORMAT(10I8)                                                                   
      78      84      87      26      87      84      90      31      93     102
     114      26     108     102     114      26
%FLAG ANGLES_WITHOUT_HYDROGEN                                                   
%FORMAT(10I8)                                                                   
       0      12       3       1       0      12      18       2       0      60
      63       3       0      60      66       3       3      12      18       1
       3      15      21       4       6       3       9       5       6       3
      12       6       6       3      15       7       9       3      12       6
       9       3      15       7      12       3      15       8      12      18
      24       9      12       0      60      10      15      21      27      11
      18      24      27      11      21      27      24      12      21      27
      30      13      24      27      30      13      27      30      33      14
      27      30      36      15      30      36      39      16      33      30
      36      17      36      39      42      18      39      42      45      19
      39      42      48      19      42      45      51      20      42      48
      54      20      45      42      48       3      45      51      57      21
      48      54      57      21      51      57      54      21      60      63
      69      22      60      66      72      20      63      60      66       3
      63      69      78      23      63      69      75       3      66      72
      75      21      69      78      81      24      69      78      84      25
      69      75      72      20      75      69      78      23      78      84
      90      27      81      78      84      28      84      90      93      29
      84      90      96      30      90      93      99      32      90      93
     102      33      90      96     105      34      93      90      96      35
      93     102     108      36      96     105     108      37      99      93
     102      28     102     108     105      38     102     108     111      28
     105     108     111      17
%FLAG DIHEDRALS_INC_HYDROGEN                                                    
%FORMAT(10I8)                                                                   
      69      78      84      87       3      81      78      84      87       7
      81      78     -84      87       3      87      84      90      93       6
      87      84      90      96       6      90      93     102     114       3
      99      93     102     114       7      99      93    -102     114       3
     105     108     102     114       3     111     108     102     114       7
     111     108    -102     114       3      78      90     -84     -87       8
      93     108    -102    -114       8
%FLAG DIHEDRALS_WITHOUT_HYDROGEN                                                
%FORMAT(10I8)                                                                   
       0      12       3       6       1       0      12       3       9       1
       0      12       3      15       1       0      12      18      24       2
       0      60      63      69       2       0      60      66      72       2
       3      12      18      24       2      60       0      12       3       2
       3      15      21      27       2       6       3      12      18       1
       6       3      15      21       2       9       3      12      18       1
       9       3      15      21       2      12       3      15      21       2
      12      18      24      27       2      12       0      60      63       2
      12       0      60      66       2      15       3      12      18       1
      15      21      27      24       2      15      21      27      30       2
      60       0      12      18       2      18      24      27      21       2
      18      24      27      30       2      21      27      30      33       3
      21      27      30      36       3      24      27      30      33       3
      24      27      30      36       3      27      30      36      39       2
      30      36      39      42       2      33      30      36      39       2
      36      39      42      45       4      36      39      42      48       4
      39      42      45      51       2      39      42      48      54       2
      42      45      51      57       2      42      48     -54      57       2
      45      42      48      54       2      45      51     -57      54       2
      48      42      45      51       2      48      54     -57      51       2
      60      63      69      78       2      60      63      69      75       2
      60      66     -72      75       2      63      60      66      72       2
      63      69      78      81       5      63      69      78      84       5
      63      69     -75      72       2      66      60      63      69       2
      66      72     -75      69       2      69      78      84      90       3
      72      75      69      78       2      75      69      78      81       5
      75      69      78      84       5      78      84      90      93       6
      78      84      90      96       6      81      78      84      90       3
      84      90      93      99       5      84      90      93     102       5
      84      90      96     105       2      90      93     102     108       3
      90      96    -105     108       2      93      90      96     105       2
      93     102    -108     105       3      93     102     108     111       3
      96      90      93      99       5      96      90      93     102       5
      96     105    -108     102       2      96     105     108     111       2
      99      93     102     108       3      30      21     -27     -24       8
      36      27     -30     -33       9      45      48     -42     -39       8
       0      63     -60     -66       8      78      63     -69     -75       8
      69      84     -78     -81       9      93      96     -90     -84       8
      90     102     -93     -99       9     105     102    -108    -111       9
%FLAG EXCLUDED_ATOMS_LIST                                                       
%FORMAT(10I8)                                                                   
       2       3       4       5       6       7       9      21      22      23
      24      25       3       4       5       6       7       8       9      10
      21       4       5       6       7       8       5       6       7       8
       6       7       8       9      10      21      22      23       7       8
       9      10      11       8       9      10      11      21       9      10
      11      12      13      10      11      12      13      11      12      13
      14      12      13      14      15      13      14      14      15      16
      17      15      16      17      18      19      16      17      18      19
      20      17      18      19      20      18      19      20      19      20
      20       0      22      23      24      25      26      27      23      24
      25      26      27      28      29      24      25      26      25      26
      27      28      29      30      31      26      27      27      28      29
      28      29      30      31      32      33      29      30      31      30
      31      32      33      34      35      36      31      32      33      32
      33      34      35      36      37      39      33      34      35      36
      37      38      39      34      35      36      37      38      35      37
      39      36      37      38      39      37      38      39      38      39
      39       0
%FLAG HBOND_ACOEF                                                               
%FORMAT(5E16.8)                                                                 

%FLAG HBOND_BCOEF                                                               
%FORMAT(5E16.8)                                                                 

%FLAG HBCUT                                                                     
%FORMAT(5E16.8)                                                                 

%FLAG AMBER_ATOM_TYPE                                                           
%FORMAT(20a4)                                                                   
c1  s6  o   o   n3  c1  c1  c1  c1  n   c   o   c1  os  ce  c1  c1  c1  c1  c1  
ce  c1  c1  ce  c1  c1  c   o   ns  hn  c2  c   c1  o   ns  c1  c   o   hn  
%FLAG TREE_CHAIN_CLASSIFICATION                                                 
%FORMAT(20a4)                                                                   
BLA BLA BLA BLA BLA BLA BLA BLA BLA BLA BLA BLA BLA BLA BLA BLA BLA BLA BLA BLA 
BLA BLA BLA BLA BLA BLA BLA BLA BLA BLA BLA BLA BLA BLA BLA BLA BLA BLA BLA 
%FLAG JOIN_ARRAY                                                                
%FORMAT(10I8)                                                                   
       0       0       0       0       0       0       0       0       0       0
       0       0       0       0       0       0       0       0       0       0
       0       0       0       0       0       0       0       0       0       0
       0       0       0       0       0       0       0       0       0
%FLAG IROTAT                                                                    
%FORMAT(10I8)                                                                   
       0       0       0       0       0       0       0       0       0       0
       0       0       0       0       0       0       0       0       0       0
       0       0       0       0       0       0       0       0       0       0
       0       0       0       0       0       0       0       0       0
%FLAG RADIUS_SET                                                                
%FORMAT(1a80)                                                                   
modified Bondi radii (mbondi)                                                   
%FLAG RADII                                                                     
%FORMAT(5E16.8)                                                                 
  1.70000000E+00  1.80000000E+00  1.50000000E+00  1.50000000E+00  1.55000000E+00
  1.70000000E+00  1.70000000E+00  1.70000000E+00  1.70000000E+00  1.55000000E+00
  1.70000000E+00  1.50000000E+00  1.70000000E+00  1.50000000E+00  1.70000000E+00
  1.70000000E+00  1.70000000E+00  1.70000000E+00  1.70000000E+00  1.70000000E+00
  1.70000000E+00  1.70000000E+00  1.70000000E+00  1.70000000E+00  1.70000000E+00
  1.70000000E+00  1.70000000E+00  1.50000000E+00  1.55000000E+00  1.30000000E+00
  1.70000000E+00  1.70000000E+00  1.70000000E+00  1.50000000E+00  1.55000000E+00
  1.70000000E+00  1.70000000E+00  1.50000000E+00  1.30000000E+00
%FLAG SCREEN                                                                    
%FORMAT(5E16.8)                                                                 
  7.20000000E-01  9.60000000E-01  8.50000000E-01  8.50000000E-01  7.90000000E-01
  7.20000000E-01  7.20000000E-01  7.20000000E-01  7.20000000E-01  7.90000000E-01
  7.20000000E-01  8.50000000E-01  7.20000000E-01  8.50000000E-01  7.20000000E-01
  7.20000000E-01  7.20000000E-01  7.20000000E-01  7.20000000E-01  7.20000000E-01
  7.20000000E-01  7.20000000E-01  7.20000000E-01  7.20000000E-01  7.20000000E-01
  7.20000000E-01  7.20000000E-01  8.50000000E-01  7.90000000E-01  8.50000000E-01
  7.20000000E-01  7.20000000E-01  7.20000000E-01  8.50000000E-01  7.90000000E-01
  7.20000000E-01  7.20000000E-01  8.50000000E-01  8.50000000E-01
%FLAG IPOL                                                                      
%FORMAT(1I8)                                                                    
       0
