LIG
    37
  83.4060000 150.2660000  15.8060000  83.4500000 149.3420000  16.8020000
  82.9460000 151.5320000  16.1480000  83.0640000 149.5980000  18.1070000
  82.5540000 151.8310000  17.4290000  82.6150000 150.8550000  18.4090000
  83.1460000 148.5290000  19.1150000  82.3530000 147.5290000  19.0330000
  84.0440000 148.5040000  20.1950000  84.6770000 149.2510000  20.2980000
  84.0780000 147.4260000  21.1650000  84.5090000 147.9740000  22.4650000
  85.0430000 146.3790000  20.6590000  83.6730000 148.2810000  23.3320000
  85.8920000 148.1390000  22.7030000  86.4660000 146.8010000  20.6810000
  86.7860000 147.8940000  21.6250000  87.8210000 148.6060000  21.5010000
  86.2260000 148.4170000  23.5870000  83.7820000 149.9760000  14.3820000
  85.7370000 151.7140000  14.5790000  86.9830000 151.7680000  13.6740000
  86.1770000 150.7290000  15.6670000  84.4080000 151.0940000  13.7870000
  85.5110000 153.2400000  15.3970000  83.6030000 151.9760000  13.0360000
  84.7830000 154.3170000  14.7200000  84.3620000 153.1070000  12.3990000
  84.5560000 154.2390000  13.3070000  84.5090000 155.5120000  12.6760000
  84.3140000 155.5740000  11.4440000  84.6820000 156.7380000  13.4310000
  85.3470000 157.8010000  12.8800000  84.1900000 156.8630000  14.7100000
  85.5290000 158.9450000  13.5480000  84.3640000 158.0240000  15.4150000
  85.0400000 159.0910000  14.8450000
