LIG
    31
  84.1780000 154.9180000  14.4080000  84.9230000 153.8050000  14.7580000
  82.8180000 154.8770000  14.1960000  84.3040000 152.5970000  14.9070000
  82.1840000 153.6450000  14.3470000  82.9320000 152.5450000  14.6950000
  84.6950000 151.2030000  15.2590000  82.5170000 151.1340000  14.9160000
  83.7280000 150.4660000  14.4730000  84.1260000 150.9620000  16.6430000
  82.6160000 150.8960000  16.4060000  83.8220000 149.4250000  13.5520000
  84.5850000 149.7740000  17.1960000  81.9960000 151.9380000  17.0690000
  84.9630000 148.9300000  13.2560000  84.3520000 149.0350000  16.6120000
  82.3870000 152.7800000  16.7840000  85.1360000 155.9250000  11.9870000
  85.0490000 156.7020000  12.9730000  84.8240000 156.1690000  14.2540000
  85.1750000 158.1130000  12.8230000  85.2690000 156.9330000  15.4130000
  85.0640000 158.9080000  13.9920000  84.6770000 158.3240000  15.3050000
  85.2900000 160.1410000  13.9530000  85.3340000 158.5210000  11.9410000
  82.7480000 148.8520000  12.8990000  81.9040000 147.8890000  13.4650000
  81.5840000 146.7590000  12.5210000  82.6120000 147.2890000  14.6620000
  80.5980000 148.4740000  13.9570000
