LIG
    31
  86.9660000 150.9740000  13.9870000  86.0280000 151.9580000  13.6400000
  87.1960000 150.6620000  15.2840000  85.3120000 152.6390000  14.5990000
  86.4740000 151.3460000  16.2710000  85.5580000 152.3090000  15.9110000
  84.3420000 153.6610000  14.1910000  83.1300000 153.3430000  14.0260000
  84.6920000 154.9950000  13.9710000  85.6320000 155.2620000  14.0950000
  83.7160000 156.0200000  13.5610000  84.2160000 156.7420000  12.3700000
  83.4700000 156.9160000  14.7300000  83.7780000 156.4720000  11.2260000
  85.2020000 157.7430000  12.5590000  84.7580000 157.6380000  15.0640000
  85.3850000 158.2600000  13.8890000  86.1070000 159.2770000  14.0470000
  85.7420000 158.0730000  11.8050000  87.6910000 150.3330000  12.8610000
  89.0930000 151.6670000  11.1330000  90.4810000 152.2400000  10.9000000
  88.0630000 152.7320000  11.0140000  88.9810000 150.9130000  12.6540000
  88.7590000 150.4180000   9.8800000  89.9950000 149.9430000  12.9210000
  89.6530000 149.2110000  10.1970000  91.1550000 149.9160000  11.9820000
  90.8950000 149.7360000  10.6310000  90.9940000 150.6510000  10.1910000
  91.5550000 149.0040000  10.3680000
