LIG
    36
  83.9110000 150.6300000  13.5020000  84.2540000 151.9610000  13.5410000
  82.7220000 150.2460000  14.0610000  83.4630000 152.9220000  14.1120000
  81.8950000 151.1600000  14.6420000  82.2720000 152.5010000  14.6650000
  83.7930000 154.3260000  14.1740000  82.9120000 155.2200000  13.9160000
  85.0700000 154.8120000  14.5110000  85.7850000 154.1680000  14.7170000
  85.3730000 156.2490000  14.5670000  85.6200000 156.7220000  13.1810000
  84.1570000 157.0310000  15.0720000  85.9640000 155.9670000  12.2380000
  85.4500000 158.1120000  12.9350000  84.6770000 158.4450000  15.3410000
  85.1560000 158.9780000  14.0300000  85.2900000 160.2260000  13.9290000
  85.5340000 158.4710000  12.0230000  84.7900000 149.6500000  12.8870000
  87.1440000 150.2290000  11.7440000  86.4490000 150.5080000  10.4530000
  88.0510000 149.0320000  11.4550000  86.1630000 149.8300000  13.0290000
  88.2570000 151.5770000  12.0680000  86.8510000 149.2900000  14.1330000
  89.3860000 151.1820000  12.9820000  87.7270000 150.3620000  14.7890000
  88.9920000 150.3700000  14.0890000  89.9520000 149.4420000  14.5840000
  89.7130000 148.6810000  15.5510000  91.2050000 149.3580000  13.9920000
  91.6930000 148.0990000  13.5690000  92.1210000 147.2460000  14.7480000
  90.5770000 147.3940000  12.8490000  92.8310000 148.3450000  12.6130000
