LIG
    35
  82.8190000 150.3900000  16.3770000  81.8560000 149.6040000  15.7400000
  82.4840000 151.0700000  17.5530000  81.1980000 148.5530000  16.5910000
  82.1970000 150.1920000  18.7450000  80.3470000 149.0550000  17.6160000
  80.7120000 149.8100000  18.7870000  78.9700000 148.7880000  17.4830000
  78.4740000 148.1410000  16.5240000  82.6920000 151.2070000  15.7800000
  80.8360000 150.4470000  15.0890000  80.0510000 150.0120000  14.2010000
  80.7000000 151.7780000  15.4350000  81.3860000 152.8330000  14.8030000
  84.1760000 150.1760000  16.0730000  85.2070000 152.9000000  13.6450000
  84.8770000 152.2140000  14.7880000  85.1730000 152.1620000  12.4590000
  84.5230000 150.8590000  14.7970000  84.8350000 150.8280000  12.4020000
  84.5160000 150.2090000  13.5850000  86.8590000 154.2070000  11.6660000
  86.1370000 154.8500000  12.4830000  85.5420000 154.3030000  13.6250000
  85.9170000 156.2530000  12.2140000  85.2000000 155.0560000  14.8120000
  85.1020000 156.9140000  13.1750000  85.1020000 156.5420000  14.5990000
  84.3610000 157.8450000  12.7910000  86.2980000 156.7130000  11.4310000
  78.0910000 149.2500000  18.4440000  77.4410000 148.4340000  19.3790000
  78.1830000 147.1270000  19.4850000  76.0220000 148.2150000  18.8870000
  77.3710000 149.1330000  20.7390000
