LIG
    39
  81.7590000 151.6230000  15.2150000  83.3200000 150.4230000  13.5070000
  83.3090000 149.0530000  14.1750000  82.1850000 150.4010000  12.5190000
  83.0420000 151.5930000  14.6520000  84.8160000 150.5620000  12.5970000
  84.0990000 152.2890000  15.2500000  85.9220000 151.2430000  13.3570000
  84.7060000 153.3180000  14.2770000  85.6100000 152.6800000  13.3780000
  86.2690000 153.4490000  12.4260000  87.0780000 152.8890000  11.6110000
  86.1090000 154.8950000  12.2730000  84.9820000 155.4530000  12.8650000
  84.9700000 156.6570000  13.5120000  84.6120000 156.7160000  14.8350000
  85.3230000 157.8170000  12.8190000  84.6190000 157.9530000  15.4330000
  85.3210000 159.0430000  13.4400000  84.9640000 159.1110000  14.7660000
  81.5970000 150.9860000  16.5380000  80.3390000 150.7010000  17.0600000
  82.6900000 150.6450000  17.3040000  80.1690000 150.1030000  18.2900000
  82.5680000 150.0450000  18.5420000  81.3030000 149.7870000  19.0070000
  78.8740000 149.7910000  18.8670000  78.6960000 148.6440000  19.3590000
  77.7860000 150.7010000  18.9140000  77.8740000 151.6090000  18.5430000
  76.5450000 150.2700000  19.5160000  76.3940000 150.7870000  20.8940000
  75.3800000 150.7950000  18.6970000  76.6050000 150.0280000  21.8680000
  76.0110000 152.1410000  21.0650000  75.3890000 152.3080000  18.6200000
  75.5550000 152.9260000  19.9570000  75.2990000 154.1350000  20.1240000
  76.0590000 152.5480000  21.9600000
