LIG
    31
  84.1340000 154.8820000  14.2580000  84.9030000 153.7300000  14.3270000
  82.7700000 154.6810000  14.2620000  84.3360000 152.4740000  14.3950000
  82.1920000 153.4330000  14.3290000  82.9660000 152.3040000  14.3970000
  84.9020000 151.0880000  14.4840000  82.7070000 150.8380000  14.4700000
  83.8440000 150.4460000  15.2860000  84.6680000 150.4320000  13.1660000
  83.1530000 150.2720000  13.1420000  83.9200000 149.7010000  16.4550000
  85.3080000 149.2080000  13.0340000  82.8530000 148.9220000  13.0150000
  84.9830000 149.4350000  17.0620000  85.0110000 148.6100000  13.7370000
  83.2770000 148.4270000  13.7340000  84.5630000 156.1080000  11.8780000
  84.7220000 156.8380000  12.9000000  84.6720000 156.1940000  14.1870000
  84.9380000 158.2310000  12.7630000  85.1730000 156.9290000  15.3120000
  85.1070000 158.9780000  13.9720000  84.6250000 158.3400000  15.2240000
  85.6430000 160.1160000  13.9340000  84.9710000 158.6640000  11.8790000
  82.7450000 149.2100000  17.0020000  81.9840000 149.8640000  17.9770000
  81.3390000 148.8590000  18.8940000  80.9290000 150.7690000  17.3820000
  82.9210000 150.7360000  18.7870000
