LIG
    36
  86.8800000 150.9520000  12.4690000  86.2650000 152.1380000  12.7960000
  87.8730000 150.9790000  11.5250000  86.5820000 153.3390000  12.2380000
  88.2480000 152.1690000  10.9120000  87.5980000 153.3200000  11.2800000
  85.9960000 154.6240000  12.5620000  86.6350000 155.6860000  12.4010000
  84.6650000 154.6960000  13.0790000  84.1570000 153.8630000  13.2100000
  84.0340000 155.9800000  13.4240000  84.3140000 156.9780000  12.3720000
  84.3240000 156.4100000  14.8120000  84.1830000 156.6120000  11.1750000
  84.7140000 158.2900000  12.6390000  85.3190000 157.5390000  14.9090000
  85.0270000 158.6490000  13.9860000  85.0330000 159.8660000  14.2870000
  84.7780000 158.9530000  11.9140000  86.4750000 149.7070000  13.1040000
  86.0470000 150.5400000  15.6130000  87.4850000 150.4030000  15.9550000
  85.2880000 149.8720000  16.7620000  85.5950000 149.7930000  14.1900000
  85.5820000 152.2620000  15.6920000  84.2130000 149.6000000  13.9830000
  84.0910000 152.4000000  15.9770000  83.5470000 150.9620000  13.8980000
  83.3420000 151.3840000  15.2670000  82.3030000 150.7150000  15.9590000
  81.5870000 149.8220000  15.4470000  82.0220000 151.0360000  17.2980000
  81.9310000 150.0250000  18.2810000  80.5140000 149.8000000  18.7580000
  82.5270000 148.7270000  17.7630000  82.8220000 150.4860000  19.4320000
