LIG
    36
  82.4100000 150.3830000  15.6560000  83.4160000 151.2700000  15.3570000
  81.1050000 150.8580000  15.6710000  83.2030000 152.6030000  15.0710000
  80.8590000 152.1800000  15.3900000  81.9060000 153.0570000  15.0890000
  84.3090000 153.5000000  14.7620000  85.4830000 153.2340000  15.1850000
  84.1720000 154.6760000  14.0070000  83.2880000 154.9300000  13.6560000
  85.3240000 155.5250000  13.7370000  85.0980000 156.3630000  12.5420000
  85.5300000 156.3630000  14.9840000  84.9130000 155.8150000  11.4360000
  85.0860000 157.7770000  12.6200000  84.5380000 157.5170000  15.0310000
  84.8440000 158.3970000  13.8760000  84.8800000 159.6420000  14.0270000
  85.2440000 158.3220000  11.8150000  82.7010000 148.9440000  15.9560000
  85.1000000 147.9340000  16.1240000  84.9600000 148.2980000  17.5740000
  85.1720000 146.4260000  16.0610000  83.8120000 148.4880000  15.2410000
  86.6730000 148.5410000  15.5790000  83.7840000 148.3950000  13.8540000
  86.3870000 149.8670000  14.9040000  85.0810000 148.5040000  13.1210000
  85.9270000 149.5750000  13.5710000  86.3750000 150.4770000  12.5830000
  86.0220000 150.3010000  11.3710000  87.2440000 151.6410000  12.8480000
  87.9290000 152.1140000  11.6870000  89.2840000 151.6790000  11.5580000
  87.6950000 153.4840000  11.3610000  87.4630000 151.6170000  10.9290000
