LIG
    39
  83.8030000 149.5550000  16.3000000  81.9130000 149.6110000  18.1660000
  82.0830000 148.4720000  19.1440000  82.7970000 150.7360000  18.7060000
  82.4900000 149.1640000  16.6560000  80.2450000 150.1360000  18.2490000
  81.5720000 148.8730000  15.6260000  79.3140000 149.4460000  17.2980000
  80.6780000 150.0190000  15.2070000  79.4470000 149.9260000  15.9440000
  78.2930000 150.3530000  15.2460000  78.4020000 150.7690000  14.0730000
  76.9410000 150.3220000  15.8740000  77.0080000 150.3310000  17.2650000
  76.2090000 151.0420000  18.1330000  74.8790000 151.3130000  17.9510000
  76.8050000 151.5300000  19.2990000  74.1710000 152.0370000  18.8860000
  76.1010000 152.2540000  20.2350000  74.7630000 152.5230000  20.0440000
  83.8600000 150.4650000  15.1260000  84.1230000 151.8190000  15.2660000
  83.6460000 149.9090000  13.8830000  84.1830000 152.6710000  14.1740000
  83.7030000 150.7420000  12.7860000  83.9650000 152.0860000  12.9440000
  84.4550000 154.0910000  14.2930000  85.2240000 154.4670000  15.2180000
  83.9310000 155.0900000  13.4580000  83.3300000 154.8060000  12.7320000
  84.2060000 156.5040000  13.5830000  85.4420000 156.9110000  12.8830000
  84.3910000 156.8240000  15.0500000  86.1270000 156.1630000  12.1410000
  85.8650000 158.2610000  13.0850000  84.7630000 158.2400000  15.3180000
  85.2350000 158.9930000  14.1310000  85.1060000 160.2360000  14.0070000
  86.5630000 158.6690000  12.5230000
