LIG
    31
  84.0970000 154.8440000  14.1560000  84.8200000 153.6520000  14.2420000
  82.7240000 154.7240000  14.1750000  84.1830000 152.4330000  14.3410000
  82.0840000 153.4890000  14.2740000  82.8040000 152.3370000  14.3570000
  84.7060000 151.0420000  14.4490000  82.5030000 150.8760000  14.4670000
  83.6340000 150.4640000  15.2810000  84.4420000 150.3560000  13.1500000
  82.9070000 150.2840000  13.1380000  83.7050000 149.7470000  16.4730000
  84.9170000 151.0490000  12.0440000  82.4710000 148.9920000  12.9640000
  84.7970000 149.4860000  17.0300000  84.5170000 151.9330000  12.0200000
  82.8310000 148.4310000  13.6690000  84.7450000 156.1390000  11.7410000
  84.8100000 156.8070000  12.8040000  84.7180000 156.1190000  14.0530000
  84.9720000 158.2200000  12.7420000  85.2940000 156.7970000  15.2110000
  85.0360000 158.8990000  13.9910000  84.7060000 158.1840000  15.2570000
  85.3790000 160.1160000  13.9880000  85.0360000 158.6990000  11.8840000
  82.5430000 149.2990000  17.0780000  81.9090000 150.0620000  18.0610000
  82.9130000 151.0110000  18.6610000  81.2750000 149.2500000  19.1530000
  80.7900000 150.8850000  17.4190000
