LIG
    40
  86.8850000 147.9760000  14.5940000  87.5750000 146.7820000  15.1830000
  85.3930000 147.6760000  14.6420000  87.2610000 149.4340000  15.3960000
  87.3100000 148.0200000  12.8630000  87.8120000 150.4470000  14.5240000
  86.3510000 148.9040000  12.0890000  86.7010000 150.9520000  13.5920000
  86.7520000 150.2820000  12.3210000  87.2290000 151.0250000  11.2150000
  87.3020000 150.4960000  10.0590000  86.2440000 149.9230000  16.2650000
  85.1900000 150.7210000  15.6380000  85.3480000 152.1010000  15.4420000
  84.0350000 150.0840000  15.2450000  84.3690000 152.8600000  14.8580000
  83.0480000 150.8450000  14.6570000  83.2000000 152.2020000  14.4630000
  84.5140000 154.2920000  14.6450000  85.2900000 154.9860000  15.3910000
  83.8440000 155.0310000  13.6400000  83.2320000 154.5510000  13.0350000
  84.0130000 156.4640000  13.4550000  85.3230000 156.7900000  12.8580000
  83.6690000 157.2460000  14.6800000  85.9650000 155.9120000  12.2540000
  85.8270000 158.1070000  12.9880000  84.8100000 158.0700000  15.2350000
  85.3540000 158.8720000  14.1040000  85.4130000 160.1150000  14.0840000
  86.4710000 158.4790000  12.3420000  87.6570000 152.4400000  11.3800000
  88.8300000 152.6990000  10.4830000  88.6670000 153.6190000   9.4810000
  88.7730000 153.5010000   8.1200000  89.2210000 154.6130000   7.4160000
  88.4800000 152.3970000   7.3760000  89.3720000 154.6350000   6.0550000
  88.6090000 152.3490000   5.9980000  89.0570000 153.4760000   5.3530000
