[ System ]
   1    2    3    4    5    6    7    8    9   10   11   12   13   14   15
  16   17   18   19   20   21   22   23   24   25   26   27   28   29   30
  31   32   33   34   35   36   37   38   39   40   41   42   43   44   45
  46   47   48   49   50   51   52   53   54   55   56   57   58   59   60
  61   62   63   64   65   66   67   68   69   70   71   72   73   74   75
  76   77   78   79   80   81   82   83   84   85   86   87   88   89   90
  91   92   93   94   95   96   97   98   99  100  101  102  103  104  105
 106  107  108  109  110  111  112  113  114  115  116  117  118  119  120
 121  122  123  124  125  126  127  128  129  130  131  132  133  134  135
 136  137  138  139  140  141  142  143  144  145  146  147  148  149  150
 151  152  153  154  155  156  157  158  159  160  161  162  163  164  165
 166  167  168  169  170  171  172  173  174  175  176  177  178  179  180
 181  182  183  184  185  186  187  188  189  190  191  192  193  194  195
 196  197  198  199  200  201  202  203  204  205  206  207  208  209  210
 211  212  213  214  215  216  217  218  219  220  221  222  223  224  225
 226  227  228  229  230  231  232  233  234  235  236  237  238  239  240
 241  242  243  244  245  246  247  248  249  250  251  252  253  254  255
 256  257  258  259  260  261  262  263  264  265  266  267  268  269  270
 271  272  273  274  275  276  277  278  279  280  281  282  283  284  285
 286  287  288  289  290  291  292  293  294  295  296  297  298  299  300
 301  302  303  304  305  306  307  308  309  310  311  312  313  314  315
 316  317  318  319  320  321  322  323  324  325  326  327  328  329  330
 331  332  333  334  335  336  337  338  339  340  341  342  343  344  345
 346  347  348  349  350  351  352  353  354  355  356  357  358  359  360
 361  362  363  364  365  366  367  368  369  370  371  372  373  374  375
 376  377  378  379  380  381  382  383  384  385  386  387  388  389  390
 391  392  393  394  395  396  397  398  399  400  401  402  403  404  405
 406  407  408  409  410  411  412  413  414  415  416  417  418  419  420
 421  422  423  424  425  426  427  428  429  430  431  432  433  434  435
 436  437  438  439  440  441  442  443  444  445  446  447  448  449  450
 451  452  453  454  455  456  457  458  459  460  461  462  463  464  465
 466  467  468  469  470  471  472  473  474  475  476  477  478  479  480
 481  482  483  484  485  486  487  488  489  490  491  492  493  494  495
 496  497  498  499  500  501  502  503  504  505  506  507  508  509  510
 511  512  513  514  515  516  517  518  519  520  521  522  523  524  525
 526  527  528  529  530  531  532  533  534  535  536  537  538  539  540
 541  542  543  544  545  546  547  548  549  550  551  552  553  554  555
 556  557  558  559  560  561  562  563  564  565  566  567  568  569  570
 571  572  573  574  575  576  577  578  579  580  581  582  583  584  585
 586  587  588  589  590  591  592  593  594  595  596  597  598  599  600
 601  602  603  604  605  606  607  608  609  610  611  612  613  614  615
 616  617  618  619  620  621  622  623  624  625  626  627  628  629  630
 631  632  633  634  635  636  637  638  639  640  641  642  643  644  645
 646  647  648  649  650  651  652  653  654  655  656  657  658  659  660
 661  662  663  664  665  666  667  668  669  670  671  672  673  674  675
 676  677  678  679  680  681  682  683  684  685  686  687  688  689  690
 691  692  693  694  695  696  697  698  699  700  701  702  703  704  705
 706  707  708  709  710  711  712  713  714  715  716  717  718  719  720
 721  722  723  724  725  726  727  728  729  730  731  732  733  734  735
 736  737  738  739  740  741  742  743  744  745  746  747  748  749  750
 751  752  753  754  755  756  757  758  759  760  761  762  763  764  765
 766  767  768  769  770  771  772  773  774  775  776  777  778  779  780
 781  782  783  784  785  786  787  788  789  790  791  792  793  794  795
 796  797  798  799  800  801  802  803  804  805  806  807  808  809  810
 811  812  813  814  815  816  817  818  819  820  821  822  823  824  825
 826  827  828  829  830  831  832  833  834  835  836  837  838  839  840
 841  842  843  844  845  846  847  848  849  850  851  852  853  854  855
 856  857  858  859  860  861  862  863  864  865  866  867  868  869  870
 871  872  873  874  875  876  877  878  879  880  881  882  883  884  885
 886  887  888  889  890  891  892  893  894  895  896  897  898  899  900
 901  902  903  904  905  906  907  908  909  910  911  912  913  914  915
 916  917  918  919  920  921  922  923  924  925  926  927  928  929  930
 931  932  933  934  935  936  937  938  939  940  941  942  943  944  945
 946  947  948  949  950  951  952  953  954  955  956  957  958  959  960
 961  962  963  964  965  966  967  968  969  970  971  972  973  974  975
 976  977  978  979  980  981  982  983  984  985  986  987  988  989  990
 991  992  993  994  995  996  997  998  999 1000 1001 1002 1003 1004 1005
1006 1007 1008 1009 1010 1011 1012 1013 1014 1015 1016 1017 1018 1019 1020
1021 1022 1023 1024 1025 1026 1027 1028 1029 1030 1031 1032 1033 1034 1035
1036 1037 1038 1039 1040 1041 1042 1043 1044 1045 1046 1047 1048 1049 1050
1051 1052 1053 1054 1055 1056 1057 1058 1059 1060 1061 1062 1063 1064 1065
1066 1067 1068 1069 1070 1071 1072 1073 1074 1075 1076 1077 1078 1079 1080
1081 1082 1083 1084 1085 1086 1087 1088 1089 1090 1091 1092 1093 1094 1095
1096 1097 1098 1099 1100 1101 1102 1103 1104 1105 1106 1107 1108 1109 1110
1111 1112 1113 1114 1115 1116 1117 1118 1119 1120 1121 1122 1123 1124 1125
1126 1127 1128 1129 1130 1131 1132 1133 1134 1135 1136 1137 1138 1139 1140
1141 1142 1143 1144 1145 1146 1147 1148 1149 1150 1151 1152 1153 1154 1155
1156 1157 1158 1159 1160 1161 1162 1163 1164 1165 1166 1167 1168 1169 1170
1171 1172 1173 1174 1175 1176 1177 1178 1179 1180 1181 1182 1183 1184 1185
1186 1187 1188 1189 1190 1191 1192 1193 1194 1195 1196 1197 1198 1199 1200
1201 1202 1203 1204 1205 1206 1207 1208 1209 1210 1211 1212 1213 1214 1215
1216 1217 1218 1219 1220 1221 1222 1223 1224 1225 1226 1227 1228 1229 1230
1231 1232 1233 1234 1235 1236 1237 1238 1239 1240 1241 1242 1243 1244 1245
1246 1247 1248 1249 1250 1251 1252 1253 1254 1255 1256 1257 1258 1259 1260
1261 1262 1263 1264 1265 1266 1267 1268 1269 1270 1271 1272 1273 1274 1275
1276 1277 1278 1279 1280 1281 1282 1283 1284 1285 1286 1287 1288 1289 1290
1291 1292 1293 1294 1295 1296 1297 1298 1299 1300 1301 1302 1303 1304 1305
1306 1307 1308 1309 1310 1311 1312 1313 1314 1315 1316 1317 1318 1319 1320
1321 1322 1323 1324 1325 1326 1327 1328 1329 1330 1331 1332 1333 1334 1335
1336 1337 1338 1339 1340 1341 1342 1343 1344 1345 1346 1347 1348 1349 1350
1351 1352 1353 1354 1355 1356 1357 1358 1359 1360 1361 1362 1363 1364 1365
1366 1367 1368 1369 1370 1371 1372 1373 1374 1375 1376 1377 1378 1379 1380
1381 1382 1383 1384 1385 1386 1387 1388 1389 1390 1391 1392 1393 1394 1395
1396 1397 1398 1399 1400 1401 1402 1403 1404 1405 1406 1407 1408 1409 1410
1411 1412 1413 1414 1415 1416 1417 1418 1419 1420 1421 1422 1423 1424 1425
1426 1427 1428 1429 1430 1431 1432 1433 1434 1435 1436 1437 1438 1439 1440
1441 1442 1443 1444 1445 1446 1447 1448 1449 1450 1451 1452 1453 1454 1455
1456 1457 1458 1459 1460 1461 1462 1463 1464 1465 1466 1467 1468 1469 1470
1471 1472 1473 1474 1475 1476 1477 1478 1479 1480 1481 1482 1483 1484 1485
1486 1487 1488 1489 1490 1491 1492 1493 1494 1495 1496 1497 1498 1499 1500
1501 1502 1503 1504 1505 1506 1507 1508 1509 1510 1511 1512 1513 1514 1515
1516 1517 1518 1519 1520 1521 1522 1523 1524 1525 1526 1527 1528 1529 1530
1531 1532 1533 1534 1535 1536 1537 1538 1539 1540 1541 1542 1543 1544 1545
1546 1547 1548 1549 1550 1551 1552 1553 1554 1555 1556 1557 1558 1559 1560
1561 1562 1563 1564 1565 1566 1567 1568 1569 1570 1571 1572 1573 1574 1575
1576 1577 1578 1579 1580 1581 1582 1583 1584 1585 1586 1587 1588 1589 1590
1591 1592 1593 1594 1595 1596 1597 1598 1599 1600 1601 1602 1603 1604 1605
1606 1607 1608 1609 1610 1611 1612 1613 1614 1615 1616 1617 1618 1619 1620
1621 1622 1623 1624 1625 1626 1627 1628 1629 1630 1631 1632 1633 1634 1635
1636 1637 1638 1639 1640 1641 1642 1643 1644 1645 1646 1647 1648 1649 1650
1651 1652 1653 1654 1655 1656 1657 1658 1659 1660 1661 1662 1663 1664 1665
1666 1667 1668 1669 1670 1671 1672 1673 1674 1675 1676 1677 1678 1679 1680
1681 1682 1683 1684 1685 1686 1687 1688 1689 1690 1691 1692 1693 1694 1695
1696 1697 1698 1699 1700 1701 1702 1703 1704 1705 1706 1707 1708 1709 1710
1711 1712 1713 1714 1715 1716 1717 1718 1719 1720 1721 1722 1723 1724 1725
1726 1727 1728 1729 1730 1731 1732 1733 1734 1735 1736 1737 1738 1739 1740
1741 1742 1743 1744 1745 1746 1747 1748 1749 1750 1751 1752 1753 1754 1755
1756 1757 1758 1759 1760 1761 1762 1763 1764 1765 1766 1767 1768 1769 1770
1771 1772 1773 1774 1775 1776 1777 1778 1779 1780 1781 1782 1783 1784 1785
1786 1787 1788 1789 1790 1791 1792 1793 1794 1795 1796 1797 1798 1799 1800
1801 1802 1803 1804 1805 1806 1807 1808 1809 1810 1811 1812 1813 1814 1815
1816 1817 1818 1819 1820 1821 1822 1823 1824 1825 1826 1827 1828 1829 1830
1831 1832 1833 1834 1835 1836 1837 1838 1839 1840 1841 1842 1843 1844 1845
1846 1847 1848 1849 1850 1851 1852 1853 1854 1855 1856 1857 1858 1859 1860
1861 1862 1863 1864 1865 1866 1867 1868 1869 1870 1871 1872 1873 1874 1875
1876 1877 1878 1879 1880 1881 1882 1883 1884 1885 1886 1887 1888 1889 1890
1891 1892 1893 1894 1895 1896 1897 1898 1899 1900 1901 1902 1903 1904 1905
1906 1907 1908 1909 1910 1911 1912 1913 1914 1915 1916 1917 1918 1919 1920
1921 1922 1923 1924 1925 1926 1927 1928 1929 1930 1931 1932 1933 1934 1935
1936 1937 1938 1939 1940 1941 1942 1943 1944 1945 1946 1947 1948 1949 1950
1951 1952 1953 1954 1955 1956 1957 1958 1959 1960 1961 1962 1963 1964 1965
1966 1967 1968 1969 1970 1971 1972 1973 1974 1975 1976 1977 1978 1979 1980
1981 1982 1983 1984 1985 1986 1987 1988 1989 1990 1991 1992 1993 1994 1995
1996 1997 1998 1999 2000 2001 2002 2003 2004 2005 2006 2007 2008 2009 2010
2011 2012 2013 2014 2015 2016 2017 2018 2019 2020 2021 2022 2023 2024 2025
2026 2027 2028 2029 2030 2031 2032 2033 2034 2035 2036 2037 2038 2039 2040
2041 2042 2043 2044 2045 2046 2047 2048 2049 2050 2051 2052 2053 2054 2055
2056 2057 2058 2059 2060 2061 2062 2063 2064 2065 2066 2067 2068 2069 2070
2071 2072 2073 2074 2075 2076 2077 2078 2079 2080 2081 2082 2083 2084 2085
2086 2087 2088 2089 2090 2091 2092 2093 2094 2095 2096 2097 2098 2099 2100
2101 2102 2103 2104 2105 2106 2107 2108 2109 2110 2111 2112 2113 2114 2115
2116 2117 2118 2119 2120 2121 2122 2123 2124 2125 2126 2127 2128 2129 2130
2131 2132 2133 2134 2135 2136 2137 2138 2139 2140 2141 2142 2143 2144 2145
2146 2147 2148 2149 2150 2151 2152 2153 2154 2155 2156 2157 2158 2159 2160
2161 2162 2163 2164 2165 2166 2167 2168 2169 2170 2171 2172 2173 2174 2175
2176 2177 2178 2179 2180 2181 2182 2183 2184 2185 2186 2187 2188 2189 2190
2191 2192 2193 2194 2195 2196 2197 2198 2199 2200 2201 2202 2203 2204 2205
2206 2207 2208 2209 2210 2211 2212 2213 2214 2215 2216 2217 2218 2219 2220
2221 2222 2223 2224 2225 2226 2227 2228 2229 2230 2231 2232 2233 2234 2235
2236 2237 2238 2239 2240 2241 2242 2243 2244 2245 2246 2247 2248 2249 2250
2251 2252 2253 2254 2255 2256 2257 2258 2259 2260 2261 2262 2263 2264 2265
2266 2267 2268 2269 2270 2271 2272 2273 2274 2275 2276 2277 2278 2279 2280
2281 2282 2283 2284 2285 2286 2287 2288 2289 2290 2291 2292 2293 2294 2295
2296 2297 2298 2299 2300 2301 2302 2303 2304 2305 2306 2307 2308 2309 2310
2311 2312 2313 2314 2315 2316 2317 2318 2319 2320 2321 2322 2323 2324 2325
2326 2327 2328 2329 2330 2331 2332 2333 2334 2335 2336 2337 2338 2339 2340
2341 2342 2343 2344 2345 2346 2347 2348 2349 2350 2351 2352 2353 2354 2355
2356 2357 2358 2359 2360 2361 2362 2363 2364 2365 2366 2367 2368 2369 2370
2371 2372 2373 2374 2375 2376 2377 2378 2379 2380 2381 2382 2383 2384 2385
2386 2387 2388 2389 2390 2391 2392 2393 2394 2395 2396 2397 2398 2399 2400
2401 2402 2403 2404 2405 2406 2407 2408 2409 2410 2411 2412 2413 2414 2415
2416 2417 2418 2419 2420 2421 2422 2423 2424 2425 2426 2427 2428 2429 2430
2431 2432 2433 2434 2435 2436 2437 2438 2439 2440 2441 2442 2443 2444 2445
2446 2447 2448 2449 2450 2451 2452 2453 2454 2455 2456 2457 2458 2459 2460
2461 2462 2463 2464 2465 2466 2467 2468 2469 2470 2471 2472 2473 2474 2475
2476 2477 2478 2479 2480 2481 2482 2483 2484 2485 2486 2487 2488 2489 2490
2491 2492 2493 2494 2495 2496 2497 2498 2499 2500 2501 2502 2503 2504 2505
2506 2507 2508 2509 2510 2511 2512 2513 2514 2515 2516 2517 2518 2519 2520
2521 2522 2523 2524 2525 2526 2527 2528 2529 2530 2531 2532 2533 2534 2535
2536 2537 2538 2539 2540 2541 2542 2543 2544 2545 2546 2547 2548 2549 2550
2551 2552 2553 2554 2555 2556 2557 2558 2559 2560 2561 2562 2563 2564 2565
2566 2567 2568 2569 2570 2571 2572 2573 2574 2575 2576 2577 2578 2579 2580
2581 2582 2583 2584 2585 2586 2587 2588 2589 2590 2591 2592 2593 2594 2595
2596 2597 2598 2599 2600 2601 2602 2603 2604 2605 2606 2607 2608 2609 2610
2611 2612 2613 2614 2615 2616 2617 2618 2619 2620 2621 2622 2623 2624 2625
2626 2627 2628 2629 2630 2631 2632 2633 2634 2635 2636 2637 2638 2639 2640
2641 2642 2643 2644 2645 2646 2647 2648 2649 2650 2651 2652 2653 2654 2655
2656 2657 2658 2659 2660 2661 2662 2663 2664 2665 2666 2667 2668 2669 2670
2671 2672 2673 2674 2675 2676 2677 2678 2679 2680 2681 2682 2683 2684 2685
2686 2687 2688 2689 2690 2691 2692 2693 2694 2695 2696 2697 2698 2699 2700
2701 2702 2703 2704 2705 2706 2707 2708 2709 2710 2711 2712 2713 2714 2715
2716 2717 2718 2719 2720 2721 2722 2723 2724 2725 2726 2727 2728 2729 2730
2731 2732 2733 2734 2735 2736 2737 2738 2739 2740 2741 2742 2743 2744 2745
2746 2747 2748 2749 2750 2751 2752 2753 2754 2755 2756 2757 2758 2759 2760
2761 2762 2763 2764 2765 2766 2767 2768 2769 2770 2771 2772 2773 2774 2775
2776 2777 2778 2779 2780 2781 2782 2783 2784 2785 2786 2787 2788 2789 2790
2791 2792 2793 2794 2795 2796 2797 2798 2799 2800 2801 2802 2803 2804 2805
2806 2807 2808 2809 2810 2811 2812 2813 2814 2815 2816 2817 2818 2819 2820
2821 2822 2823 2824 2825 2826 2827 2828 2829 2830 2831 2832 2833 2834 2835
2836 2837 2838 2839 2840 2841 2842 2843 2844 2845 2846 2847 2848 2849 2850
2851 2852 2853 2854 2855 2856 2857 2858 2859 2860 2861 2862 2863 2864 2865
2866 2867 2868 2869 2870 2871 2872 2873 2874 2875 2876 2877 2878 2879 2880
2881 2882 2883 2884 2885 2886 2887 2888 2889 2890 2891 2892 2893 2894 2895
2896 2897 2898 2899 2900 2901 2902 2903 2904 2905 2906 2907 2908 2909 2910
2911 2912 2913 2914 2915 2916 2917 2918 2919 2920 2921 2922 2923 2924 2925
2926 2927 2928 2929 2930 2931 2932 2933 2934 2935 2936 2937 2938 2939 2940
2941 2942 2943 2944 2945 2946 2947 2948 2949 2950 2951 2952 2953 2954 2955
2956 2957 2958 2959 2960 2961 2962 2963 2964 2965 2966 2967 2968 2969 2970
2971 2972 2973 2974 2975 2976 2977 2978 2979 2980 2981 2982 2983 2984 2985
2986 2987 2988 2989 2990 2991 2992 2993 2994 2995 2996 2997 2998 2999 3000
3001 3002 3003 3004 3005 3006 3007 3008 3009 3010 3011 3012 3013 3014 3015
3016 3017 3018 3019 3020 3021 3022 3023 3024 3025 3026 3027 3028 3029 3030
3031 3032 3033 3034 3035 3036 3037 3038 3039 3040 3041 3042 3043 3044 3045
3046 3047 3048 3049 3050 3051 3052 3053 3054 3055 3056 3057 3058 3059 3060
3061 3062 3063 3064 3065 3066 3067 3068 3069 3070 3071 3072 3073 3074 3075
3076 3077 3078 3079 3080 3081 3082 3083 3084 3085 3086 3087 3088 3089 3090
3091 3092 3093 3094 3095 3096 3097 3098 3099 3100 3101 3102 3103 3104 3105
3106 3107 3108 3109 3110 3111 3112 3113 3114 3115 3116 3117 3118 3119 3120
3121 3122 3123 3124 3125 3126 3127 3128 3129 3130 3131 3132 3133 3134 3135
3136 3137 3138 3139 3140 3141 3142 3143 3144 3145 3146 3147 3148 3149 3150
3151 3152 3153 3154 3155 3156 3157 3158 3159 3160 3161 3162 3163 3164 3165
3166 3167 3168 3169 3170 3171 3172 3173 3174 3175 3176 3177 3178 3179 3180
3181 3182 3183 3184 3185 3186 3187 3188 3189 3190 3191 3192 3193 3194 3195
3196 3197 3198 3199 3200 3201 3202 3203 3204 3205 3206 3207 3208 3209 3210
3211 3212 3213 3214 3215 3216 3217 3218 3219 3220 3221 3222 3223 3224 3225
3226 3227 3228 3229 3230 3231 3232 3233 3234 3235 3236 3237 3238 3239 3240
3241 3242 3243 3244 3245 3246 3247 3248 3249 3250 3251 3252 3253 3254 3255
3256 3257 3258 3259 3260 3261 3262 3263 3264 3265 3266 3267 3268 3269 3270
3271 3272 3273 3274 3275 3276 3277 3278 3279 3280 3281 3282 3283 3284 3285
3286 3287 3288 3289 3290 3291 3292 3293 3294 3295 3296 3297 3298 3299 3300
3301 3302 3303 3304 3305 3306 3307 3308 3309 3310 3311 3312 3313 3314 3315
3316 3317 3318 3319 3320 3321 3322 3323 3324 3325 3326 3327 3328 3329 3330
3331 3332 3333 3334 3335 3336 3337 3338 3339 3340 3341 3342 3343 3344 3345
3346 3347 3348 3349 3350 3351 3352 3353 3354 3355 3356 3357 3358 3359 3360
3361 3362 3363 3364 3365 3366 3367 3368 3369 3370 3371 3372 3373 3374 3375
3376 3377 3378 3379 3380 3381 3382 3383 3384 3385 3386 3387 3388 3389 3390
3391 3392 3393 3394 3395 3396 3397 3398 3399 3400 3401 3402 3403 3404 3405
3406 3407 3408 3409 3410 3411 3412 3413 3414 3415 3416 3417 3418 3419 3420
3421 3422 3423 3424 3425 3426 3427 3428 3429 3430 3431 3432 3433 3434 3435
3436 3437 3438 3439 3440 3441 3442 3443 3444 3445 3446 3447 3448 3449 3450
3451 3452 3453 3454 3455 3456 3457 3458 3459 3460 3461 3462 3463 3464 3465
3466 3467 3468 3469 3470 3471 3472 3473 3474 3475 3476 3477 3478 3479 3480
3481 3482 3483 3484 3485 3486 3487 3488 3489 3490 3491 3492 3493 3494 3495
3496 3497 3498 3499 3500 3501 3502 3503 3504 3505 3506 3507 3508 3509 3510
3511 3512 3513 3514 3515 3516 3517 3518 3519 3520 3521 3522 3523 3524 3525
3526 3527 3528 3529 3530 3531 3532 3533 3534 3535 3536 3537 3538 3539 3540
3541 3542 3543 3544 3545 3546 3547 3548 3549 3550 3551 3552 3553 3554 3555
3556 3557 3558 3559 3560 3561 3562 3563 3564 3565 3566 3567 3568 3569 3570
3571 3572 3573 3574 3575 3576 3577 3578 3579 3580 3581 3582 3583 3584 3585
3586 3587 3588 3589 3590 3591 3592 3593 3594 3595 3596 3597 3598 3599 3600
3601 3602 3603 3604 3605 3606 3607 3608 3609 3610 3611 3612 3613 3614 3615
3616 3617 3618 3619 3620 3621 3622 3623 3624 3625 3626 3627 3628 3629 3630
3631 3632 3633 3634 3635 3636 3637 3638 3639 3640 3641 3642 3643 3644 3645
3646 3647 3648 3649 3650 3651 3652 3653 3654 3655 3656 3657 3658 3659 3660
3661 3662 3663 3664 3665 3666 3667 3668 3669 3670 3671 3672 3673 3674 3675
3676 3677 3678 3679 3680 3681 3682 3683 3684 3685 3686 3687 3688 3689 3690
3691 3692 3693 3694 3695 3696 3697 3698 3699 3700 3701 3702 3703 3704 3705
3706 3707 3708 3709 3710 3711 3712 3713 3714 3715 3716 3717 3718 3719 3720
3721 3722 3723 3724 3725 3726 3727 3728 3729 3730 3731 3732 3733 3734 3735
3736 3737 3738 3739 3740 3741 3742 3743 3744 3745 3746 3747 3748 3749 3750
3751 3752 3753 3754 3755 3756 3757 3758 3759 3760 3761 3762 3763 3764 3765
3766 3767 3768 3769 3770 3771 3772 3773 3774 3775 3776 3777 3778 3779 3780
3781 3782 3783 3784 3785 3786 3787 3788 3789 3790 3791 3792 3793 3794 3795
3796 3797 3798 3799 3800 3801 3802 3803 3804 3805 3806 3807 3808 3809 3810
3811 3812 3813 3814 3815 3816 3817 3818 3819 3820 3821 3822 3823 3824 3825
3826 3827 3828 3829 3830 3831 3832 3833 3834 3835 3836 3837 3838 3839 3840
3841 3842 3843 3844 3845 3846 3847 3848 3849 3850 3851 3852 3853 3854 3855
3856 3857 3858 3859 3860 3861 3862 3863 3864 3865 3866 3867 3868 3869 3870
3871 3872 3873 3874 3875 3876 3877 3878 3879 3880 3881 3882 3883 3884 3885
3886 3887 3888 3889 3890 3891 3892 3893 3894 3895 3896 3897 3898 3899 3900
3901 3902 3903 3904 3905 3906 3907 3908 3909 3910 3911 3912 3913 3914 3915
3916 3917 3918 3919 3920 3921 3922 3923 3924 3925 3926 3927 3928 3929 3930
3931 3932 3933 3934 3935 3936 3937 3938 3939 3940 3941 3942 3943 3944 3945
3946 3947 3948 3949 3950 3951 3952 3953 3954 3955 3956 3957 3958 3959 3960
3961 3962 3963 3964 3965 3966 3967 3968 3969 3970 3971 3972 3973 3974 3975
3976 3977 3978 3979 3980 3981 3982 3983 3984 3985 3986 3987 3988 3989 3990
3991 3992 3993 3994 3995 3996 3997 3998 3999 4000 4001 4002 4003 4004 4005
4006 4007 4008 4009 4010 4011 4012 4013 4014 4015 4016 4017 4018 4019 4020
4021 4022 4023 4024 4025 4026 4027 4028 4029 4030 4031 4032 4033 4034 4035
4036 4037 4038 4039 4040 4041 4042 4043 4044 4045 4046 4047 4048 4049 4050
4051 4052 4053 4054 4055 4056 4057 4058 4059 4060 4061 4062 4063 4064 4065
4066 4067 4068 4069 4070 4071 4072 4073 4074 4075 4076 4077 4078 4079 4080
4081 4082 4083 4084 4085 4086 4087 4088 4089 4090 4091 4092 4093 4094 4095
4096 4097 4098 4099 4100 4101 4102 4103 4104 4105 4106 4107 4108 4109 4110
4111 4112 4113 4114 4115 4116 4117 4118 4119 4120 4121 4122 4123 4124 4125
4126 4127 4128 4129 4130 4131 4132 4133 4134 4135 4136 4137 4138 4139 4140
4141 4142 4143 4144 4145 4146 4147 4148 4149 4150 4151 4152 4153 4154 4155
4156 4157 4158 4159 4160 4161 4162 4163 4164 4165 4166 4167 4168 4169 4170
4171 4172 4173 4174 4175 4176 4177 4178 4179 4180 4181 4182 4183 4184 4185
4186 4187 4188 4189 4190 4191 4192 4193 4194 4195 4196 4197 4198 4199 4200
4201 4202 4203 4204 4205 4206 4207 4208 4209 4210 4211 4212 4213 4214 4215
4216 4217 4218 4219 4220 4221 4222 4223 4224 4225 4226 4227 4228 4229 4230
4231 4232 4233 4234 4235 4236 4237 4238 4239 4240 4241 4242 4243 4244 4245
4246 4247 4248 4249 4250 4251 4252 4253 4254 4255 4256 4257 4258 4259 4260
4261 4262 4263 4264 4265 4266 4267 4268 4269 4270 4271 4272 4273 4274 4275
4276 4277 4278 4279 4280 4281 4282 4283 4284 4285 4286 4287 4288 4289 4290
4291 4292 4293 4294 4295 4296 4297 4298 4299 4300 4301 4302 4303 4304 4305
4306 4307 4308 4309 4310 4311 4312 4313 4314 4315 4316 4317 4318 4319 4320
4321 4322 4323 4324 4325 4326 4327 4328 4329 4330 4331 4332 4333 4334 4335
4336 4337 4338 4339 4340 4341 4342 4343 4344 4345 4346 4347 4348 4349 4350
4351 4352 4353 4354 4355 4356 4357 4358 4359 4360 4361 4362 4363 4364 4365
4366 4367 4368 4369 4370 4371 4372 4373 4374 4375 4376 4377 4378 4379 4380
4381 4382 4383 4384 4385 4386 4387 4388 4389 4390 4391 4392 4393 4394 4395
4396 4397 4398 4399 4400 4401 4402 4403 4404 4405 4406 4407 4408 4409 4410
4411 4412 4413 4414 4415 4416 4417 4418 4419 4420 4421 4422 4423 4424 4425
4426 4427 4428 4429 4430 4431 4432 4433 4434 4435 4436 4437 4438 4439 4440
4441 4442 4443 4444 4445 4446 4447 4448 4449 4450 4451 4452 4453 4454 4455
4456 4457 4458 4459 4460 4461 4462 4463 4464 4465 4466 4467 4468 4469 4470
4471 4472 4473 4474 4475 4476 4477 4478 4479 4480 4481 4482 4483 4484 4485
4486 4487 4488 4489 4490 4491 4492 4493 4494 4495 4496 4497 4498 4499 4500
4501 4502 4503 4504 4505 4506 4507 4508 4509 4510 4511 4512 4513 4514 4515
4516 4517 4518 4519 4520 4521 4522 4523 4524 4525 4526 4527 4528 4529 4530
4531 4532 4533 4534 4535 4536 4537 4538 4539 4540 4541 4542 4543 4544 4545
4546 4547 4548 4549 4550 4551 4552 4553 4554 4555 4556 4557 4558 4559 4560
4561 4562 4563 4564 4565 4566 4567 4568 4569 4570 4571 4572 4573 4574 4575
4576 4577 4578 4579 4580 4581 4582 4583 4584 4585 4586 4587 4588 4589 4590
4591 4592 4593 4594 4595 4596 4597 4598 4599 4600 4601 4602 4603 4604 4605
4606 4607 4608 4609 4610 4611 4612 4613 4614 4615 4616 4617 4618 4619 4620
4621 4622 4623 4624 4625 4626 4627 4628 4629 4630 4631 4632 4633 4634 4635
4636 4637 4638 4639 4640 4641 4642 4643 4644 4645 4646 4647 4648 4649 4650
4651 4652 4653 4654 4655 4656 4657 4658 4659 4660 4661 4662 4663 4664 4665
4666 4667 4668 4669 4670 4671 4672 4673 4674 4675 4676 4677 4678 4679 4680
4681 4682 4683 4684 4685 4686 4687 4688 4689 4690 4691 4692 4693 4694 4695
4696 4697 4698 4699 4700 4701 4702 4703 4704 4705 4706 4707 4708 4709 4710
4711 4712 4713 4714 4715 4716 4717 4718 4719 4720 4721 4722 4723 4724 4725
4726 4727 4728 4729 4730 4731 4732 4733 4734 4735 4736 4737 4738 4739 4740
4741 4742 4743 4744 4745 4746 4747 4748 4749 4750 4751 4752
[ Other ]
   1    2    3    4    5    6    7    8    9   10   11   12   13   14   15
  16   17   18   19   20   21   22   23   24   25   26   27   28   29   30
  31   32   33   34   35   36   37   38   39   40   41   42   43   44   45
  46   47   48   49   50   51   52   53   54   55   56   57   58   59
[ LIGAND ]
   1    2    3    4    5    6    7    8    9   10   11   12   13   14   15
  16   17   18   19   20   21   22   23   24   25   26   27   28   29   30
  31   32   33   34   35   36   37   38   39   40   41   42   43   44   45
  46   47   48   49   50   51   52   53   54   55   56   57   58   59
[ Protein ]
  60   61   62   63   64   65   66   67   68   69   70   71   72   73   74
  75   76   77   78   79   80   81   82   83   84   85   86   87   88   89
  90   91   92   93   94   95   96   97   98   99  100  101  102  103  104
 105  106  107  108  109  110  111  112  113  114  115  116  117  118  119
 120  121  122  123  124  125  126  127  128  129  130  131  132  133  134
 135  136  137  138  139  140  141  142  143  144  145  146  147  148  149
 150  151  152  153  154  155  156  157  158  159  160  161  162  163  164
 165  166  167  168  169  170  171  172  173  174  175  176  177  178  179
 180  181  182  183  184  185  186  187  188  189  190  191  192  193  194
 195  196  197  198  199  200  201  202  203  204  205  206  207  208  209
 210  211  212  213  214  215  216  217  218  219  220  221  222  223  224
 225  226  227  228  229  230  231  232  233  234  235  236  237  238  239
 240  241  242  243  244  245  246  247  248  249  250  251  252  253  254
 255  256  257  258  259  260  261  262  263  264  265  266  267  268  269
 270  271  272  273  274  275  276  277  278  279  280  281  282  283  284
 285  286  287  288  289  290  291  292  293  294  295  296  297  298  299
 300  301  302  303  304  305  306  307  308  309  310  311  312  313  314
 315  316  317  318  319  320  321  322  323  324  325  326  327  328  329
 330  331  332  333  334  335  336  337  338  339  340  341  342  343  344
 345  346  347  348  349  350  351  352  353  354  355  356  357  358  359
 360  361  362  363  364  365  366  367  368  369  370  371  372  373  374
 375  376  377  378  379  380  381  382  383  384  385  386  387  388  389
 390  391  392  393  394  395  396  397  398  399  400  401  402  403  404
 405  406  407  408  409  410  411  412  413  414  415  416  417  418  419
 420  421  422  423  424  425  426  427  428  429  430  431  432  433  434
 435  436  437  438  439  440  441  442  443  444  445  446  447  448  449
 450  451  452  453  454  455  456  457  458  459  460  461  462  463  464
 465  466  467  468  469  470  471  472  473  474  475  476  477  478  479
 480  481  482  483  484  485  486  487  488  489  490  491  492  493  494
 495  496  497  498  499  500  501  502  503  504  505  506  507  508  509
 510  511  512  513  514  515  516  517  518  519  520  521  522  523  524
 525  526  527  528  529  530  531  532  533  534  535  536  537  538  539
 540  541  542  543  544  545  546  547  548  549  550  551  552  553  554
 555  556  557  558  559  560  561  562  563  564  565  566  567  568  569
 570  571  572  573  574  575  576  577  578  579  580  581  582  583  584
 585  586  587  588  589  590  591  592  593  594  595  596  597  598  599
 600  601  602  603  604  605  606  607  608  609  610  611  612  613  614
 615  616  617  618  619  620  621  622  623  624  625  626  627  628  629
 630  631  632  633  634  635  636  637  638  639  640  641  642  643  644
 645  646  647  648  649  650  651  652  653  654  655  656  657  658  659
 660  661  662  663  664  665  666  667  668  669  670  671  672  673  674
 675  676  677  678  679  680  681  682  683  684  685  686  687  688  689
 690  691  692  693  694  695  696  697  698  699  700  701  702  703  704
 705  706  707  708  709  710  711  712  713  714  715  716  717  718  719
 720  721  722  723  724  725  726  727  728  729  730  731  732  733  734
 735  736  737  738  739  740  741  742  743  744  745  746  747  748  749
 750  751  752  753  754  755  756  757  758  759  760  761  762  763  764
 765  766  767  768  769  770  771  772  773  774  775  776  777  778  779
 780  781  782  783  784  785  786  787  788  789  790  791  792  793  794
 795  796  797  798  799  800  801  802  803  804  805  806  807  808  809
 810  811  812  813  814  815  816  817  818  819  820  821  822  823  824
 825  826  827  828  829  830  831  832  833  834  835  836  837  838  839
 840  841  842  843  844  845  846  847  848  849  850  851  852  853  854
 855  856  857  858  859  860  861  862  863  864  865  866  867  868  869
 870  871  872  873  874  875  876  877  878  879  880  881  882  883  884
 885  886  887  888  889  890  891  892  893  894  895  896  897  898  899
 900  901  902  903  904  905  906  907  908  909  910  911  912  913  914
 915  916  917  918  919  920  921  922  923  924  925  926  927  928  929
 930  931  932  933  934  935  936  937  938  939  940  941  942  943  944
 945  946  947  948  949  950  951  952  953  954  955  956  957  958  959
 960  961  962  963  964  965  966  967  968  969  970  971  972  973  974
 975  976  977  978  979  980  981  982  983  984  985  986  987  988  989
 990  991  992  993  994  995  996  997  998  999 1000 1001 1002 1003 1004
1005 1006 1007 1008 1009 1010 1011 1012 1013 1014 1015 1016 1017 1018 1019
1020 1021 1022 1023 1024 1025 1026 1027 1028 1029 1030 1031 1032 1033 1034
1035 1036 1037 1038 1039 1040 1041 1042 1043 1044 1045 1046 1047 1048 1049
1050 1051 1052 1053 1054 1055 1056 1057 1058 1059 1060 1061 1062 1063 1064
1065 1066 1067 1068 1069 1070 1071 1072 1073 1074 1075 1076 1077 1078 1079
1080 1081 1082 1083 1084 1085 1086 1087 1088 1089 1090 1091 1092 1093 1094
1095 1096 1097 1098 1099 1100 1101 1102 1103 1104 1105 1106 1107 1108 1109
1110 1111 1112 1113 1114 1115 1116 1117 1118 1119 1120 1121 1122 1123 1124
1125 1126 1127 1128 1129 1130 1131 1132 1133 1134 1135 1136 1137 1138 1139
1140 1141 1142 1143 1144 1145 1146 1147 1148 1149 1150 1151 1152 1153 1154
1155 1156 1157 1158 1159 1160 1161 1162 1163 1164 1165 1166 1167 1168 1169
1170 1171 1172 1173 1174 1175 1176 1177 1178 1179 1180 1181 1182 1183 1184
1185 1186 1187 1188 1189 1190 1191 1192 1193 1194 1195 1196 1197 1198 1199
1200 1201 1202 1203 1204 1205 1206 1207 1208 1209 1210 1211 1212 1213 1214
1215 1216 1217 1218 1219 1220 1221 1222 1223 1224 1225 1226 1227 1228 1229
1230 1231 1232 1233 1234 1235 1236 1237 1238 1239 1240 1241 1242 1243 1244
1245 1246 1247 1248 1249 1250 1251 1252 1253 1254 1255 1256 1257 1258 1259
1260 1261 1262 1263 1264 1265 1266 1267 1268 1269 1270 1271 1272 1273 1274
1275 1276 1277 1278 1279 1280 1281 1282 1283 1284 1285 1286 1287 1288 1289
1290 1291 1292 1293 1294 1295 1296 1297 1298 1299 1300 1301 1302 1303 1304
1305 1306 1307 1308 1309 1310 1311 1312 1313 1314 1315 1316 1317 1318 1319
1320 1321 1322 1323 1324 1325 1326 1327 1328 1329 1330 1331 1332 1333 1334
1335 1336 1337 1338 1339 1340 1341 1342 1343 1344 1345 1346 1347 1348 1349
1350 1351 1352 1353 1354 1355 1356 1357 1358 1359 1360 1361 1362 1363 1364
1365 1366 1367 1368 1369 1370 1371 1372 1373 1374 1375 1376 1377 1378 1379
1380 1381 1382 1383 1384 1385 1386 1387 1388 1389 1390 1391 1392 1393 1394
1395 1396 1397 1398 1399 1400 1401 1402 1403 1404 1405 1406 1407 1408 1409
1410 1411 1412 1413 1414 1415 1416 1417 1418 1419 1420 1421 1422 1423 1424
1425 1426 1427 1428 1429 1430 1431 1432 1433 1434 1435 1436 1437 1438 1439
1440 1441 1442 1443 1444 1445 1446 1447 1448 1449 1450 1451 1452 1453 1454
1455 1456 1457 1458 1459 1460 1461 1462 1463 1464 1465 1466 1467 1468 1469
1470 1471 1472 1473 1474 1475 1476 1477 1478 1479 1480 1481 1482 1483 1484
1485 1486 1487 1488 1489 1490 1491 1492 1493 1494 1495 1496 1497 1498 1499
1500 1501 1502 1503 1504 1505 1506 1507 1508 1509 1510 1511 1512 1513 1514
1515 1516 1517 1518 1519 1520 1521 1522 1523 1524 1525 1526 1527 1528 1529
1530 1531 1532 1533 1534 1535 1536 1537 1538 1539 1540 1541 1542 1543 1544
1545 1546 1547 1548 1549 1550 1551 1552 1553 1554 1555 1556 1557 1558 1559
1560 1561 1562 1563 1564 1565 1566 1567 1568 1569 1570 1571 1572 1573 1574
1575 1576 1577 1578 1579 1580 1581 1582 1583 1584 1585 1586 1587 1588 1589
1590 1591 1592 1593 1594 1595 1596 1597 1598 1599 1600 1601 1602 1603 1604
1605 1606 1607 1608 1609 1610 1611 1612 1613 1614 1615 1616 1617 1618 1619
1620 1621 1622 1623 1624 1625 1626 1627 1628 1629 1630 1631 1632 1633 1634
1635 1636 1637 1638 1639 1640 1641 1642 1643 1644 1645 1646 1647 1648 1649
1650 1651 1652 1653 1654 1655 1656 1657 1658 1659 1660 1661 1662 1663 1664
1665 1666 1667 1668 1669 1670 1671 1672 1673 1674 1675 1676 1677 1678 1679
1680 1681 1682 1683 1684 1685 1686 1687 1688 1689 1690 1691 1692 1693 1694
1695 1696 1697 1698 1699 1700 1701 1702 1703 1704 1705 1706 1707 1708 1709
1710 1711 1712 1713 1714 1715 1716 1717 1718 1719 1720 1721 1722 1723 1724
1725 1726 1727 1728 1729 1730 1731 1732 1733 1734 1735 1736 1737 1738 1739
1740 1741 1742 1743 1744 1745 1746 1747 1748 1749 1750 1751 1752 1753 1754
1755 1756 1757 1758 1759 1760 1761 1762 1763 1764 1765 1766 1767 1768 1769
1770 1771 1772 1773 1774 1775 1776 1777 1778 1779 1780 1781 1782 1783 1784
1785 1786 1787 1788 1789 1790 1791 1792 1793 1794 1795 1796 1797 1798 1799
1800 1801 1802 1803 1804 1805 1806 1807 1808 1809 1810 1811 1812 1813 1814
1815 1816 1817 1818 1819 1820 1821 1822 1823 1824 1825 1826 1827 1828 1829
1830 1831 1832 1833 1834 1835 1836 1837 1838 1839 1840 1841 1842 1843 1844
1845 1846 1847 1848 1849 1850 1851 1852 1853 1854 1855 1856 1857 1858 1859
1860 1861 1862 1863 1864 1865 1866 1867 1868 1869 1870 1871 1872 1873 1874
1875 1876 1877 1878 1879 1880 1881 1882 1883 1884 1885 1886 1887 1888 1889
1890 1891 1892 1893 1894 1895 1896 1897 1898 1899 1900 1901 1902 1903 1904
1905 1906 1907 1908 1909 1910 1911 1912 1913 1914 1915 1916 1917 1918 1919
1920 1921 1922 1923 1924 1925 1926 1927 1928 1929 1930 1931 1932 1933 1934
1935 1936 1937 1938 1939 1940 1941 1942 1943 1944 1945 1946 1947 1948 1949
1950 1951 1952 1953 1954 1955 1956 1957 1958 1959 1960 1961 1962 1963 1964
1965 1966 1967 1968 1969 1970 1971 1972 1973 1974 1975 1976 1977 1978 1979
1980 1981 1982 1983 1984 1985 1986 1987 1988 1989 1990 1991 1992 1993 1994
1995 1996 1997 1998 1999 2000 2001 2002 2003 2004 2005 2006 2007 2008 2009
2010 2011 2012 2013 2014 2015 2016 2017 2018 2019 2020 2021 2022 2023 2024
2025 2026 2027 2028 2029 2030 2031 2032 2033 2034 2035 2036 2037 2038 2039
2040 2041 2042 2043 2044 2045 2046 2047 2048 2049 2050 2051 2052 2053 2054
2055 2056 2057 2058 2059 2060 2061 2062 2063 2064 2065 2066 2067 2068 2069
2070 2071 2072 2073 2074 2075 2076 2077 2078 2079 2080 2081 2082 2083 2084
2085 2086 2087 2088 2089 2090 2091 2092 2093 2094 2095 2096 2097 2098 2099
2100 2101 2102 2103 2104 2105 2106 2107 2108 2109 2110 2111 2112 2113 2114
2115 2116 2117 2118 2119 2120 2121 2122 2123 2124 2125 2126 2127 2128 2129
2130 2131 2132 2133 2134 2135 2136 2137 2138 2139 2140 2141 2142 2143 2144
2145 2146 2147 2148 2149 2150 2151 2152 2153 2154 2155 2156 2157 2158 2159
2160 2161 2162 2163 2164 2165 2166 2167 2168 2169 2170 2171 2172 2173 2174
2175 2176 2177 2178 2179 2180 2181 2182 2183 2184 2185 2186 2187 2188 2189
2190 2191 2192 2193 2194 2195 2196 2197 2198 2199 2200 2201 2202 2203 2204
2205 2206 2207 2208 2209 2210 2211 2212 2213 2214 2215 2216 2217 2218 2219
2220 2221 2222 2223 2224 2225 2226 2227 2228 2229 2230 2231 2232 2233 2234
2235 2236 2237 2238 2239 2240 2241 2242 2243 2244 2245 2246 2247 2248 2249
2250 2251 2252 2253 2254 2255 2256 2257 2258 2259 2260 2261 2262 2263 2264
2265 2266 2267 2268 2269 2270 2271 2272 2273 2274 2275 2276 2277 2278 2279
2280 2281 2282 2283 2284 2285 2286 2287 2288 2289 2290 2291 2292 2293 2294
2295 2296 2297 2298 2299 2300 2301 2302 2303 2304 2305 2306 2307 2308 2309
2310 2311 2312 2313 2314 2315 2316 2317 2318 2319 2320 2321 2322 2323 2324
2325 2326 2327 2328 2329 2330 2331 2332 2333 2334 2335 2336 2337 2338 2339
2340 2341 2342 2343 2344 2345 2346 2347 2348 2349 2350 2351 2352 2353 2354
2355 2356 2357 2358 2359 2360 2361 2362 2363 2364 2365 2366 2367 2368 2369
2370 2371 2372 2373 2374 2375 2376 2377 2378 2379 2380 2381 2382 2383 2384
2385 2386 2387 2388 2389 2390 2391 2392 2393 2394 2395 2396 2397 2398 2399
2400 2401 2402 2403 2404 2405 2406 2407 2408 2409 2410 2411 2412 2413 2414
2415 2416 2417 2418 2419 2420 2421 2422 2423 2424 2425 2426 2427 2428 2429
2430 2431 2432 2433 2434 2435 2436 2437 2438 2439 2440 2441 2442 2443 2444
2445 2446 2447 2448 2449 2450 2451 2452 2453 2454 2455 2456 2457 2458 2459
2460 2461 2462 2463 2464 2465 2466 2467 2468 2469 2470 2471 2472 2473 2474
2475 2476 2477 2478 2479 2480 2481 2482 2483 2484 2485 2486 2487 2488 2489
2490 2491 2492 2493 2494 2495 2496 2497 2498 2499 2500 2501 2502 2503 2504
2505 2506 2507 2508 2509 2510 2511 2512 2513 2514 2515 2516 2517 2518 2519
2520 2521 2522 2523 2524 2525 2526 2527 2528 2529 2530 2531 2532 2533 2534
2535 2536 2537 2538 2539 2540 2541 2542 2543 2544 2545 2546 2547 2548 2549
2550 2551 2552 2553 2554 2555 2556 2557 2558 2559 2560 2561 2562 2563 2564
2565 2566 2567 2568 2569 2570 2571 2572 2573 2574 2575 2576 2577 2578 2579
2580 2581 2582 2583 2584 2585 2586 2587 2588 2589 2590 2591 2592 2593 2594
2595 2596 2597 2598 2599 2600 2601 2602 2603 2604 2605 2606 2607 2608 2609
2610 2611 2612 2613 2614 2615 2616 2617 2618 2619 2620 2621 2622 2623 2624
2625 2626 2627 2628 2629 2630 2631 2632 2633 2634 2635 2636 2637 2638 2639
2640 2641 2642 2643 2644 2645 2646 2647 2648 2649 2650 2651 2652 2653 2654
2655 2656 2657 2658 2659 2660 2661 2662 2663 2664 2665 2666 2667 2668 2669
2670 2671 2672 2673 2674 2675 2676 2677 2678 2679 2680 2681 2682 2683 2684
2685 2686 2687 2688 2689 2690 2691 2692 2693 2694 2695 2696 2697 2698 2699
2700 2701 2702 2703 2704 2705 2706 2707 2708 2709 2710 2711 2712 2713 2714
2715 2716 2717 2718 2719 2720 2721 2722 2723 2724 2725 2726 2727 2728 2729
2730 2731 2732 2733 2734 2735 2736 2737 2738 2739 2740 2741 2742 2743 2744
2745 2746 2747 2748 2749 2750 2751 2752 2753 2754 2755 2756 2757 2758 2759
2760 2761 2762 2763 2764 2765 2766 2767 2768 2769 2770 2771 2772 2773 2774
2775 2776 2777 2778 2779 2780 2781 2782 2783 2784 2785 2786 2787 2788 2789
2790 2791 2792 2793 2794 2795 2796 2797 2798 2799 2800 2801 2802 2803 2804
2805 2806 2807 2808 2809 2810 2811 2812 2813 2814 2815 2816 2817 2818 2819
2820 2821 2822 2823 2824 2825 2826 2827 2828 2829 2830 2831 2832 2833 2834
2835 2836 2837 2838 2839 2840 2841 2842 2843 2844 2845 2846 2847 2848 2849
2850 2851 2852 2853 2854 2855 2856 2857 2858 2859 2860 2861 2862 2863 2864
2865 2866 2867 2868 2869 2870 2871 2872 2873 2874 2875 2876 2877 2878 2879
2880 2881 2882 2883 2884 2885 2886 2887 2888 2889 2890 2891 2892 2893 2894
2895 2896 2897 2898 2899 2900 2901 2902 2903 2904 2905 2906 2907 2908 2909
2910 2911 2912 2913 2914 2915 2916 2917 2918 2919 2920 2921 2922 2923 2924
2925 2926 2927 2928 2929 2930 2931 2932 2933 2934 2935 2936 2937 2938 2939
2940 2941 2942 2943 2944 2945 2946 2947 2948 2949 2950 2951 2952 2953 2954
2955 2956 2957 2958 2959 2960 2961 2962 2963 2964 2965 2966 2967 2968 2969
2970 2971 2972 2973 2974 2975 2976 2977 2978 2979 2980 2981 2982 2983 2984
2985 2986 2987 2988 2989 2990 2991 2992 2993 2994 2995 2996 2997 2998 2999
3000 3001 3002 3003 3004 3005 3006 3007 3008 3009 3010 3011 3012 3013 3014
3015 3016 3017 3018 3019 3020 3021 3022 3023 3024 3025 3026 3027 3028 3029
3030 3031 3032 3033 3034 3035 3036 3037 3038 3039 3040 3041 3042 3043 3044
3045 3046 3047 3048 3049 3050 3051 3052 3053 3054 3055 3056 3057 3058 3059
3060 3061 3062 3063 3064 3065 3066 3067 3068 3069 3070 3071 3072 3073 3074
3075 3076 3077 3078 3079 3080 3081 3082 3083 3084 3085 3086 3087 3088 3089
3090 3091 3092 3093 3094 3095 3096 3097 3098 3099 3100 3101 3102 3103 3104
3105 3106 3107 3108 3109 3110 3111 3112 3113 3114 3115 3116 3117 3118 3119
3120 3121 3122 3123 3124 3125 3126 3127 3128 3129 3130 3131 3132 3133 3134
3135 3136 3137 3138 3139 3140 3141 3142 3143 3144 3145 3146 3147 3148 3149
3150 3151 3152 3153 3154 3155 3156 3157 3158 3159 3160 3161 3162 3163 3164
3165 3166 3167 3168 3169 3170 3171 3172 3173 3174 3175 3176 3177 3178 3179
3180 3181 3182 3183 3184 3185 3186 3187 3188 3189 3190 3191 3192 3193 3194
3195 3196 3197 3198 3199 3200 3201 3202 3203 3204 3205 3206 3207 3208 3209
3210 3211 3212 3213 3214 3215 3216 3217 3218 3219 3220 3221 3222 3223 3224
3225 3226 3227 3228 3229 3230 3231 3232 3233 3234 3235 3236 3237 3238 3239
3240 3241 3242 3243 3244 3245 3246 3247 3248 3249 3250 3251 3252 3253 3254
3255 3256 3257 3258 3259 3260 3261 3262 3263 3264 3265 3266 3267 3268 3269
3270 3271 3272 3273 3274 3275 3276 3277 3278 3279 3280 3281 3282 3283 3284
3285 3286 3287 3288 3289 3290 3291 3292 3293 3294 3295 3296 3297 3298 3299
3300 3301 3302 3303 3304 3305 3306 3307 3308 3309 3310 3311 3312 3313 3314
3315 3316 3317 3318 3319 3320 3321 3322 3323 3324 3325 3326 3327 3328 3329
3330 3331 3332 3333 3334 3335 3336 3337 3338 3339 3340 3341 3342 3343 3344
3345 3346 3347 3348 3349 3350 3351 3352 3353 3354 3355 3356 3357 3358 3359
3360 3361 3362 3363 3364 3365 3366 3367 3368 3369 3370 3371 3372 3373 3374
3375 3376 3377 3378 3379 3380 3381 3382 3383 3384 3385 3386 3387 3388 3389
3390 3391 3392 3393 3394 3395 3396 3397 3398 3399 3400 3401 3402 3403 3404
3405 3406 3407 3408 3409 3410 3411 3412 3413 3414 3415 3416 3417 3418 3419
3420 3421 3422 3423 3424 3425 3426 3427 3428 3429 3430 3431 3432 3433 3434
3435 3436 3437 3438 3439 3440 3441 3442 3443 3444 3445 3446 3447 3448 3449
3450 3451 3452 3453 3454 3455 3456 3457 3458 3459 3460 3461 3462 3463 3464
3465 3466 3467 3468 3469 3470 3471 3472 3473 3474 3475 3476 3477 3478 3479
3480 3481 3482 3483 3484 3485 3486 3487 3488 3489 3490 3491 3492 3493 3494
3495 3496 3497 3498 3499 3500 3501 3502 3503 3504 3505 3506 3507 3508 3509
3510 3511 3512 3513 3514 3515 3516 3517 3518 3519 3520 3521 3522 3523 3524
3525 3526 3527 3528 3529 3530 3531 3532 3533 3534 3535 3536 3537 3538 3539
3540 3541 3542 3543 3544 3545 3546 3547 3548 3549 3550 3551 3552 3553 3554
3555 3556 3557 3558 3559 3560 3561 3562 3563 3564 3565 3566 3567 3568 3569
3570 3571 3572 3573 3574 3575 3576 3577 3578 3579 3580 3581 3582 3583 3584
3585 3586 3587 3588 3589 3590 3591 3592 3593 3594 3595 3596 3597 3598 3599
3600 3601 3602 3603 3604 3605 3606 3607 3608 3609 3610 3611 3612 3613 3614
3615 3616 3617 3618 3619 3620 3621 3622 3623 3624 3625 3626 3627 3628 3629
3630 3631 3632 3633 3634 3635 3636 3637 3638 3639 3640 3641 3642 3643 3644
3645 3646 3647 3648 3649 3650 3651 3652 3653 3654 3655 3656 3657 3658 3659
3660 3661 3662 3663 3664 3665 3666 3667 3668 3669 3670 3671 3672 3673 3674
3675 3676 3677 3678 3679 3680 3681 3682 3683 3684 3685 3686 3687 3688 3689
3690 3691 3692 3693 3694 3695 3696 3697 3698 3699 3700 3701 3702 3703 3704
3705 3706 3707 3708 3709 3710 3711 3712 3713 3714 3715 3716 3717 3718 3719
3720 3721 3722 3723 3724 3725 3726 3727 3728 3729 3730 3731 3732 3733 3734
3735 3736 3737 3738 3739 3740 3741 3742 3743 3744 3745 3746 3747 3748 3749
3750 3751 3752 3753 3754 3755 3756 3757 3758 3759 3760 3761 3762 3763 3764
3765 3766 3767 3768 3769 3770 3771 3772 3773 3774 3775 3776 3777 3778 3779
3780 3781 3782 3783 3784 3785 3786 3787 3788 3789 3790 3791 3792 3793 3794
3795 3796 3797 3798 3799 3800 3801 3802 3803 3804 3805 3806 3807 3808 3809
3810 3811 3812 3813 3814 3815 3816 3817 3818 3819 3820 3821 3822 3823 3824
3825 3826 3827 3828 3829 3830 3831 3832 3833 3834 3835 3836 3837 3838 3839
3840 3841 3842 3843 3844 3845 3846 3847 3848 3849 3850 3851 3852 3853 3854
3855 3856 3857 3858 3859 3860 3861 3862 3863 3864 3865 3866 3867 3868 3869
3870 3871 3872 3873 3874 3875 3876 3877 3878 3879 3880 3881 3882 3883 3884
3885 3886 3887 3888 3889 3890 3891 3892 3893 3894 3895 3896 3897 3898 3899
3900 3901 3902 3903 3904 3905 3906 3907 3908 3909 3910 3911 3912 3913 3914
3915 3916 3917 3918 3919 3920 3921 3922 3923 3924 3925 3926 3927 3928 3929
3930 3931 3932 3933 3934 3935 3936 3937 3938 3939 3940 3941 3942 3943 3944
3945 3946 3947 3948 3949 3950 3951 3952 3953 3954 3955 3956 3957 3958 3959
3960 3961 3962 3963 3964 3965 3966 3967 3968 3969 3970 3971 3972 3973 3974
3975 3976 3977 3978 3979 3980 3981 3982 3983 3984 3985 3986 3987 3988 3989
3990 3991 3992 3993 3994 3995 3996 3997 3998 3999 4000 4001 4002 4003 4004
4005 4006 4007 4008 4009 4010 4011 4012 4013 4014 4015 4016 4017 4018 4019
4020 4021 4022 4023 4024 4025 4026 4027 4028 4029 4030 4031 4032 4033 4034
4035 4036 4037 4038 4039 4040 4041 4042 4043 4044 4045 4046 4047 4048 4049
4050 4051 4052 4053 4054 4055 4056 4057 4058 4059 4060 4061 4062 4063 4064
4065 4066 4067 4068 4069 4070 4071 4072 4073 4074 4075 4076 4077 4078 4079
4080 4081 4082 4083 4084 4085 4086 4087 4088 4089 4090 4091 4092 4093 4094
4095 4096 4097 4098 4099 4100 4101 4102 4103 4104 4105 4106 4107 4108 4109
4110 4111 4112 4113 4114 4115 4116 4117 4118 4119 4120 4121 4122 4123 4124
4125 4126 4127 4128 4129 4130 4131 4132 4133 4134 4135 4136 4137 4138 4139
4140 4141 4142 4143 4144 4145 4146 4147 4148 4149 4150 4151 4152 4153 4154
4155 4156 4157 4158 4159 4160 4161 4162 4163 4164 4165 4166 4167 4168 4169
4170 4171 4172 4173 4174 4175 4176 4177 4178 4179 4180 4181 4182 4183 4184
4185 4186 4187 4188 4189 4190 4191 4192 4193 4194 4195 4196 4197 4198 4199
4200 4201 4202 4203 4204 4205 4206 4207 4208 4209 4210 4211 4212 4213 4214
4215 4216 4217 4218 4219 4220 4221 4222 4223 4224 4225 4226 4227 4228 4229
4230 4231 4232 4233 4234 4235 4236 4237 4238 4239 4240 4241 4242 4243 4244
4245 4246 4247 4248 4249 4250 4251 4252 4253 4254 4255 4256 4257 4258 4259
4260 4261 4262 4263 4264 4265 4266 4267 4268 4269 4270 4271 4272 4273 4274
4275 4276 4277 4278 4279 4280 4281 4282 4283 4284 4285 4286 4287 4288 4289
4290 4291 4292 4293 4294 4295 4296 4297 4298 4299 4300 4301 4302 4303 4304
4305 4306 4307 4308 4309 4310 4311 4312 4313 4314 4315 4316 4317 4318 4319
4320 4321 4322 4323 4324 4325 4326 4327 4328 4329 4330 4331 4332 4333 4334
4335 4336 4337 4338 4339 4340 4341 4342 4343 4344 4345 4346 4347 4348 4349
4350 4351 4352 4353 4354 4355 4356 4357 4358 4359 4360 4361 4362 4363 4364
4365 4366 4367 4368 4369 4370 4371 4372 4373 4374 4375 4376 4377 4378 4379
4380 4381 4382 4383 4384 4385 4386 4387 4388 4389 4390 4391 4392 4393 4394
4395 4396 4397 4398 4399 4400 4401 4402 4403 4404 4405 4406 4407 4408 4409
4410 4411 4412 4413 4414 4415 4416 4417 4418 4419 4420 4421 4422 4423 4424
4425 4426 4427 4428 4429 4430 4431 4432 4433 4434 4435 4436 4437 4438 4439
4440 4441 4442 4443 4444 4445 4446 4447 4448 4449 4450 4451 4452 4453 4454
4455 4456 4457 4458 4459 4460 4461 4462 4463 4464 4465 4466 4467 4468 4469
4470 4471 4472 4473 4474 4475 4476 4477 4478 4479 4480 4481 4482 4483 4484
4485 4486 4487 4488 4489 4490 4491 4492 4493 4494 4495 4496 4497 4498 4499
4500 4501 4502 4503 4504 4505 4506 4507 4508 4509 4510 4511 4512 4513 4514
4515 4516 4517 4518 4519 4520 4521 4522 4523 4524 4525 4526 4527 4528 4529
4530 4531 4532 4533 4534 4535 4536 4537 4538 4539 4540 4541 4542 4543 4544
4545 4546 4547 4548 4549 4550 4551 4552 4553 4554 4555 4556 4557 4558 4559
4560 4561 4562 4563 4564 4565 4566 4567 4568 4569 4570 4571 4572 4573 4574
4575 4576 4577 4578 4579 4580 4581 4582 4583 4584 4585 4586 4587 4588 4589
4590 4591 4592 4593 4594 4595 4596 4597 4598 4599 4600 4601 4602 4603 4604
4605 4606 4607 4608 4609 4610 4611 4612 4613 4614 4615 4616 4617 4618 4619
4620 4621 4622 4623 4624 4625 4626 4627 4628 4629 4630 4631 4632 4633 4634
4635 4636 4637 4638 4639 4640 4641 4642 4643 4644 4645 4646 4647 4648 4649
4650 4651 4652 4653 4654 4655 4656 4657 4658 4659 4660 4661 4662 4663 4664
4665 4666 4667 4668 4669 4670 4671 4672 4673 4674 4675 4676 4677 4678 4679
4680 4681 4682 4683 4684 4685 4686 4687 4688 4689 4690 4691 4692 4693 4694
4695 4696 4697 4698 4699 4700 4701 4702 4703 4704 4705 4706 4707 4708 4709
4710 4711 4712 4713 4714 4715 4716 4717 4718 4719 4720 4721 4722 4723 4724
4725 4726 4727 4728 4729 4730 4731 4732 4733 4734 4735 4736 4737 4738 4739
4740 4741 4742 4743 4744 4745 4746 4747 4748 4749 4750 4751 4752
[ Protein-H ]
  60   63   66   69   72   74   75   76   78   80   83   86   89   91   92
  95   98   99  100  102  104  107  110  113  116  120  121  122  124  126
 129  132  135  138  142  143  144  146  148  151  154  157  159  160  163
 166  167  168  169  172  175  178  180  181  182  184  186  189  192  193
 194  195  196  197  199  201  204  205  206  207  208  209  211  213  216
 217  219  221  223  225  227  228  229  231  233  236  239  242  245  249
 250  251  253  255  258  259  261  263  265  267  269  270  271  273  276
 277  278  280  282  285  288  291  294  298  299  300  302  304  306  310
 313  317  318  319  321  323  326  328  332  336  337  338  340  343  344
 345  347  349  352  355  356  357  358  359  360  362  365  366  367  369
 371  374  376  377  378  380  382  385  386  388  390  392  394  396  397
 398  400  402  405  407  408  409  411  413  415  419  421  422  423  425
 427  429  433  437  438  439  441  443  445  449  453  454  455  457  459
 462  464  468  472  473  474  476  478  482  483  484  486  488  491  494
 497  499  500  503  506  507  508  510  512  515  518  519  520  521  522
 523  525  527  530  532  536  540  541  542  544  546  550  551  552  554
 556  558  562  564  565  566  568  570  573  575  576  577  579  581  584
 587  590  592  593  596  599  600  601  603  605  608  611  612  613  614
 615  616  618  620  623  624  626  628  629  631  633  635  636  637  639
 641  645  646  647  649  651  653  657  660  664  665  666  668  670  673
 676  679  682  686  687  688  690  692  694  698  701  705  706  707  709
 711  714  716  720  724  725  726  728  730  733  736  737  738  739  740
 741  743  745  748  751  754  757  761  762  763  765  767  770  773  776
 778  779  782  785  786  787  789  791  794  795  796  798  800  802  803
 804  806  808  810  814  817  821  822  823  825  827  829  833  836  840
 841  842  844  846  849  852  855  858  862  863  864  866  868  871  874
 875  876  877  878  879  881  883  886  887  888  891  892  893  895  897
 900  903  906  909  913  914  915  917  919  921  925  929  930  931  932
 935  938  941  943  944  945  947  949  952  953  955  957  958  960  962
 964  965  966  968  970  972  976  980  981  982  984  986  988  992  994
 995  996  998 1000 1003 1006 1009 1011 1012 1015 1018 1019 1020 1022 1024
1027 1030 1031 1032 1033 1034 1035 1037 1039 1042 1045 1048 1050 1051 1054
1057 1058 1059 1061 1063 1066 1067 1068 1069 1070 1071 1073 1075 1077 1081
1085 1086 1087 1089 1091 1094 1097 1098 1102 1103 1104 1106 1108 1111 1113
1114 1115 1117 1119 1122 1125 1128 1130 1131 1134 1137 1138 1139 1141 1143
1146 1148 1152 1156 1157 1158 1160 1162 1165 1166 1167 1168 1169 1170 1172
1174 1177 1178 1179 1181 1183 1185 1186 1187 1188 1191 1194 1197 1199 1200
1201 1203 1205 1208 1209 1211 1213 1215 1217 1219 1220 1221 1223 1225 1228
1229 1231 1233 1235 1237 1239 1240 1241 1243 1245 1247 1251 1255 1256 1257
1259 1261 1264 1267 1270 1273 1277 1278 1279 1281 1283 1286 1288 1292 1296
1297 1298 1300 1302 1305 1306 1308 1310 1311 1313 1315 1317 1318 1319 1321
1323 1326 1327 1329 1331 1333 1335 1337 1338 1339 1341 1343 1345 1349 1351
1352 1353 1355 1357 1360 1361 1363 1365 1367 1369 1371 1372 1373 1375 1377
1380 1383 1384 1385 1388 1389 1390 1392 1394 1397 1398 1399 1400 1401 1402
1404 1406 1409 1410 1411 1412 1413 1414 1416 1418 1421 1424 1425 1426 1427
1428 1429 1431 1433 1436 1439 1442 1445 1449 1450 1451 1453 1455 1458 1460
1464 1468 1469 1470 1472 1474 1477 1478 1480 1482 1483 1485 1487 1489 1490
1491 1493 1495 1498 1499 1501 1503 1505 1507 1509 1510 1511 1513 1516 1517
1518 1520 1522 1525 1527 1531 1535 1536 1537 1539 1541 1544 1546 1547 1548
1550 1552 1555 1556 1558 1560 1561 1563 1565 1567 1568 1569 1571 1573 1577
1578 1579 1581 1583 1586 1589 1592 1595 1599 1600 1601 1603 1605 1608 1609
1610 1613 1614 1615 1617 1620 1621 1622 1624 1626 1629 1632 1633 1634 1635
1636 1637 1639 1641 1644 1646 1650 1654 1655 1656 1658 1660 1663 1665 1669
1673 1674 1675 1677 1679 1682 1685 1688 1691 1695 1696 1697 1699 1701 1704
1705 1707 1709 1710 1712 1714 1716 1717 1718 1720 1722 1724 1728 1731 1735
1736 1737 1739 1741 1744 1747 1750 1752 1753 1756 1759 1760 1761 1763 1765
1768 1771 1774 1777 1781 1782 1783 1785 1787 1789 1793 1796 1800 1801 1802
1804 1807 1808 1809 1811 1813 1816 1818 1819 1820 1822 1824 1827 1828 1830
1832 1834 1836 1838 1839 1840 1842 1844 1847 1848 1849 1850 1851 1852 1854
1856 1859 1862 1863 1864 1865 1866 1867 1869 1871 1873 1877 1879 1880 1881
1883 1885 1888 1890 1891 1892 1894 1896 1898 1902 1904 1905 1906 1908 1910
1913 1916 1919 1921 1922 1925 1928 1929 1930 1932 1934 1937 1938 1940 1942
1944 1946 1948 1949 1950 1952 1954 1957 1958 1960 1962 1963 1965 1967 1969
1970 1971 1973 1975 1977 1981 1983 1984 1985 1987 1989 1993 1994 1995 1997
1999 2002 2005 2006 2007 2008 2009 2010 2012 2014 2016 2020 2023 2027 2028
2029 2031 2033 2035 2039 2043 2044 2045 2047 2049 2052 2054 2055 2056 2058
2060 2064 2065 2066 2068 2070 2073 2075 2079 2083 2084 2085 2087 2089 2092
2095 2096 2097 2098 2099 2100 2102 2104 2107 2108 2110 2112 2113 2115 2117
2119 2120 2121 2123 2125 2128 2130 2134 2138 2139 2140 2142 2144 2147 2148
2149 2151 2153 2155 2156 2157 2159 2162 2163 2164 2166 2168 2171 2174 2177
2180 2184 2185 2186 2188 2191 2192 2193 2195 2197 2199 2203 2206 2210 2211
2212 2214 2216 2218 2222 2225 2229 2230 2231 2233 2235 2238 2239 2240 2242
2244 2246 2247 2248 2250 2252 2255 2258 2261 2263 2264 2267 2270 2271 2272
2274 2276 2279 2280 2281 2282 2283 2284 2286 2288 2291 2293 2297 2301 2302
2303 2305 2307 2310 2313 2316 2319 2323 2324 2325 2326 2329 2332 2335 2337
2338 2339 2341 2343 2346 2349 2350 2351 2352 2353 2354 2356 2358 2361 2362
2363 2366 2367 2368 2370 2372 2374 2378 2381 2385 2386 2387 2389 2391 2394
2396 2400 2404 2405 2406 2408 2410 2413 2415 2419 2423 2424 2425 2427 2429
2432 2433 2434 2437 2438 2439 2441 2443 2446 2449 2450 2451 2452 2453 2454
2456 2458 2461 2462 2463 2464 2465 2466 2468 2470 2473 2476 2477 2481 2482
2483 2485 2487 2490 2491 2493 2495 2496 2498 2499 2500 2502 2504 2506 2510
2513 2517 2518 2519 2521 2523 2526 2529 2530 2531 2534 2535 2536 2538 2540
2542 2546 2549 2553 2554 2555 2557 2559 2561 2565 2567 2568 2569 2571 2573
2576 2577 2578 2579 2580 2581 2583 2585 2588 2589 2591 2593 2595 2597 2599
2600 2601 2603 2606 2607 2608 2610 2612 2614 2618 2620 2621 2622 2624 2626
2630 2631 2632 2634 2636 2639 2642 2645 2648 2652 2653 2654 2656 2658 2660
2664 2668 2669 2670 2672 2674 2677 2679 2683 2687 2688 2689 2691 2693 2696
2698 2699 2700 2701 2704 2707 2710 2712 2713 2714 2716 2718 2721 2724 2725
2726 2727 2728 2729 2731 2733 2736 2738 2739 2740 2742 2744 2747 2750 2753
2756 2760 2761 2762 2764 2766 2769 2772 2773 2774 2777 2778 2779 2781 2783
2787 2788 2789 2791 2793 2796 2799 2802 2804 2805 2808 2811 2812 2813 2815
2817 2821 2822 2823 2825 2827 2830 2831 2832 2835 2836 2837 2839 2841 2844
2846 2847 2848 2850 2852 2855 2856 2858 2860 2862 2864 2866 2867 2868 2870
2872 2874 2878 2882 2883 2884 2886 2889 2890 2891 2893 2895 2897 2901 2903
2904 2905 2907 2909 2913 2914 2915 2917 2919 2922 2925 2926 2927 2930 2931
2932 2934 2936 2939 2940 2942 2944 2945 2947 2949 2951 2952 2953 2955 2957
2959 2963 2967 2968 2969 2971 2973 2976 2978 2979 2980 2981 2984 2987 2990
2992 2993 2994 2996 2998 3001 3004 3005 3006 3007 3008 3009 3011 3013 3016
3018 3022 3026 3027 3028 3030 3032 3035 3037 3041 3045 3046 3047 3049 3051
3053 3057 3059 3060 3061 3063 3065 3068 3071 3072 3073 3074 3075 3076 3078
3080 3083 3086 3089 3092 3096 3097 3098 3100 3102 3105 3107 3108 3109 3111
3113 3117 3118 3119 3121 3123 3126 3128 3129 3130 3132 3134 3137 3140 3143
3146 3150 3151 3152 3154 3156 3159 3161 3162 3163 3165 3167 3170 3172 3173
3174 3176 3178 3181 3182 3183 3184 3185 3186 3188 3190 3193 3195 3199 3203
3204 3205 3207 3209 3212 3213 3215 3217 3218 3220 3222 3224 3226 3227 3228
3229 3231 3233 3237 3238 3239 3241 3243 3246 3248 3252 3256 3257 3258 3260
3263 3264 3265 3267 3269 3272 3274 3275 3276 3278 3280 3282 3286 3289 3293
3294 3295 3297 3299 3301 3305 3308 3312 3313 3314 3316 3318 3321 3322 3324
3326 3327 3329 3331 3333 3334 3335 3337 3339 3342 3345 3346 3347 3350 3351
3352 3354 3356 3359 3361 3365 3369 3370 3371 3373 3375 3377 3381 3385 3386
3387 3389 3391 3395 3396 3397 3399 3402 3403 3404 3406 3408 3411 3413 3417
3421 3422 3423 3424 3427 3430 3433 3435 3436 3437 3438 3441 3444 3447 3449
3450 3451 3453 3455 3458 3459 3461 3463 3465 3467 3469 3470 3471 3473 3475
3478 3481 3484 3486 3487 3490 3493 3494 3495 3497 3499 3503 3504 3505 3507
3510 3511 3512 3514 3516 3519 3520 3521 3524 3525 3526 3528 3530 3533 3536
3537 3538 3539 3540 3541 3543 3545 3548 3549 3551 3553 3554 3556 3558 3560
3561 3562 3564 3566 3569 3571 3575 3579 3580 3581 3583 3585 3587 3591 3594
3598 3599 3600 3602 3604 3607 3608 3610 3612 3614 3616 3618 3619 3620 3622
3624 3627 3630 3631 3632 3635 3636 3637 3639 3641 3644 3647 3650 3653 3657
3658 3659 3661 3663 3665 3669 3672 3676 3677 3678 3680 3682 3684 3688 3691
3695 3696 3697 3699 3701 3704 3707 3710 3713 3717 3718 3719 3721 3723 3726
3728 3732 3736 3737 3738 3740 3742 3745 3748 3749 3750 3751 3752 3753 3755
3757 3760 3761 3763 3765 3766 3768 3770 3772 3773 3774 3776 3778 3781 3782
3783 3784 3785 3786 3788 3790 3793 3794 3796 3798 3800 3802 3804 3805 3806
3807 3810 3813 3816 3818 3819 3820 3822 3824 3827 3830 3831 3832 3833 3834
3835 3837 3839 3842 3845 3848 3851 3855 3856 3857 3859 3861 3864 3865 3867
3869 3871 3873 3875 3876 3877 3879 3881 3884 3885 3887 3889 3891 3893 3895
3896 3897 3898 3901 3904 3907 3909 3910 3911 3913 3915 3918 3921 3924 3927
3931 3932 3933 3935 3937 3941 3942 3943 3945 3947 3950 3953 3956 3958 3959
3962 3965 3966 3967 3969 3971 3974 3975 3976 3977 3978 3979 3981 3983 3986
3988 3992 3996 3997 3998 4000 4002 4004 4008 4012 4013 4014 4016 4018 4021
4024 4025 4026 4027 4028 4029 4031 4033 4036 4039 4042 4045 4049 4050 4051
4053 4055 4058 4060 4064 4068 4069 4070 4072 4074 4077 4079 4083 4087 4088
4089 4091 4093 4095 4099 4103 4104 4105 4107 4109 4112 4114 4118 4122 4123
4124 4126 4128 4131 4132 4133 4134 4135 4136 4138 4140 4144 4145 4146 4148
4150 4152 4156 4158 4159 4160 4162 4164 4167 4170 4173 4176 4180 4181 4182
4184 4186 4189 4192 4195 4197 4198 4201 4204 4205 4206 4208 4210 4213 4215
4219 4223 4224 4225 4227 4230 4231 4232 4234 4236 4239 4241 4242 4243 4245
4247 4250 4253 4254 4255 4256 4257 4258 4260 4262 4265 4268 4269 4270 4271
4272 4273 4275 4277 4280 4283 4284 4288 4289 4290 4292 4294 4297 4300 4301
4302 4303 4304 4305 4307 4310 4311 4312 4314 4316 4319 4320 4322 4324 4325
4327 4329 4331 4332 4333 4335 4338 4339 4340 4341 4344 4347 4350 4352 4353
4354 4356 4358 4361 4363 4367 4371 4372 4373 4375 4377 4380 4383 4386 4389
4393 4394 4395 4397 4399 4403 4404 4405 4407 4409 4412 4413 4414 4416 4418
4420 4421 4422 4423 4426 4429 4432 4434 4435 4436 4438 4440 4443 4444 4446
4448 4450 4452 4454 4455 4456 4458 4460 4463 4464 4466 4468 4470 4472 4474
4475 4476 4478 4480 4483 4486 4487 4488 4489 4490 4491 4493 4495 4498 4500
4501 4502 4504 4506 4508 4512 4516 4517 4518 4520 4522 4524 4528 4530 4531
4532 4534 4536 4539 4540 4542 4544 4545 4547 4549 4551 4553 4554 4555 4556
4558 4560 4563 4566 4567 4568 4569 4570 4571 4573 4575 4578 4579 4580 4583
4584 4585 4587 4589 4592 4594 4598 4602 4603 4604 4606 4608 4611 4612 4613
4615 4617 4619 4620 4621 4623 4625 4628 4631 4632 4633 4636 4637 4638 4640
4642 4645 4648 4649 4650 4653 4654 4655 4657 4659 4661 4665 4667 4668 4669
4670 4673 4676 4679 4681 4682 4683 4684 4687 4690 4693 4695 4696 4697 4699
4701 4704 4707 4710 4713 4717 4718 4719 4721 4723 4726 4728 4732 4736 4737
4738 4740 4742 4744 4748 4750 4751 4752
[ C-alpha ]
  72   78  102  124  146  178  184  199  211  231  253  273  280  302  321
 340  347  362  369  380  400  411  425  441  457  476  486  510  525  544
 554  568  579  603  618  639  649  668  690  709  728  743  765  789  806
 825  844  866  881  895  917  941  947  968  984  998 1022 1037 1061 1073
1089 1106 1117 1141 1160 1172 1197 1203 1223 1243 1259 1281 1300 1321 1341
1355 1375 1392 1404 1416 1431 1453 1472 1493 1513 1520 1539 1550 1571 1581
1603 1617 1624 1639 1658 1677 1699 1720 1739 1763 1785 1804 1811 1822 1842
1854 1869 1883 1894 1908 1932 1952 1973 1987 1997 2012 2031 2047 2058 2068
2087 2102 2123 2142 2159 2166 2188 2195 2214 2233 2250 2274 2286 2305 2335
2341 2356 2370 2389 2408 2427 2441 2456 2468 2485 2502 2521 2538 2557 2571
2583 2603 2610 2624 2634 2656 2672 2691 2710 2716 2731 2742 2764 2781 2791
2815 2825 2839 2850 2870 2886 2893 2907 2917 2934 2955 2971 2990 2996 3011
3030 3049 3063 3078 3100 3111 3121 3132 3154 3165 3176 3188 3207 3231 3241
3260 3267 3278 3297 3316 3337 3354 3373 3389 3399 3406 3433 3447 3453 3473
3497 3507 3514 3528 3543 3564 3583 3602 3622 3639 3661 3680 3699 3721 3740
3755 3776 3788 3816 3822 3837 3859 3879 3907 3913 3935 3945 3969 3981 4000
4016 4031 4053 4072 4091 4107 4126 4138 4148 4162 4184 4208 4227 4234 4245
4260 4275 4292 4307 4314 4335 4350 4356 4375 4397 4407 4432 4438 4458 4478
4493 4504 4520 4534 4558 4573 4587 4606 4623 4640 4657 4679 4693 4699 4721
4740
[ Backbone ]
  60   72   74   76   78   98  100  102  120  122  124  142  144  146  166
 168  178  180  182  184  195  197  199  207  209  211  227  229  231  249
 251  253  269  271  273  276  278  280  298  300  302  317  319  321  336
 338  340  343  345  347  358  360  362  365  367  369  376  378  380  396
 398  400  407  409  411  421  423  425  437  439  441  453  455  457  472
 474  476  482  484  486  506  508  510  521  523  525  540  542  544  550
 552  554  564  566  568  575  577  579  599  601  603  614  616  618  635
 637  639  645  647  649  664  666  668  686  688  690  705  707  709  724
 726  728  739  741  743  761  763  765  785  787  789  802  804  806  821
 823  825  840  842  844  862  864  866  877  879  881  891  893  895  913
 915  917  929  931  941  943  945  947  964  966  968  980  982  984  994
 996  998 1018 1020 1022 1033 1035 1037 1057 1059 1061 1069 1071 1073 1085
1087 1089 1102 1104 1106 1113 1115 1117 1137 1139 1141 1156 1158 1160 1168
1170 1172 1185 1187 1197 1199 1201 1203 1219 1221 1223 1239 1241 1243 1255
1257 1259 1277 1279 1281 1296 1298 1300 1317 1319 1321 1337 1339 1341 1351
1353 1355 1371 1373 1375 1388 1390 1392 1400 1402 1404 1412 1414 1416 1427
1429 1431 1449 1451 1453 1468 1470 1472 1489 1491 1493 1509 1511 1513 1516
1518 1520 1535 1537 1539 1546 1548 1550 1567 1569 1571 1577 1579 1581 1599
1601 1603 1613 1615 1617 1620 1622 1624 1635 1637 1639 1654 1656 1658 1673
1675 1677 1695 1697 1699 1716 1718 1720 1735 1737 1739 1759 1761 1763 1781
1783 1785 1800 1802 1804 1807 1809 1811 1818 1820 1822 1838 1840 1842 1850
1852 1854 1865 1867 1869 1879 1881 1883 1890 1892 1894 1904 1906 1908 1928
1930 1932 1948 1950 1952 1969 1971 1973 1983 1985 1987 1993 1995 1997 2008
2010 2012 2027 2029 2031 2043 2045 2047 2054 2056 2058 2064 2066 2068 2083
2085 2087 2098 2100 2102 2119 2121 2123 2138 2140 2142 2155 2157 2159 2162
2164 2166 2184 2186 2188 2191 2193 2195 2210 2212 2214 2229 2231 2233 2246
2248 2250 2270 2272 2274 2282 2284 2286 2301 2303 2305 2323 2325 2335 2337
2339 2341 2352 2354 2356 2366 2368 2370 2385 2387 2389 2404 2406 2408 2423
2425 2427 2437 2439 2441 2452 2454 2456 2464 2466 2468 2481 2483 2485 2498
2500 2502 2517 2519 2521 2534 2536 2538 2553 2555 2557 2567 2569 2571 2579
2581 2583 2599 2601 2603 2606 2608 2610 2620 2622 2624 2630 2632 2634 2652
2654 2656 2668 2670 2672 2687 2689 2691 2698 2700 2710 2712 2714 2716 2727
2729 2731 2738 2740 2742 2760 2762 2764 2777 2779 2781 2787 2789 2791 2811
2813 2815 2821 2823 2825 2835 2837 2839 2846 2848 2850 2866 2868 2870 2882
2884 2886 2889 2891 2893 2903 2905 2907 2913 2915 2917 2930 2932 2934 2951
2953 2955 2967 2969 2971 2978 2980 2990 2992 2994 2996 3007 3009 3011 3026
3028 3030 3045 3047 3049 3059 3061 3063 3074 3076 3078 3096 3098 3100 3107
3109 3111 3117 3119 3121 3128 3130 3132 3150 3152 3154 3161 3163 3165 3172
3174 3176 3184 3186 3188 3203 3205 3207 3227 3229 3231 3237 3239 3241 3256
3258 3260 3263 3265 3267 3274 3276 3278 3293 3295 3297 3312 3314 3316 3333
3335 3337 3350 3352 3354 3369 3371 3373 3385 3387 3389 3395 3397 3399 3402
3404 3406 3421 3423 3433 3435 3437 3447 3449 3451 3453 3469 3471 3473 3493
3495 3497 3503 3505 3507 3510 3512 3514 3524 3526 3528 3539 3541 3543 3560
3562 3564 3579 3581 3583 3598 3600 3602 3618 3620 3622 3635 3637 3639 3657
3659 3661 3676 3678 3680 3695 3697 3699 3717 3719 3721 3736 3738 3740 3751
3753 3755 3772 3774 3776 3784 3786 3788 3804 3806 3816 3818 3820 3822 3833
3835 3837 3855 3857 3859 3875 3877 3879 3895 3897 3907 3909 3911 3913 3931
3933 3935 3941 3943 3945 3965 3967 3969 3977 3979 3981 3996 3998 4000 4012
4014 4016 4027 4029 4031 4049 4051 4053 4068 4070 4072 4087 4089 4091 4103
4105 4107 4122 4124 4126 4134 4136 4138 4144 4146 4148 4158 4160 4162 4180
4182 4184 4204 4206 4208 4223 4225 4227 4230 4232 4234 4241 4243 4245 4256
4258 4260 4271 4273 4275 4288 4290 4292 4303 4305 4307 4310 4312 4314 4331
4333 4335 4338 4340 4350 4352 4354 4356 4371 4373 4375 4393 4395 4397 4403
4405 4407 4420 4422 4432 4434 4436 4438 4454 4456 4458 4474 4476 4478 4489
4491 4493 4500 4502 4504 4516 4518 4520 4530 4532 4534 4554 4556 4558 4569
4571 4573 4583 4585 4587 4602 4604 4606 4619 4621 4623 4636 4638 4640 4653
4655 4657 4667 4669 4679 4681 4683 4693 4695 4697 4699 4717 4719 4721 4736
4738 4740 4750
[ MainChain ]
  60   72   74   75   76   78   98   99  100  102  120  121  122  124  142
 143  144  146  166  167  168  178  180  181  182  184  195  196  197  199
 207  208  209  211  227  228  229  231  249  250  251  253  269  270  271
 273  276  277  278  280  298  299  300  302  317  318  319  321  336  337
 338  340  343  344  345  347  358  359  360  362  365  366  367  369  376
 377  378  380  396  397  398  400  407  408  409  411  421  422  423  425
 437  438  439  441  453  454  455  457  472  473  474  476  482  483  484
 486  506  507  508  510  521  522  523  525  540  541  542  544  550  551
 552  554  564  565  566  568  575  576  577  579  599  600  601  603  614
 615  616  618  635  636  637  639  645  646  647  649  664  665  666  668
 686  687  688  690  705  706  707  709  724  725  726  728  739  740  741
 743  761  762  763  765  785  786  787  789  802  803  804  806  821  822
 823  825  840  841  842  844  862  863  864  866  877  878  879  881  891
 892  893  895  913  914  915  917  929  930  931  941  943  944  945  947
 964  965  966  968  980  981  982  984  994  995  996  998 1018 1019 1020
1022 1033 1034 1035 1037 1057 1058 1059 1061 1069 1070 1071 1073 1085 1086
1087 1089 1102 1103 1104 1106 1113 1114 1115 1117 1137 1138 1139 1141 1156
1157 1158 1160 1168 1169 1170 1172 1185 1186 1187 1197 1199 1200 1201 1203
1219 1220 1221 1223 1239 1240 1241 1243 1255 1256 1257 1259 1277 1278 1279
1281 1296 1297 1298 1300 1317 1318 1319 1321 1337 1338 1339 1341 1351 1352
1353 1355 1371 1372 1373 1375 1388 1389 1390 1392 1400 1401 1402 1404 1412
1413 1414 1416 1427 1428 1429 1431 1449 1450 1451 1453 1468 1469 1470 1472
1489 1490 1491 1493 1509 1510 1511 1513 1516 1517 1518 1520 1535 1536 1537
1539 1546 1547 1548 1550 1567 1568 1569 1571 1577 1578 1579 1581 1599 1600
1601 1603 1613 1614 1615 1617 1620 1621 1622 1624 1635 1636 1637 1639 1654
1655 1656 1658 1673 1674 1675 1677 1695 1696 1697 1699 1716 1717 1718 1720
1735 1736 1737 1739 1759 1760 1761 1763 1781 1782 1783 1785 1800 1801 1802
1804 1807 1808 1809 1811 1818 1819 1820 1822 1838 1839 1840 1842 1850 1851
1852 1854 1865 1866 1867 1869 1879 1880 1881 1883 1890 1891 1892 1894 1904
1905 1906 1908 1928 1929 1930 1932 1948 1949 1950 1952 1969 1970 1971 1973
1983 1984 1985 1987 1993 1994 1995 1997 2008 2009 2010 2012 2027 2028 2029
2031 2043 2044 2045 2047 2054 2055 2056 2058 2064 2065 2066 2068 2083 2084
2085 2087 2098 2099 2100 2102 2119 2120 2121 2123 2138 2139 2140 2142 2155
2156 2157 2159 2162 2163 2164 2166 2184 2185 2186 2188 2191 2192 2193 2195
2210 2211 2212 2214 2229 2230 2231 2233 2246 2247 2248 2250 2270 2271 2272
2274 2282 2283 2284 2286 2301 2302 2303 2305 2323 2324 2325 2335 2337 2338
2339 2341 2352 2353 2354 2356 2366 2367 2368 2370 2385 2386 2387 2389 2404
2405 2406 2408 2423 2424 2425 2427 2437 2438 2439 2441 2452 2453 2454 2456
2464 2465 2466 2468 2481 2482 2483 2485 2498 2499 2500 2502 2517 2518 2519
2521 2534 2535 2536 2538 2553 2554 2555 2557 2567 2568 2569 2571 2579 2580
2581 2583 2599 2600 2601 2603 2606 2607 2608 2610 2620 2621 2622 2624 2630
2631 2632 2634 2652 2653 2654 2656 2668 2669 2670 2672 2687 2688 2689 2691
2698 2699 2700 2710 2712 2713 2714 2716 2727 2728 2729 2731 2738 2739 2740
2742 2760 2761 2762 2764 2777 2778 2779 2781 2787 2788 2789 2791 2811 2812
2813 2815 2821 2822 2823 2825 2835 2836 2837 2839 2846 2847 2848 2850 2866
2867 2868 2870 2882 2883 2884 2886 2889 2890 2891 2893 2903 2904 2905 2907
2913 2914 2915 2917 2930 2931 2932 2934 2951 2952 2953 2955 2967 2968 2969
2971 2978 2979 2980 2990 2992 2993 2994 2996 3007 3008 3009 3011 3026 3027
3028 3030 3045 3046 3047 3049 3059 3060 3061 3063 3074 3075 3076 3078 3096
3097 3098 3100 3107 3108 3109 3111 3117 3118 3119 3121 3128 3129 3130 3132
3150 3151 3152 3154 3161 3162 3163 3165 3172 3173 3174 3176 3184 3185 3186
3188 3203 3204 3205 3207 3227 3228 3229 3231 3237 3238 3239 3241 3256 3257
3258 3260 3263 3264 3265 3267 3274 3275 3276 3278 3293 3294 3295 3297 3312
3313 3314 3316 3333 3334 3335 3337 3350 3351 3352 3354 3369 3370 3371 3373
3385 3386 3387 3389 3395 3396 3397 3399 3402 3403 3404 3406 3421 3422 3423
3433 3435 3436 3437 3447 3449 3450 3451 3453 3469 3470 3471 3473 3493 3494
3495 3497 3503 3504 3505 3507 3510 3511 3512 3514 3524 3525 3526 3528 3539
3540 3541 3543 3560 3561 3562 3564 3579 3580 3581 3583 3598 3599 3600 3602
3618 3619 3620 3622 3635 3636 3637 3639 3657 3658 3659 3661 3676 3677 3678
3680 3695 3696 3697 3699 3717 3718 3719 3721 3736 3737 3738 3740 3751 3752
3753 3755 3772 3773 3774 3776 3784 3785 3786 3788 3804 3805 3806 3816 3818
3819 3820 3822 3833 3834 3835 3837 3855 3856 3857 3859 3875 3876 3877 3879
3895 3896 3897 3907 3909 3910 3911 3913 3931 3932 3933 3935 3941 3942 3943
3945 3965 3966 3967 3969 3977 3978 3979 3981 3996 3997 3998 4000 4012 4013
4014 4016 4027 4028 4029 4031 4049 4050 4051 4053 4068 4069 4070 4072 4087
4088 4089 4091 4103 4104 4105 4107 4122 4123 4124 4126 4134 4135 4136 4138
4144 4145 4146 4148 4158 4159 4160 4162 4180 4181 4182 4184 4204 4205 4206
4208 4223 4224 4225 4227 4230 4231 4232 4234 4241 4242 4243 4245 4256 4257
4258 4260 4271 4272 4273 4275 4288 4289 4290 4292 4303 4304 4305 4307 4310
4311 4312 4314 4331 4332 4333 4335 4338 4339 4340 4350 4352 4353 4354 4356
4371 4372 4373 4375 4393 4394 4395 4397 4403 4404 4405 4407 4420 4421 4422
4432 4434 4435 4436 4438 4454 4455 4456 4458 4474 4475 4476 4478 4489 4490
4491 4493 4500 4501 4502 4504 4516 4517 4518 4520 4530 4531 4532 4534 4554
4555 4556 4558 4569 4570 4571 4573 4583 4584 4585 4587 4602 4603 4604 4606
4619 4620 4621 4623 4636 4637 4638 4640 4653 4654 4655 4657 4667 4668 4669
4679 4681 4682 4683 4693 4695 4696 4697 4699 4717 4718 4719 4721 4736 4737
4738 4740 4750 4751 4752
[ MainChain+Cb ]
  60   69   72   74   75   76   78   80   98   99  100  102  104  120  121
 122  124  126  142  143  144  146  148  166  167  168  175  178  180  181
 182  184  186  195  196  197  199  201  207  208  209  211  213  227  228
 229  231  233  249  250  251  253  255  269  270  271  273  276  277  278
 280  282  298  299  300  302  304  317  318  319  321  323  336  337  338
 340  343  344  345  347  349  358  359  360  362  365  366  367  369  371
 376  377  378  380  382  396  397  398  400  402  407  408  409  411  413
 421  422  423  425  427  437  438  439  441  443  453  454  455  457  459
 472  473  474  476  478  482  483  484  486  488  506  507  508  510  512
 521  522  523  525  527  540  541  542  544  546  550  551  552  554  556
 564  565  566  568  570  575  576  577  579  581  599  600  601  603  605
 614  615  616  618  620  635  636  637  639  641  645  646  647  649  651
 664  665  666  668  670  686  687  688  690  692  705  706  707  709  711
 724  725  726  728  730  739  740  741  743  745  761  762  763  765  767
 785  786  787  789  791  802  803  804  806  808  821  822  823  825  827
 840  841  842  844  846  862  863  864  866  868  877  878  879  881  883
 891  892  893  895  897  913  914  915  917  919  929  930  931  938  941
 943  944  945  947  949  964  965  966  968  970  980  981  982  984  986
 994  995  996  998 1000 1018 1019 1020 1022 1024 1033 1034 1035 1037 1039
1057 1058 1059 1061 1063 1069 1070 1071 1073 1075 1085 1086 1087 1089 1091
1102 1103 1104 1106 1108 1113 1114 1115 1117 1119 1137 1138 1139 1141 1143
1156 1157 1158 1160 1162 1168 1169 1170 1172 1174 1185 1186 1187 1194 1197
1199 1200 1201 1203 1205 1219 1220 1221 1223 1225 1239 1240 1241 1243 1245
1255 1256 1257 1259 1261 1277 1278 1279 1281 1283 1296 1297 1298 1300 1302
1317 1318 1319 1321 1323 1337 1338 1339 1341 1343 1351 1352 1353 1355 1357
1371 1372 1373 1375 1377 1388 1389 1390 1392 1394 1400 1401 1402 1404 1406
1412 1413 1414 1416 1418 1427 1428 1429 1431 1433 1449 1450 1451 1453 1455
1468 1469 1470 1472 1474 1489 1490 1491 1493 1495 1509 1510 1511 1513 1516
1517 1518 1520 1522 1535 1536 1537 1539 1541 1546 1547 1548 1550 1552 1567
1568 1569 1571 1573 1577 1578 1579 1581 1583 1599 1600 1601 1603 1605 1613
1614 1615 1617 1620 1621 1622 1624 1626 1635 1636 1637 1639 1641 1654 1655
1656 1658 1660 1673 1674 1675 1677 1679 1695 1696 1697 1699 1701 1716 1717
1718 1720 1722 1735 1736 1737 1739 1741 1759 1760 1761 1763 1765 1781 1782
1783 1785 1787 1800 1801 1802 1804 1807 1808 1809 1811 1813 1818 1819 1820
1822 1824 1838 1839 1840 1842 1844 1850 1851 1852 1854 1856 1865 1866 1867
1869 1871 1879 1880 1881 1883 1885 1890 1891 1892 1894 1896 1904 1905 1906
1908 1910 1928 1929 1930 1932 1934 1948 1949 1950 1952 1954 1969 1970 1971
1973 1975 1983 1984 1985 1987 1989 1993 1994 1995 1997 1999 2008 2009 2010
2012 2014 2027 2028 2029 2031 2033 2043 2044 2045 2047 2049 2054 2055 2056
2058 2060 2064 2065 2066 2068 2070 2083 2084 2085 2087 2089 2098 2099 2100
2102 2104 2119 2120 2121 2123 2125 2138 2139 2140 2142 2144 2155 2156 2157
2159 2162 2163 2164 2166 2168 2184 2185 2186 2188 2191 2192 2193 2195 2197
2210 2211 2212 2214 2216 2229 2230 2231 2233 2235 2246 2247 2248 2250 2252
2270 2271 2272 2274 2276 2282 2283 2284 2286 2288 2301 2302 2303 2305 2307
2323 2324 2325 2332 2335 2337 2338 2339 2341 2343 2352 2353 2354 2356 2358
2366 2367 2368 2370 2372 2385 2386 2387 2389 2391 2404 2405 2406 2408 2410
2423 2424 2425 2427 2429 2437 2438 2439 2441 2443 2452 2453 2454 2456 2458
2464 2465 2466 2468 2470 2481 2482 2483 2485 2487 2498 2499 2500 2502 2504
2517 2518 2519 2521 2523 2534 2535 2536 2538 2540 2553 2554 2555 2557 2559
2567 2568 2569 2571 2573 2579 2580 2581 2583 2585 2599 2600 2601 2603 2606
2607 2608 2610 2612 2620 2621 2622 2624 2626 2630 2631 2632 2634 2636 2652
2653 2654 2656 2658 2668 2669 2670 2672 2674 2687 2688 2689 2691 2693 2698
2699 2700 2707 2710 2712 2713 2714 2716 2718 2727 2728 2729 2731 2733 2738
2739 2740 2742 2744 2760 2761 2762 2764 2766 2777 2778 2779 2781 2783 2787
2788 2789 2791 2793 2811 2812 2813 2815 2817 2821 2822 2823 2825 2827 2835
2836 2837 2839 2841 2846 2847 2848 2850 2852 2866 2867 2868 2870 2872 2882
2883 2884 2886 2889 2890 2891 2893 2895 2903 2904 2905 2907 2909 2913 2914
2915 2917 2919 2930 2931 2932 2934 2936 2951 2952 2953 2955 2957 2967 2968
2969 2971 2973 2978 2979 2980 2987 2990 2992 2993 2994 2996 2998 3007 3008
3009 3011 3013 3026 3027 3028 3030 3032 3045 3046 3047 3049 3051 3059 3060
3061 3063 3065 3074 3075 3076 3078 3080 3096 3097 3098 3100 3102 3107 3108
3109 3111 3113 3117 3118 3119 3121 3123 3128 3129 3130 3132 3134 3150 3151
3152 3154 3156 3161 3162 3163 3165 3167 3172 3173 3174 3176 3178 3184 3185
3186 3188 3190 3203 3204 3205 3207 3209 3227 3228 3229 3231 3233 3237 3238
3239 3241 3243 3256 3257 3258 3260 3263 3264 3265 3267 3269 3274 3275 3276
3278 3280 3293 3294 3295 3297 3299 3312 3313 3314 3316 3318 3333 3334 3335
3337 3339 3350 3351 3352 3354 3356 3369 3370 3371 3373 3375 3385 3386 3387
3389 3391 3395 3396 3397 3399 3402 3403 3404 3406 3408 3421 3422 3423 3430
3433 3435 3436 3437 3444 3447 3449 3450 3451 3453 3455 3469 3470 3471 3473
3475 3493 3494 3495 3497 3499 3503 3504 3505 3507 3510 3511 3512 3514 3516
3524 3525 3526 3528 3530 3539 3540 3541 3543 3545 3560 3561 3562 3564 3566
3579 3580 3581 3583 3585 3598 3599 3600 3602 3604 3618 3619 3620 3622 3624
3635 3636 3637 3639 3641 3657 3658 3659 3661 3663 3676 3677 3678 3680 3682
3695 3696 3697 3699 3701 3717 3718 3719 3721 3723 3736 3737 3738 3740 3742
3751 3752 3753 3755 3757 3772 3773 3774 3776 3778 3784 3785 3786 3788 3790
3804 3805 3806 3813 3816 3818 3819 3820 3822 3824 3833 3834 3835 3837 3839
3855 3856 3857 3859 3861 3875 3876 3877 3879 3881 3895 3896 3897 3904 3907
3909 3910 3911 3913 3915 3931 3932 3933 3935 3937 3941 3942 3943 3945 3947
3965 3966 3967 3969 3971 3977 3978 3979 3981 3983 3996 3997 3998 4000 4002
4012 4013 4014 4016 4018 4027 4028 4029 4031 4033 4049 4050 4051 4053 4055
4068 4069 4070 4072 4074 4087 4088 4089 4091 4093 4103 4104 4105 4107 4109
4122 4123 4124 4126 4128 4134 4135 4136 4138 4140 4144 4145 4146 4148 4150
4158 4159 4160 4162 4164 4180 4181 4182 4184 4186 4204 4205 4206 4208 4210
4223 4224 4225 4227 4230 4231 4232 4234 4236 4241 4242 4243 4245 4247 4256
4257 4258 4260 4262 4271 4272 4273 4275 4277 4288 4289 4290 4292 4294 4303
4304 4305 4307 4310 4311 4312 4314 4316 4331 4332 4333 4335 4338 4339 4340
4347 4350 4352 4353 4354 4356 4358 4371 4372 4373 4375 4377 4393 4394 4395
4397 4399 4403 4404 4405 4407 4409 4420 4421 4422 4429 4432 4434 4435 4436
4438 4440 4454 4455 4456 4458 4460 4474 4475 4476 4478 4480 4489 4490 4491
4493 4495 4500 4501 4502 4504 4506 4516 4517 4518 4520 4522 4530 4531 4532
4534 4536 4554 4555 4556 4558 4560 4569 4570 4571 4573 4575 4583 4584 4585
4587 4589 4602 4603 4604 4606 4608 4619 4620 4621 4623 4625 4636 4637 4638
4640 4642 4653 4654 4655 4657 4659 4667 4668 4669 4676 4679 4681 4682 4683
4690 4693 4695 4696 4697 4699 4701 4717 4718 4719 4721 4723 4736 4737 4738
4740 4742 4750 4751 4752
[ MainChain+H ]
  60   61   62   72   74   75   76   77   78   98   99  100  101  102  120
 121  122  123  124  142  143  144  145  146  166  167  168  178  180  181
 182  183  184  195  196  197  198  199  207  208  209  210  211  227  228
 229  230  231  249  250  251  252  253  269  270  271  272  273  276  277
 278  279  280  298  299  300  301  302  317  318  319  320  321  336  337
 338  339  340  343  344  345  346  347  358  359  360  361  362  365  366
 367  368  369  376  377  378  379  380  396  397  398  399  400  407  408
 409  410  411  421  422  423  424  425  437  438  439  440  441  453  454
 455  456  457  472  473  474  475  476  482  483  484  485  486  506  507
 508  509  510  521  522  523  524  525  540  541  542  543  544  550  551
 552  553  554  564  565  566  567  568  575  576  577  578  579  599  600
 601  602  603  614  615  616  617  618  635  636  637  638  639  645  646
 647  648  649  664  665  666  667  668  686  687  688  689  690  705  706
 707  708  709  724  725  726  727  728  739  740  741  742  743  761  762
 763  764  765  785  786  787  788  789  802  803  804  805  806  821  822
 823  824  825  840  841  842  843  844  862  863  864  865  866  877  878
 879  880  881  891  892  893  894  895  913  914  915  916  917  929  930
 931  941  943  944  945  946  947  964  965  966  967  968  980  981  982
 983  984  994  995  996  997  998 1018 1019 1020 1021 1022 1033 1034 1035
1036 1037 1057 1058 1059 1060 1061 1069 1070 1071 1072 1073 1085 1086 1087
1088 1089 1102 1103 1104 1105 1106 1113 1114 1115 1116 1117 1137 1138 1139
1140 1141 1156 1157 1158 1159 1160 1168 1169 1170 1171 1172 1185 1186 1187
1197 1199 1200 1201 1202 1203 1219 1220 1221 1222 1223 1239 1240 1241 1242
1243 1255 1256 1257 1258 1259 1277 1278 1279 1280 1281 1296 1297 1298 1299
1300 1317 1318 1319 1320 1321 1337 1338 1339 1340 1341 1351 1352 1353 1354
1355 1371 1372 1373 1374 1375 1388 1389 1390 1391 1392 1400 1401 1402 1403
1404 1412 1413 1414 1415 1416 1427 1428 1429 1430 1431 1449 1450 1451 1452
1453 1468 1469 1470 1471 1472 1489 1490 1491 1492 1493 1509 1510 1511 1512
1513 1516 1517 1518 1519 1520 1535 1536 1537 1538 1539 1546 1547 1548 1549
1550 1567 1568 1569 1570 1571 1577 1578 1579 1580 1581 1599 1600 1601 1602
1603 1613 1614 1615 1616 1617 1620 1621 1622 1623 1624 1635 1636 1637 1638
1639 1654 1655 1656 1657 1658 1673 1674 1675 1676 1677 1695 1696 1697 1698
1699 1716 1717 1718 1719 1720 1735 1736 1737 1738 1739 1759 1760 1761 1762
1763 1781 1782 1783 1784 1785 1800 1801 1802 1803 1804 1807 1808 1809 1810
1811 1818 1819 1820 1821 1822 1838 1839 1840 1841 1842 1850 1851 1852 1853
1854 1865 1866 1867 1868 1869 1879 1880 1881 1882 1883 1890 1891 1892 1893
1894 1904 1905 1906 1907 1908 1928 1929 1930 1931 1932 1948 1949 1950 1951
1952 1969 1970 1971 1972 1973 1983 1984 1985 1986 1987 1993 1994 1995 1996
1997 2008 2009 2010 2011 2012 2027 2028 2029 2030 2031 2043 2044 2045 2046
2047 2054 2055 2056 2057 2058 2064 2065 2066 2067 2068 2083 2084 2085 2086
2087 2098 2099 2100 2101 2102 2119 2120 2121 2122 2123 2138 2139 2140 2141
2142 2155 2156 2157 2158 2159 2162 2163 2164 2165 2166 2184 2185 2186 2187
2188 2191 2192 2193 2194 2195 2210 2211 2212 2213 2214 2229 2230 2231 2232
2233 2246 2247 2248 2249 2250 2270 2271 2272 2273 2274 2282 2283 2284 2285
2286 2301 2302 2303 2304 2305 2323 2324 2325 2335 2337 2338 2339 2340 2341
2352 2353 2354 2355 2356 2366 2367 2368 2369 2370 2385 2386 2387 2388 2389
2404 2405 2406 2407 2408 2423 2424 2425 2426 2427 2437 2438 2439 2440 2441
2452 2453 2454 2455 2456 2464 2465 2466 2467 2468 2481 2482 2483 2484 2485
2498 2499 2500 2501 2502 2517 2518 2519 2520 2521 2534 2535 2536 2537 2538
2553 2554 2555 2556 2557 2567 2568 2569 2570 2571 2579 2580 2581 2582 2583
2599 2600 2601 2602 2603 2606 2607 2608 2609 2610 2620 2621 2622 2623 2624
2630 2631 2632 2633 2634 2652 2653 2654 2655 2656 2668 2669 2670 2671 2672
2687 2688 2689 2690 2691 2698 2699 2700 2710 2712 2713 2714 2715 2716 2727
2728 2729 2730 2731 2738 2739 2740 2741 2742 2760 2761 2762 2763 2764 2777
2778 2779 2780 2781 2787 2788 2789 2790 2791 2811 2812 2813 2814 2815 2821
2822 2823 2824 2825 2835 2836 2837 2838 2839 2846 2847 2848 2849 2850 2866
2867 2868 2869 2870 2882 2883 2884 2885 2886 2889 2890 2891 2892 2893 2903
2904 2905 2906 2907 2913 2914 2915 2916 2917 2930 2931 2932 2933 2934 2951
2952 2953 2954 2955 2967 2968 2969 2970 2971 2978 2979 2980 2990 2992 2993
2994 2995 2996 3007 3008 3009 3010 3011 3026 3027 3028 3029 3030 3045 3046
3047 3048 3049 3059 3060 3061 3062 3063 3074 3075 3076 3077 3078 3096 3097
3098 3099 3100 3107 3108 3109 3110 3111 3117 3118 3119 3120 3121 3128 3129
3130 3131 3132 3150 3151 3152 3153 3154 3161 3162 3163 3164 3165 3172 3173
3174 3175 3176 3184 3185 3186 3187 3188 3203 3204 3205 3206 3207 3227 3228
3229 3230 3231 3237 3238 3239 3240 3241 3256 3257 3258 3259 3260 3263 3264
3265 3266 3267 3274 3275 3276 3277 3278 3293 3294 3295 3296 3297 3312 3313
3314 3315 3316 3333 3334 3335 3336 3337 3350 3351 3352 3353 3354 3369 3370
3371 3372 3373 3385 3386 3387 3388 3389 3395 3396 3397 3398 3399 3402 3403
3404 3405 3406 3421 3422 3423 3433 3435 3436 3437 3447 3449 3450 3451 3452
3453 3469 3470 3471 3472 3473 3493 3494 3495 3496 3497 3503 3504 3505 3506
3507 3510 3511 3512 3513 3514 3524 3525 3526 3527 3528 3539 3540 3541 3542
3543 3560 3561 3562 3563 3564 3579 3580 3581 3582 3583 3598 3599 3600 3601
3602 3618 3619 3620 3621 3622 3635 3636 3637 3638 3639 3657 3658 3659 3660
3661 3676 3677 3678 3679 3680 3695 3696 3697 3698 3699 3717 3718 3719 3720
3721 3736 3737 3738 3739 3740 3751 3752 3753 3754 3755 3772 3773 3774 3775
3776 3784 3785 3786 3787 3788 3804 3805 3806 3816 3818 3819 3820 3821 3822
3833 3834 3835 3836 3837 3855 3856 3857 3858 3859 3875 3876 3877 3878 3879
3895 3896 3897 3907 3909 3910 3911 3912 3913 3931 3932 3933 3934 3935 3941
3942 3943 3944 3945 3965 3966 3967 3968 3969 3977 3978 3979 3980 3981 3996
3997 3998 3999 4000 4012 4013 4014 4015 4016 4027 4028 4029 4030 4031 4049
4050 4051 4052 4053 4068 4069 4070 4071 4072 4087 4088 4089 4090 4091 4103
4104 4105 4106 4107 4122 4123 4124 4125 4126 4134 4135 4136 4137 4138 4144
4145 4146 4147 4148 4158 4159 4160 4161 4162 4180 4181 4182 4183 4184 4204
4205 4206 4207 4208 4223 4224 4225 4226 4227 4230 4231 4232 4233 4234 4241
4242 4243 4244 4245 4256 4257 4258 4259 4260 4271 4272 4273 4274 4275 4288
4289 4290 4291 4292 4303 4304 4305 4306 4307 4310 4311 4312 4313 4314 4331
4332 4333 4334 4335 4338 4339 4340 4350 4352 4353 4354 4355 4356 4371 4372
4373 4374 4375 4393 4394 4395 4396 4397 4403 4404 4405 4406 4407 4420 4421
4422 4432 4434 4435 4436 4437 4438 4454 4455 4456 4457 4458 4474 4475 4476
4477 4478 4489 4490 4491 4492 4493 4500 4501 4502 4503 4504 4516 4517 4518
4519 4520 4530 4531 4532 4533 4534 4554 4555 4556 4557 4558 4569 4570 4571
4572 4573 4583 4584 4585 4586 4587 4602 4603 4604 4605 4606 4619 4620 4621
4622 4623 4636 4637 4638 4639 4640 4653 4654 4655 4656 4657 4667 4668 4669
4679 4681 4682 4683 4693 4695 4696 4697 4698 4699 4717 4718 4719 4720 4721
4736 4737 4738 4739 4740 4750 4751 4752
[ SideChain ]
  63   64   65   66   67   68   69   70   71   73   79   80   81   82   83
  84   85   86   87   88   89   90   91   92   93   94   95   96   97  103
 104  105  106  107  108  109  110  111  112  113  114  115  116  117  118
 119  125  126  127  128  129  130  131  132  133  134  135  136  137  138
 139  140  141  147  148  149  150  151  152  153  154  155  156  157  158
 159  160  161  162  163  164  165  169  170  171  172  173  174  175  176
 177  179  185  186  187  188  189  190  191  192  193  194  200  201  202
 203  204  205  206  212  213  214  215  216  217  218  219  220  221  222
 223  224  225  226  232  233  234  235  236  237  238  239  240  241  242
 243  244  245  246  247  248  254  255  256  257  258  259  260  261  262
 263  264  265  266  267  268  274  275  281  282  283  284  285  286  287
 288  289  290  291  292  293  294  295  296  297  303  304  305  306  307
 308  309  310  311  312  313  314  315  316  322  323  324  325  326  327
 328  329  330  331  332  333  334  335  341  342  348  349  350  351  352
 353  354  355  356  357  363  364  370  371  372  373  374  375  381  382
 383  384  385  386  387  388  389  390  391  392  393  394  395  401  402
 403  404  405  406  412  413  414  415  416  417  418  419  420  426  427
 428  429  430  431  432  433  434  435  436  442  443  444  445  446  447
 448  449  450  451  452  458  459  460  461  462  463  464  465  466  467
 468  469  470  471  477  478  479  480  481  487  488  489  490  491  492
 493  494  495  496  497  498  499  500  501  502  503  504  505  511  512
 513  514  515  516  517  518  519  520  526  527  528  529  530  531  532
 533  534  535  536  537  538  539  545  546  547  548  549  555  556  557
 558  559  560  561  562  563  569  570  571  572  573  574  580  581  582
 583  584  585  586  587  588  589  590  591  592  593  594  595  596  597
 598  604  605  606  607  608  609  610  611  612  613  619  620  621  622
 623  624  625  626  627  628  629  630  631  632  633  634  640  641  642
 643  644  650  651  652  653  654  655  656  657  658  659  660  661  662
 663  669  670  671  672  673  674  675  676  677  678  679  680  681  682
 683  684  685  691  692  693  694  695  696  697  698  699  700  701  702
 703  704  710  711  712  713  714  715  716  717  718  719  720  721  722
 723  729  730  731  732  733  734  735  736  737  738  744  745  746  747
 748  749  750  751  752  753  754  755  756  757  758  759  760  766  767
 768  769  770  771  772  773  774  775  776  777  778  779  780  781  782
 783  784  790  791  792  793  794  795  796  797  798  799  800  801  807
 808  809  810  811  812  813  814  815  816  817  818  819  820  826  827
 828  829  830  831  832  833  834  835  836  837  838  839  845  846  847
 848  849  850  851  852  853  854  855  856  857  858  859  860  861  867
 868  869  870  871  872  873  874  875  876  882  883  884  885  886  887
 888  889  890  896  897  898  899  900  901  902  903  904  905  906  907
 908  909  910  911  912  918  919  920  921  922  923  924  925  926  927
 928  932  933  934  935  936  937  938  939  940  942  948  949  950  951
 952  953  954  955  956  957  958  959  960  961  962  963  969  970  971
 972  973  974  975  976  977  978  979  985  986  987  988  989  990  991
 992  993  999 1000 1001 1002 1003 1004 1005 1006 1007 1008 1009 1010 1011
1012 1013 1014 1015 1016 1017 1023 1024 1025 1026 1027 1028 1029 1030 1031
1032 1038 1039 1040 1041 1042 1043 1044 1045 1046 1047 1048 1049 1050 1051
1052 1053 1054 1055 1056 1062 1063 1064 1065 1066 1067 1068 1074 1075 1076
1077 1078 1079 1080 1081 1082 1083 1084 1090 1091 1092 1093 1094 1095 1096
1097 1098 1099 1100 1101 1107 1108 1109 1110 1111 1112 1118 1119 1120 1121
1122 1123 1124 1125 1126 1127 1128 1129 1130 1131 1132 1133 1134 1135 1136
1142 1143 1144 1145 1146 1147 1148 1149 1150 1151 1152 1153 1154 1155 1161
1162 1163 1164 1165 1166 1167 1173 1174 1175 1176 1177 1178 1179 1180 1181
1182 1183 1184 1188 1189 1190 1191 1192 1193 1194 1195 1196 1198 1204 1205
1206 1207 1208 1209 1210 1211 1212 1213 1214 1215 1216 1217 1218 1224 1225
1226 1227 1228 1229 1230 1231 1232 1233 1234 1235 1236 1237 1238 1244 1245
1246 1247 1248 1249 1250 1251 1252 1253 1254 1260 1261 1262 1263 1264 1265
1266 1267 1268 1269 1270 1271 1272 1273 1274 1275 1276 1282 1283 1284 1285
1286 1287 1288 1289 1290 1291 1292 1293 1294 1295 1301 1302 1303 1304 1305
1306 1307 1308 1309 1310 1311 1312 1313 1314 1315 1316 1322 1323 1324 1325
1326 1327 1328 1329 1330 1331 1332 1333 1334 1335 1336 1342 1343 1344 1345
1346 1347 1348 1349 1350 1356 1357 1358 1359 1360 1361 1362 1363 1364 1365
1366 1367 1368 1369 1370 1376 1377 1378 1379 1380 1381 1382 1383 1384 1385
1386 1387 1393 1394 1395 1396 1397 1398 1399 1405 1406 1407 1408 1409 1410
1411 1417 1418 1419 1420 1421 1422 1423 1424 1425 1426 1432 1433 1434 1435
1436 1437 1438 1439 1440 1441 1442 1443 1444 1445 1446 1447 1448 1454 1455
1456 1457 1458 1459 1460 1461 1462 1463 1464 1465 1466 1467 1473 1474 1475
1476 1477 1478 1479 1480 1481 1482 1483 1484 1485 1486 1487 1488 1494 1495
1496 1497 1498 1499 1500 1501 1502 1503 1504 1505 1506 1507 1508 1514 1515
1521 1522 1523 1524 1525 1526 1527 1528 1529 1530 1531 1532 1533 1534 1540
1541 1542 1543 1544 1545 1551 1552 1553 1554 1555 1556 1557 1558 1559 1560
1561 1562 1563 1564 1565 1566 1572 1573 1574 1575 1576 1582 1583 1584 1585
1586 1587 1588 1589 1590 1591 1592 1593 1594 1595 1596 1597 1598 1604 1605
1606 1607 1608 1609 1610 1611 1612 1618 1619 1625 1626 1627 1628 1629 1630
1631 1632 1633 1634 1640 1641 1642 1643 1644 1645 1646 1647 1648 1649 1650
1651 1652 1653 1659 1660 1661 1662 1663 1664 1665 1666 1667 1668 1669 1670
1671 1672 1678 1679 1680 1681 1682 1683 1684 1685 1686 1687 1688 1689 1690
1691 1692 1693 1694 1700 1701 1702 1703 1704 1705 1706 1707 1708 1709 1710
1711 1712 1713 1714 1715 1721 1722 1723 1724 1725 1726 1727 1728 1729 1730
1731 1732 1733 1734 1740 1741 1742 1743 1744 1745 1746 1747 1748 1749 1750
1751 1752 1753 1754 1755 1756 1757 1758 1764 1765 1766 1767 1768 1769 1770
1771 1772 1773 1774 1775 1776 1777 1778 1779 1780 1786 1787 1788 1789 1790
1791 1792 1793 1794 1795 1796 1797 1798 1799 1805 1806 1812 1813 1814 1815
1816 1817 1823 1824 1825 1826 1827 1828 1829 1830 1831 1832 1833 1834 1835
1836 1837 1843 1844 1845 1846 1847 1848 1849 1855 1856 1857 1858 1859 1860
1861 1862 1863 1864 1870 1871 1872 1873 1874 1875 1876 1877 1878 1884 1885
1886 1887 1888 1889 1895 1896 1897 1898 1899 1900 1901 1902 1903 1909 1910
1911 1912 1913 1914 1915 1916 1917 1918 1919 1920 1921 1922 1923 1924 1925
1926 1927 1933 1934 1935 1936 1937 1938 1939 1940 1941 1942 1943 1944 1945
1946 1947 1953 1954 1955 1956 1957 1958 1959 1960 1961 1962 1963 1964 1965
1966 1967 1968 1974 1975 1976 1977 1978 1979 1980 1981 1982 1988 1989 1990
1991 1992 1998 1999 2000 2001 2002 2003 2004 2005 2006 2007 2013 2014 2015
2016 2017 2018 2019 2020 2021 2022 2023 2024 2025 2026 2032 2033 2034 2035
2036 2037 2038 2039 2040 2041 2042 2048 2049 2050 2051 2052 2053 2059 2060
2061 2062 2063 2069 2070 2071 2072 2073 2074 2075 2076 2077 2078 2079 2080
2081 2082 2088 2089 2090 2091 2092 2093 2094 2095 2096 2097 2103 2104 2105
2106 2107 2108 2109 2110 2111 2112 2113 2114 2115 2116 2117 2118 2124 2125
2126 2127 2128 2129 2130 2131 2132 2133 2134 2135 2136 2137 2143 2144 2145
2146 2147 2148 2149 2150 2151 2152 2153 2154 2160 2161 2167 2168 2169 2170
2171 2172 2173 2174 2175 2176 2177 2178 2179 2180 2181 2182 2183 2189 2190
2196 2197 2198 2199 2200 2201 2202 2203 2204 2205 2206 2207 2208 2209 2215
2216 2217 2218 2219 2220 2221 2222 2223 2224 2225 2226 2227 2228 2234 2235
2236 2237 2238 2239 2240 2241 2242 2243 2244 2245 2251 2252 2253 2254 2255
2256 2257 2258 2259 2260 2261 2262 2263 2264 2265 2266 2267 2268 2269 2275
2276 2277 2278 2279 2280 2281 2287 2288 2289 2290 2291 2292 2293 2294 2295
2296 2297 2298 2299 2300 2306 2307 2308 2309 2310 2311 2312 2313 2314 2315
2316 2317 2318 2319 2320 2321 2322 2326 2327 2328 2329 2330 2331 2332 2333
2334 2336 2342 2343 2344 2345 2346 2347 2348 2349 2350 2351 2357 2358 2359
2360 2361 2362 2363 2364 2365 2371 2372 2373 2374 2375 2376 2377 2378 2379
2380 2381 2382 2383 2384 2390 2391 2392 2393 2394 2395 2396 2397 2398 2399
2400 2401 2402 2403 2409 2410 2411 2412 2413 2414 2415 2416 2417 2418 2419
2420 2421 2422 2428 2429 2430 2431 2432 2433 2434 2435 2436 2442 2443 2444
2445 2446 2447 2448 2449 2450 2451 2457 2458 2459 2460 2461 2462 2463 2469
2470 2471 2472 2473 2474 2475 2476 2477 2478 2479 2480 2486 2487 2488 2489
2490 2491 2492 2493 2494 2495 2496 2497 2503 2504 2505 2506 2507 2508 2509
2510 2511 2512 2513 2514 2515 2516 2522 2523 2524 2525 2526 2527 2528 2529
2530 2531 2532 2533 2539 2540 2541 2542 2543 2544 2545 2546 2547 2548 2549
2550 2551 2552 2558 2559 2560 2561 2562 2563 2564 2565 2566 2572 2573 2574
2575 2576 2577 2578 2584 2585 2586 2587 2588 2589 2590 2591 2592 2593 2594
2595 2596 2597 2598 2604 2605 2611 2612 2613 2614 2615 2616 2617 2618 2619
2625 2626 2627 2628 2629 2635 2636 2637 2638 2639 2640 2641 2642 2643 2644
2645 2646 2647 2648 2649 2650 2651 2657 2658 2659 2660 2661 2662 2663 2664
2665 2666 2667 2673 2674 2675 2676 2677 2678 2679 2680 2681 2682 2683 2684
2685 2686 2692 2693 2694 2695 2696 2697 2701 2702 2703 2704 2705 2706 2707
2708 2709 2711 2717 2718 2719 2720 2721 2722 2723 2724 2725 2726 2732 2733
2734 2735 2736 2737 2743 2744 2745 2746 2747 2748 2749 2750 2751 2752 2753
2754 2755 2756 2757 2758 2759 2765 2766 2767 2768 2769 2770 2771 2772 2773
2774 2775 2776 2782 2783 2784 2785 2786 2792 2793 2794 2795 2796 2797 2798
2799 2800 2801 2802 2803 2804 2805 2806 2807 2808 2809 2810 2816 2817 2818
2819 2820 2826 2827 2828 2829 2830 2831 2832 2833 2834 2840 2841 2842 2843
2844 2845 2851 2852 2853 2854 2855 2856 2857 2858 2859 2860 2861 2862 2863
2864 2865 2871 2872 2873 2874 2875 2876 2877 2878 2879 2880 2881 2887 2888
2894 2895 2896 2897 2898 2899 2900 2901 2902 2908 2909 2910 2911 2912 2918
2919 2920 2921 2922 2923 2924 2925 2926 2927 2928 2929 2935 2936 2937 2938
2939 2940 2941 2942 2943 2944 2945 2946 2947 2948 2949 2950 2956 2957 2958
2959 2960 2961 2962 2963 2964 2965 2966 2972 2973 2974 2975 2976 2977 2981
2982 2983 2984 2985 2986 2987 2988 2989 2991 2997 2998 2999 3000 3001 3002
3003 3004 3005 3006 3012 3013 3014 3015 3016 3017 3018 3019 3020 3021 3022
3023 3024 3025 3031 3032 3033 3034 3035 3036 3037 3038 3039 3040 3041 3042
3043 3044 3050 3051 3052 3053 3054 3055 3056 3057 3058 3064 3065 3066 3067
3068 3069 3070 3071 3072 3073 3079 3080 3081 3082 3083 3084 3085 3086 3087
3088 3089 3090 3091 3092 3093 3094 3095 3101 3102 3103 3104 3105 3106 3112
3113 3114 3115 3116 3122 3123 3124 3125 3126 3127 3133 3134 3135 3136 3137
3138 3139 3140 3141 3142 3143 3144 3145 3146 3147 3148 3149 3155 3156 3157
3158 3159 3160 3166 3167 3168 3169 3170 3171 3177 3178 3179 3180 3181 3182
3183 3189 3190 3191 3192 3193 3194 3195 3196 3197 3198 3199 3200 3201 3202
3208 3209 3210 3211 3212 3213 3214 3215 3216 3217 3218 3219 3220 3221 3222
3223 3224 3225 3226 3232 3233 3234 3235 3236 3242 3243 3244 3245 3246 3247
3248 3249 3250 3251 3252 3253 3254 3255 3261 3262 3268 3269 3270 3271 3272
3273 3279 3280 3281 3282 3283 3284 3285 3286 3287 3288 3289 3290 3291 3292
3298 3299 3300 3301 3302 3303 3304 3305 3306 3307 3308 3309 3310 3311 3317
3318 3319 3320 3321 3322 3323 3324 3325 3326 3327 3328 3329 3330 3331 3332
3338 3339 3340 3341 3342 3343 3344 3345 3346 3347 3348 3349 3355 3356 3357
3358 3359 3360 3361 3362 3363 3364 3365 3366 3367 3368 3374 3375 3376 3377
3378 3379 3380 3381 3382 3383 3384 3390 3391 3392 3393 3394 3400 3401 3407
3408 3409 3410 3411 3412 3413 3414 3415 3416 3417 3418 3419 3420 3424 3425
3426 3427 3428 3429 3430 3431 3432 3434 3438 3439 3440 3441 3442 3443 3444
3445 3446 3448 3454 3455 3456 3457 3458 3459 3460 3461 3462 3463 3464 3465
3466 3467 3468 3474 3475 3476 3477 3478 3479 3480 3481 3482 3483 3484 3485
3486 3487 3488 3489 3490 3491 3492 3498 3499 3500 3501 3502 3508 3509 3515
3516 3517 3518 3519 3520 3521 3522 3523 3529 3530 3531 3532 3533 3534 3535
3536 3537 3538 3544 3545 3546 3547 3548 3549 3550 3551 3552 3553 3554 3555
3556 3557 3558 3559 3565 3566 3567 3568 3569 3570 3571 3572 3573 3574 3575
3576 3577 3578 3584 3585 3586 3587 3588 3589 3590 3591 3592 3593 3594 3595
3596 3597 3603 3604 3605 3606 3607 3608 3609 3610 3611 3612 3613 3614 3615
3616 3617 3623 3624 3625 3626 3627 3628 3629 3630 3631 3632 3633 3634 3640
3641 3642 3643 3644 3645 3646 3647 3648 3649 3650 3651 3652 3653 3654 3655
3656 3662 3663 3664 3665 3666 3667 3668 3669 3670 3671 3672 3673 3674 3675
3681 3682 3683 3684 3685 3686 3687 3688 3689 3690 3691 3692 3693 3694 3700
3701 3702 3703 3704 3705 3706 3707 3708 3709 3710 3711 3712 3713 3714 3715
3716 3722 3723 3724 3725 3726 3727 3728 3729 3730 3731 3732 3733 3734 3735
3741 3742 3743 3744 3745 3746 3747 3748 3749 3750 3756 3757 3758 3759 3760
3761 3762 3763 3764 3765 3766 3767 3768 3769 3770 3771 3777 3778 3779 3780
3781 3782 3783 3789 3790 3791 3792 3793 3794 3795 3796 3797 3798 3799 3800
3801 3802 3803 3807 3808 3809 3810 3811 3812 3813 3814 3815 3817 3823 3824
3825 3826 3827 3828 3829 3830 3831 3832 3838 3839 3840 3841 3842 3843 3844
3845 3846 3847 3848 3849 3850 3851 3852 3853 3854 3860 3861 3862 3863 3864
3865 3866 3867 3868 3869 3870 3871 3872 3873 3874 3880 3881 3882 3883 3884
3885 3886 3887 3888 3889 3890 3891 3892 3893 3894 3898 3899 3900 3901 3902
3903 3904 3905 3906 3908 3914 3915 3916 3917 3918 3919 3920 3921 3922 3923
3924 3925 3926 3927 3928 3929 3930 3936 3937 3938 3939 3940 3946 3947 3948
3949 3950 3951 3952 3953 3954 3955 3956 3957 3958 3959 3960 3961 3962 3963
3964 3970 3971 3972 3973 3974 3975 3976 3982 3983 3984 3985 3986 3987 3988
3989 3990 3991 3992 3993 3994 3995 4001 4002 4003 4004 4005 4006 4007 4008
4009 4010 4011 4017 4018 4019 4020 4021 4022 4023 4024 4025 4026 4032 4033
4034 4035 4036 4037 4038 4039 4040 4041 4042 4043 4044 4045 4046 4047 4048
4054 4055 4056 4057 4058 4059 4060 4061 4062 4063 4064 4065 4066 4067 4073
4074 4075 4076 4077 4078 4079 4080 4081 4082 4083 4084 4085 4086 4092 4093
4094 4095 4096 4097 4098 4099 4100 4101 4102 4108 4109 4110 4111 4112 4113
4114 4115 4116 4117 4118 4119 4120 4121 4127 4128 4129 4130 4131 4132 4133
4139 4140 4141 4142 4143 4149 4150 4151 4152 4153 4154 4155 4156 4157 4163
4164 4165 4166 4167 4168 4169 4170 4171 4172 4173 4174 4175 4176 4177 4178
4179 4185 4186 4187 4188 4189 4190 4191 4192 4193 4194 4195 4196 4197 4198
4199 4200 4201 4202 4203 4209 4210 4211 4212 4213 4214 4215 4216 4217 4218
4219 4220 4221 4222 4228 4229 4235 4236 4237 4238 4239 4240 4246 4247 4248
4249 4250 4251 4252 4253 4254 4255 4261 4262 4263 4264 4265 4266 4267 4268
4269 4270 4276 4277 4278 4279 4280 4281 4282 4283 4284 4285 4286 4287 4293
4294 4295 4296 4297 4298 4299 4300 4301 4302 4308 4309 4315 4316 4317 4318
4319 4320 4321 4322 4323 4324 4325 4326 4327 4328 4329 4330 4336 4337 4341
4342 4343 4344 4345 4346 4347 4348 4349 4351 4357 4358 4359 4360 4361 4362
4363 4364 4365 4366 4367 4368 4369 4370 4376 4377 4378 4379 4380 4381 4382
4383 4384 4385 4386 4387 4388 4389 4390 4391 4392 4398 4399 4400 4401 4402
4408 4409 4410 4411 4412 4413 4414 4415 4416 4417 4418 4419 4423 4424 4425
4426 4427 4428 4429 4430 4431 4433 4439 4440 4441 4442 4443 4444 4445 4446
4447 4448 4449 4450 4451 4452 4453 4459 4460 4461 4462 4463 4464 4465 4466
4467 4468 4469 4470 4471 4472 4473 4479 4480 4481 4482 4483 4484 4485 4486
4487 4488 4494 4495 4496 4497 4498 4499 4505 4506 4507 4508 4509 4510 4511
4512 4513 4514 4515 4521 4522 4523 4524 4525 4526 4527 4528 4529 4535 4536
4537 4538 4539 4540 4541 4542 4543 4544 4545 4546 4547 4548 4549 4550 4551
4552 4553 4559 4560 4561 4562 4563 4564 4565 4566 4567 4568 4574 4575 4576
4577 4578 4579 4580 4581 4582 4588 4589 4590 4591 4592 4593 4594 4595 4596
4597 4598 4599 4600 4601 4607 4608 4609 4610 4611 4612 4613 4614 4615 4616
4617 4618 4624 4625 4626 4627 4628 4629 4630 4631 4632 4633 4634 4635 4641
4642 4643 4644 4645 4646 4647 4648 4649 4650 4651 4652 4658 4659 4660 4661
4662 4663 4664 4665 4666 4670 4671 4672 4673 4674 4675 4676 4677 4678 4680
4684 4685 4686 4687 4688 4689 4690 4691 4692 4694 4700 4701 4702 4703 4704
4705 4706 4707 4708 4709 4710 4711 4712 4713 4714 4715 4716 4722 4723 4724
4725 4726 4727 4728 4729 4730 4731 4732 4733 4734 4735 4741 4742 4743 4744
4745 4746 4747 4748 4749
[ SideChain-H ]
  63   66   69   80   83   86   89   91   92   95  104  107  110  113  116
 126  129  132  135  138  148  151  154  157  159  160  163  169  172  175
 186  189  192  193  194  201  204  205  206  213  216  217  219  221  223
 225  233  236  239  242  245  255  258  259  261  263  265  267  282  285
 288  291  294  304  306  310  313  323  326  328  332  349  352  355  356
 357  371  374  382  385  386  388  390  392  394  402  405  413  415  419
 427  429  433  443  445  449  459  462  464  468  478  488  491  494  497
 499  500  503  512  515  518  519  520  527  530  532  536  546  556  558
 562  570  573  581  584  587  590  592  593  596  605  608  611  612  613
 620  623  624  626  628  629  631  633  641  651  653  657  660  670  673
 676  679  682  692  694  698  701  711  714  716  720  730  733  736  737
 738  745  748  751  754  757  767  770  773  776  778  779  782  791  794
 795  796  798  800  808  810  814  817  827  829  833  836  846  849  852
 855  858  868  871  874  875  876  883  886  887  888  897  900  903  906
 909  919  921  925  932  935  938  949  952  953  955  957  958  960  962
 970  972  976  986  988  992 1000 1003 1006 1009 1011 1012 1015 1024 1027
1030 1031 1032 1039 1042 1045 1048 1050 1051 1054 1063 1066 1067 1068 1075
1077 1081 1091 1094 1097 1098 1108 1111 1119 1122 1125 1128 1130 1131 1134
1143 1146 1148 1152 1162 1165 1166 1167 1174 1177 1178 1179 1181 1183 1188
1191 1194 1205 1208 1209 1211 1213 1215 1217 1225 1228 1229 1231 1233 1235
1237 1245 1247 1251 1261 1264 1267 1270 1273 1283 1286 1288 1292 1302 1305
1306 1308 1310 1311 1313 1315 1323 1326 1327 1329 1331 1333 1335 1343 1345
1349 1357 1360 1361 1363 1365 1367 1369 1377 1380 1383 1384 1385 1394 1397
1398 1399 1406 1409 1410 1411 1418 1421 1424 1425 1426 1433 1436 1439 1442
1445 1455 1458 1460 1464 1474 1477 1478 1480 1482 1483 1485 1487 1495 1498
1499 1501 1503 1505 1507 1522 1525 1527 1531 1541 1544 1552 1555 1556 1558
1560 1561 1563 1565 1573 1583 1586 1589 1592 1595 1605 1608 1609 1610 1626
1629 1632 1633 1634 1641 1644 1646 1650 1660 1663 1665 1669 1679 1682 1685
1688 1691 1701 1704 1705 1707 1709 1710 1712 1714 1722 1724 1728 1731 1741
1744 1747 1750 1752 1753 1756 1765 1768 1771 1774 1777 1787 1789 1793 1796
1813 1816 1824 1827 1828 1830 1832 1834 1836 1844 1847 1848 1849 1856 1859
1862 1863 1864 1871 1873 1877 1885 1888 1896 1898 1902 1910 1913 1916 1919
1921 1922 1925 1934 1937 1938 1940 1942 1944 1946 1954 1957 1958 1960 1962
1963 1965 1967 1975 1977 1981 1989 1999 2002 2005 2006 2007 2014 2016 2020
2023 2033 2035 2039 2049 2052 2060 2070 2073 2075 2079 2089 2092 2095 2096
2097 2104 2107 2108 2110 2112 2113 2115 2117 2125 2128 2130 2134 2144 2147
2148 2149 2151 2153 2168 2171 2174 2177 2180 2197 2199 2203 2206 2216 2218
2222 2225 2235 2238 2239 2240 2242 2244 2252 2255 2258 2261 2263 2264 2267
2276 2279 2280 2281 2288 2291 2293 2297 2307 2310 2313 2316 2319 2326 2329
2332 2343 2346 2349 2350 2351 2358 2361 2362 2363 2372 2374 2378 2381 2391
2394 2396 2400 2410 2413 2415 2419 2429 2432 2433 2434 2443 2446 2449 2450
2451 2458 2461 2462 2463 2470 2473 2476 2477 2487 2490 2491 2493 2495 2496
2504 2506 2510 2513 2523 2526 2529 2530 2531 2540 2542 2546 2549 2559 2561
2565 2573 2576 2577 2578 2585 2588 2589 2591 2593 2595 2597 2612 2614 2618
2626 2636 2639 2642 2645 2648 2658 2660 2664 2674 2677 2679 2683 2693 2696
2701 2704 2707 2718 2721 2724 2725 2726 2733 2736 2744 2747 2750 2753 2756
2766 2769 2772 2773 2774 2783 2793 2796 2799 2802 2804 2805 2808 2817 2827
2830 2831 2832 2841 2844 2852 2855 2856 2858 2860 2862 2864 2872 2874 2878
2895 2897 2901 2909 2919 2922 2925 2926 2927 2936 2939 2940 2942 2944 2945
2947 2949 2957 2959 2963 2973 2976 2981 2984 2987 2998 3001 3004 3005 3006
3013 3016 3018 3022 3032 3035 3037 3041 3051 3053 3057 3065 3068 3071 3072
3073 3080 3083 3086 3089 3092 3102 3105 3113 3123 3126 3134 3137 3140 3143
3146 3156 3159 3167 3170 3178 3181 3182 3183 3190 3193 3195 3199 3209 3212
3213 3215 3217 3218 3220 3222 3224 3226 3233 3243 3246 3248 3252 3269 3272
3280 3282 3286 3289 3299 3301 3305 3308 3318 3321 3322 3324 3326 3327 3329
3331 3339 3342 3345 3346 3347 3356 3359 3361 3365 3375 3377 3381 3391 3408
3411 3413 3417 3424 3427 3430 3438 3441 3444 3455 3458 3459 3461 3463 3465
3467 3475 3478 3481 3484 3486 3487 3490 3499 3516 3519 3520 3521 3530 3533
3536 3537 3538 3545 3548 3549 3551 3553 3554 3556 3558 3566 3569 3571 3575
3585 3587 3591 3594 3604 3607 3608 3610 3612 3614 3616 3624 3627 3630 3631
3632 3641 3644 3647 3650 3653 3663 3665 3669 3672 3682 3684 3688 3691 3701
3704 3707 3710 3713 3723 3726 3728 3732 3742 3745 3748 3749 3750 3757 3760
3761 3763 3765 3766 3768 3770 3778 3781 3782 3783 3790 3793 3794 3796 3798
3800 3802 3807 3810 3813 3824 3827 3830 3831 3832 3839 3842 3845 3848 3851
3861 3864 3865 3867 3869 3871 3873 3881 3884 3885 3887 3889 3891 3893 3898
3901 3904 3915 3918 3921 3924 3927 3937 3947 3950 3953 3956 3958 3959 3962
3971 3974 3975 3976 3983 3986 3988 3992 4002 4004 4008 4018 4021 4024 4025
4026 4033 4036 4039 4042 4045 4055 4058 4060 4064 4074 4077 4079 4083 4093
4095 4099 4109 4112 4114 4118 4128 4131 4132 4133 4140 4150 4152 4156 4164
4167 4170 4173 4176 4186 4189 4192 4195 4197 4198 4201 4210 4213 4215 4219
4236 4239 4247 4250 4253 4254 4255 4262 4265 4268 4269 4270 4277 4280 4283
4284 4294 4297 4300 4301 4302 4316 4319 4320 4322 4324 4325 4327 4329 4341
4344 4347 4358 4361 4363 4367 4377 4380 4383 4386 4389 4399 4409 4412 4413
4414 4416 4418 4423 4426 4429 4440 4443 4444 4446 4448 4450 4452 4460 4463
4464 4466 4468 4470 4472 4480 4483 4486 4487 4488 4495 4498 4506 4508 4512
4522 4524 4528 4536 4539 4540 4542 4544 4545 4547 4549 4551 4553 4560 4563
4566 4567 4568 4575 4578 4579 4580 4589 4592 4594 4598 4608 4611 4612 4613
4615 4617 4625 4628 4631 4632 4633 4642 4645 4648 4649 4650 4659 4661 4665
4670 4673 4676 4684 4687 4690 4701 4704 4707 4710 4713 4723 4726 4728 4732
4742 4744 4748
[ Prot-Masses ]
  60   61   62   63   64   65   66   67   68   69   70   71   72   73   74
  75   76   77   78   79   80   81   82   83   84   85   86   87   88   89
  90   91   92   93   94   95   96   97   98   99  100  101  102  103  104
 105  106  107  108  109  110  111  112  113  114  115  116  117  118  119
 120  121  122  123  124  125  126  127  128  129  130  131  132  133  134
 135  136  137  138  139  140  141  142  143  144  145  146  147  148  149
 150  151  152  153  154  155  156  157  158  159  160  161  162  163  164
 165  166  167  168  169  170  171  172  173  174  175  176  177  178  179
 180  181  182  183  184  185  186  187  188  189  190  191  192  193  194
 195  196  197  198  199  200  201  202  203  204  205  206  207  208  209
 210  211  212  213  214  215  216  217  218  219  220  221  222  223  224
 225  226  227  228  229  230  231  232  233  234  235  236  237  238  239
 240  241  242  243  244  245  246  247  248  249  250  251  252  253  254
 255  256  257  258  259  260  261  262  263  264  265  266  267  268  269
 270  271  272  273  274  275  276  277  278  279  280  281  282  283  284
 285  286  287  288  289  290  291  292  293  294  295  296  297  298  299
 300  301  302  303  304  305  306  307  308  309  310  311  312  313  314
 315  316  317  318  319  320  321  322  323  324  325  326  327  328  329
 330  331  332  333  334  335  336  337  338  339  340  341  342  343  344
 345  346  347  348  349  350  351  352  353  354  355  356  357  358  359
 360  361  362  363  364  365  366  367  368  369  370  371  372  373  374
 375  376  377  378  379  380  381  382  383  384  385  386  387  388  389
 390  391  392  393  394  395  396  397  398  399  400  401  402  403  404
 405  406  407  408  409  410  411  412  413  414  415  416  417  418  419
 420  421  422  423  424  425  426  427  428  429  430  431  432  433  434
 435  436  437  438  439  440  441  442  443  444  445  446  447  448  449
 450  451  452  453  454  455  456  457  458  459  460  461  462  463  464
 465  466  467  468  469  470  471  472  473  474  475  476  477  478  479
 480  481  482  483  484  485  486  487  488  489  490  491  492  493  494
 495  496  497  498  499  500  501  502  503  504  505  506  507  508  509
 510  511  512  513  514  515  516  517  518  519  520  521  522  523  524
 525  526  527  528  529  530  531  532  533  534  535  536  537  538  539
 540  541  542  543  544  545  546  547  548  549  550  551  552  553  554
 555  556  557  558  559  560  561  562  563  564  565  566  567  568  569
 570  571  572  573  574  575  576  577  578  579  580  581  582  583  584
 585  586  587  588  589  590  591  592  593  594  595  596  597  598  599
 600  601  602  603  604  605  606  607  608  609  610  611  612  613  614
 615  616  617  618  619  620  621  622  623  624  625  626  627  628  629
 630  631  632  633  634  635  636  637  638  639  640  641  642  643  644
 645  646  647  648  649  650  651  652  653  654  655  656  657  658  659
 660  661  662  663  664  665  666  667  668  669  670  671  672  673  674
 675  676  677  678  679  680  681  682  683  684  685  686  687  688  689
 690  691  692  693  694  695  696  697  698  699  700  701  702  703  704
 705  706  707  708  709  710  711  712  713  714  715  716  717  718  719
 720  721  722  723  724  725  726  727  728  729  730  731  732  733  734
 735  736  737  738  739  740  741  742  743  744  745  746  747  748  749
 750  751  752  753  754  755  756  757  758  759  760  761  762  763  764
 765  766  767  768  769  770  771  772  773  774  775  776  777  778  779
 780  781  782  783  784  785  786  787  788  789  790  791  792  793  794
 795  796  797  798  799  800  801  802  803  804  805  806  807  808  809
 810  811  812  813  814  815  816  817  818  819  820  821  822  823  824
 825  826  827  828  829  830  831  832  833  834  835  836  837  838  839
 840  841  842  843  844  845  846  847  848  849  850  851  852  853  854
 855  856  857  858  859  860  861  862  863  864  865  866  867  868  869
 870  871  872  873  874  875  876  877  878  879  880  881  882  883  884
 885  886  887  888  889  890  891  892  893  894  895  896  897  898  899
 900  901  902  903  904  905  906  907  908  909  910  911  912  913  914
 915  916  917  918  919  920  921  922  923  924  925  926  927  928  929
 930  931  932  933  934  935  936  937  938  939  940  941  942  943  944
 945  946  947  948  949  950  951  952  953  954  955  956  957  958  959
 960  961  962  963  964  965  966  967  968  969  970  971  972  973  974
 975  976  977  978  979  980  981  982  983  984  985  986  987  988  989
 990  991  992  993  994  995  996  997  998  999 1000 1001 1002 1003 1004
1005 1006 1007 1008 1009 1010 1011 1012 1013 1014 1015 1016 1017 1018 1019
1020 1021 1022 1023 1024 1025 1026 1027 1028 1029 1030 1031 1032 1033 1034
1035 1036 1037 1038 1039 1040 1041 1042 1043 1044 1045 1046 1047 1048 1049
1050 1051 1052 1053 1054 1055 1056 1057 1058 1059 1060 1061 1062 1063 1064
1065 1066 1067 1068 1069 1070 1071 1072 1073 1074 1075 1076 1077 1078 1079
1080 1081 1082 1083 1084 1085 1086 1087 1088 1089 1090 1091 1092 1093 1094
1095 1096 1097 1098 1099 1100 1101 1102 1103 1104 1105 1106 1107 1108 1109
1110 1111 1112 1113 1114 1115 1116 1117 1118 1119 1120 1121 1122 1123 1124
1125 1126 1127 1128 1129 1130 1131 1132 1133 1134 1135 1136 1137 1138 1139
1140 1141 1142 1143 1144 1145 1146 1147 1148 1149 1150 1151 1152 1153 1154
1155 1156 1157 1158 1159 1160 1161 1162 1163 1164 1165 1166 1167 1168 1169
1170 1171 1172 1173 1174 1175 1176 1177 1178 1179 1180 1181 1182 1183 1184
1185 1186 1187 1188 1189 1190 1191 1192 1193 1194 1195 1196 1197 1198 1199
1200 1201 1202 1203 1204 1205 1206 1207 1208 1209 1210 1211 1212 1213 1214
1215 1216 1217 1218 1219 1220 1221 1222 1223 1224 1225 1226 1227 1228 1229
1230 1231 1232 1233 1234 1235 1236 1237 1238 1239 1240 1241 1242 1243 1244
1245 1246 1247 1248 1249 1250 1251 1252 1253 1254 1255 1256 1257 1258 1259
1260 1261 1262 1263 1264 1265 1266 1267 1268 1269 1270 1271 1272 1273 1274
1275 1276 1277 1278 1279 1280 1281 1282 1283 1284 1285 1286 1287 1288 1289
1290 1291 1292 1293 1294 1295 1296 1297 1298 1299 1300 1301 1302 1303 1304
1305 1306 1307 1308 1309 1310 1311 1312 1313 1314 1315 1316 1317 1318 1319
1320 1321 1322 1323 1324 1325 1326 1327 1328 1329 1330 1331 1332 1333 1334
1335 1336 1337 1338 1339 1340 1341 1342 1343 1344 1345 1346 1347 1348 1349
1350 1351 1352 1353 1354 1355 1356 1357 1358 1359 1360 1361 1362 1363 1364
1365 1366 1367 1368 1369 1370 1371 1372 1373 1374 1375 1376 1377 1378 1379
1380 1381 1382 1383 1384 1385 1386 1387 1388 1389 1390 1391 1392 1393 1394
1395 1396 1397 1398 1399 1400 1401 1402 1403 1404 1405 1406 1407 1408 1409
1410 1411 1412 1413 1414 1415 1416 1417 1418 1419 1420 1421 1422 1423 1424
1425 1426 1427 1428 1429 1430 1431 1432 1433 1434 1435 1436 1437 1438 1439
1440 1441 1442 1443 1444 1445 1446 1447 1448 1449 1450 1451 1452 1453 1454
1455 1456 1457 1458 1459 1460 1461 1462 1463 1464 1465 1466 1467 1468 1469
1470 1471 1472 1473 1474 1475 1476 1477 1478 1479 1480 1481 1482 1483 1484
1485 1486 1487 1488 1489 1490 1491 1492 1493 1494 1495 1496 1497 1498 1499
1500 1501 1502 1503 1504 1505 1506 1507 1508 1509 1510 1511 1512 1513 1514
1515 1516 1517 1518 1519 1520 1521 1522 1523 1524 1525 1526 1527 1528 1529
1530 1531 1532 1533 1534 1535 1536 1537 1538 1539 1540 1541 1542 1543 1544
1545 1546 1547 1548 1549 1550 1551 1552 1553 1554 1555 1556 1557 1558 1559
1560 1561 1562 1563 1564 1565 1566 1567 1568 1569 1570 1571 1572 1573 1574
1575 1576 1577 1578 1579 1580 1581 1582 1583 1584 1585 1586 1587 1588 1589
1590 1591 1592 1593 1594 1595 1596 1597 1598 1599 1600 1601 1602 1603 1604
1605 1606 1607 1608 1609 1610 1611 1612 1613 1614 1615 1616 1617 1618 1619
1620 1621 1622 1623 1624 1625 1626 1627 1628 1629 1630 1631 1632 1633 1634
1635 1636 1637 1638 1639 1640 1641 1642 1643 1644 1645 1646 1647 1648 1649
1650 1651 1652 1653 1654 1655 1656 1657 1658 1659 1660 1661 1662 1663 1664
1665 1666 1667 1668 1669 1670 1671 1672 1673 1674 1675 1676 1677 1678 1679
1680 1681 1682 1683 1684 1685 1686 1687 1688 1689 1690 1691 1692 1693 1694
1695 1696 1697 1698 1699 1700 1701 1702 1703 1704 1705 1706 1707 1708 1709
1710 1711 1712 1713 1714 1715 1716 1717 1718 1719 1720 1721 1722 1723 1724
1725 1726 1727 1728 1729 1730 1731 1732 1733 1734 1735 1736 1737 1738 1739
1740 1741 1742 1743 1744 1745 1746 1747 1748 1749 1750 1751 1752 1753 1754
1755 1756 1757 1758 1759 1760 1761 1762 1763 1764 1765 1766 1767 1768 1769
1770 1771 1772 1773 1774 1775 1776 1777 1778 1779 1780 1781 1782 1783 1784
1785 1786 1787 1788 1789 1790 1791 1792 1793 1794 1795 1796 1797 1798 1799
1800 1801 1802 1803 1804 1805 1806 1807 1808 1809 1810 1811 1812 1813 1814
1815 1816 1817 1818 1819 1820 1821 1822 1823 1824 1825 1826 1827 1828 1829
1830 1831 1832 1833 1834 1835 1836 1837 1838 1839 1840 1841 1842 1843 1844
1845 1846 1847 1848 1849 1850 1851 1852 1853 1854 1855 1856 1857 1858 1859
1860 1861 1862 1863 1864 1865 1866 1867 1868 1869 1870 1871 1872 1873 1874
1875 1876 1877 1878 1879 1880 1881 1882 1883 1884 1885 1886 1887 1888 1889
1890 1891 1892 1893 1894 1895 1896 1897 1898 1899 1900 1901 1902 1903 1904
1905 1906 1907 1908 1909 1910 1911 1912 1913 1914 1915 1916 1917 1918 1919
1920 1921 1922 1923 1924 1925 1926 1927 1928 1929 1930 1931 1932 1933 1934
1935 1936 1937 1938 1939 1940 1941 1942 1943 1944 1945 1946 1947 1948 1949
1950 1951 1952 1953 1954 1955 1956 1957 1958 1959 1960 1961 1962 1963 1964
1965 1966 1967 1968 1969 1970 1971 1972 1973 1974 1975 1976 1977 1978 1979
1980 1981 1982 1983 1984 1985 1986 1987 1988 1989 1990 1991 1992 1993 1994
1995 1996 1997 1998 1999 2000 2001 2002 2003 2004 2005 2006 2007 2008 2009
2010 2011 2012 2013 2014 2015 2016 2017 2018 2019 2020 2021 2022 2023 2024
2025 2026 2027 2028 2029 2030 2031 2032 2033 2034 2035 2036 2037 2038 2039
2040 2041 2042 2043 2044 2045 2046 2047 2048 2049 2050 2051 2052 2053 2054
2055 2056 2057 2058 2059 2060 2061 2062 2063 2064 2065 2066 2067 2068 2069
2070 2071 2072 2073 2074 2075 2076 2077 2078 2079 2080 2081 2082 2083 2084
2085 2086 2087 2088 2089 2090 2091 2092 2093 2094 2095 2096 2097 2098 2099
2100 2101 2102 2103 2104 2105 2106 2107 2108 2109 2110 2111 2112 2113 2114
2115 2116 2117 2118 2119 2120 2121 2122 2123 2124 2125 2126 2127 2128 2129
2130 2131 2132 2133 2134 2135 2136 2137 2138 2139 2140 2141 2142 2143 2144
2145 2146 2147 2148 2149 2150 2151 2152 2153 2154 2155 2156 2157 2158 2159
2160 2161 2162 2163 2164 2165 2166 2167 2168 2169 2170 2171 2172 2173 2174
2175 2176 2177 2178 2179 2180 2181 2182 2183 2184 2185 2186 2187 2188 2189
2190 2191 2192 2193 2194 2195 2196 2197 2198 2199 2200 2201 2202 2203 2204
2205 2206 2207 2208 2209 2210 2211 2212 2213 2214 2215 2216 2217 2218 2219
2220 2221 2222 2223 2224 2225 2226 2227 2228 2229 2230 2231 2232 2233 2234
2235 2236 2237 2238 2239 2240 2241 2242 2243 2244 2245 2246 2247 2248 2249
2250 2251 2252 2253 2254 2255 2256 2257 2258 2259 2260 2261 2262 2263 2264
2265 2266 2267 2268 2269 2270 2271 2272 2273 2274 2275 2276 2277 2278 2279
2280 2281 2282 2283 2284 2285 2286 2287 2288 2289 2290 2291 2292 2293 2294
2295 2296 2297 2298 2299 2300 2301 2302 2303 2304 2305 2306 2307 2308 2309
2310 2311 2312 2313 2314 2315 2316 2317 2318 2319 2320 2321 2322 2323 2324
2325 2326 2327 2328 2329 2330 2331 2332 2333 2334 2335 2336 2337 2338 2339
2340 2341 2342 2343 2344 2345 2346 2347 2348 2349 2350 2351 2352 2353 2354
2355 2356 2357 2358 2359 2360 2361 2362 2363 2364 2365 2366 2367 2368 2369
2370 2371 2372 2373 2374 2375 2376 2377 2378 2379 2380 2381 2382 2383 2384
2385 2386 2387 2388 2389 2390 2391 2392 2393 2394 2395 2396 2397 2398 2399
2400 2401 2402 2403 2404 2405 2406 2407 2408 2409 2410 2411 2412 2413 2414
2415 2416 2417 2418 2419 2420 2421 2422 2423 2424 2425 2426 2427 2428 2429
2430 2431 2432 2433 2434 2435 2436 2437 2438 2439 2440 2441 2442 2443 2444
2445 2446 2447 2448 2449 2450 2451 2452 2453 2454 2455 2456 2457 2458 2459
2460 2461 2462 2463 2464 2465 2466 2467 2468 2469 2470 2471 2472 2473 2474
2475 2476 2477 2478 2479 2480 2481 2482 2483 2484 2485 2486 2487 2488 2489
2490 2491 2492 2493 2494 2495 2496 2497 2498 2499 2500 2501 2502 2503 2504
2505 2506 2507 2508 2509 2510 2511 2512 2513 2514 2515 2516 2517 2518 2519
2520 2521 2522 2523 2524 2525 2526 2527 2528 2529 2530 2531 2532 2533 2534
2535 2536 2537 2538 2539 2540 2541 2542 2543 2544 2545 2546 2547 2548 2549
2550 2551 2552 2553 2554 2555 2556 2557 2558 2559 2560 2561 2562 2563 2564
2565 2566 2567 2568 2569 2570 2571 2572 2573 2574 2575 2576 2577 2578 2579
2580 2581 2582 2583 2584 2585 2586 2587 2588 2589 2590 2591 2592 2593 2594
2595 2596 2597 2598 2599 2600 2601 2602 2603 2604 2605 2606 2607 2608 2609
2610 2611 2612 2613 2614 2615 2616 2617 2618 2619 2620 2621 2622 2623 2624
2625 2626 2627 2628 2629 2630 2631 2632 2633 2634 2635 2636 2637 2638 2639
2640 2641 2642 2643 2644 2645 2646 2647 2648 2649 2650 2651 2652 2653 2654
2655 2656 2657 2658 2659 2660 2661 2662 2663 2664 2665 2666 2667 2668 2669
2670 2671 2672 2673 2674 2675 2676 2677 2678 2679 2680 2681 2682 2683 2684
2685 2686 2687 2688 2689 2690 2691 2692 2693 2694 2695 2696 2697 2698 2699
2700 2701 2702 2703 2704 2705 2706 2707 2708 2709 2710 2711 2712 2713 2714
2715 2716 2717 2718 2719 2720 2721 2722 2723 2724 2725 2726 2727 2728 2729
2730 2731 2732 2733 2734 2735 2736 2737 2738 2739 2740 2741 2742 2743 2744
2745 2746 2747 2748 2749 2750 2751 2752 2753 2754 2755 2756 2757 2758 2759
2760 2761 2762 2763 2764 2765 2766 2767 2768 2769 2770 2771 2772 2773 2774
2775 2776 2777 2778 2779 2780 2781 2782 2783 2784 2785 2786 2787 2788 2789
2790 2791 2792 2793 2794 2795 2796 2797 2798 2799 2800 2801 2802 2803 2804
2805 2806 2807 2808 2809 2810 2811 2812 2813 2814 2815 2816 2817 2818 2819
2820 2821 2822 2823 2824 2825 2826 2827 2828 2829 2830 2831 2832 2833 2834
2835 2836 2837 2838 2839 2840 2841 2842 2843 2844 2845 2846 2847 2848 2849
2850 2851 2852 2853 2854 2855 2856 2857 2858 2859 2860 2861 2862 2863 2864
2865 2866 2867 2868 2869 2870 2871 2872 2873 2874 2875 2876 2877 2878 2879
2880 2881 2882 2883 2884 2885 2886 2887 2888 2889 2890 2891 2892 2893 2894
2895 2896 2897 2898 2899 2900 2901 2902 2903 2904 2905 2906 2907 2908 2909
2910 2911 2912 2913 2914 2915 2916 2917 2918 2919 2920 2921 2922 2923 2924
2925 2926 2927 2928 2929 2930 2931 2932 2933 2934 2935 2936 2937 2938 2939
2940 2941 2942 2943 2944 2945 2946 2947 2948 2949 2950 2951 2952 2953 2954
2955 2956 2957 2958 2959 2960 2961 2962 2963 2964 2965 2966 2967 2968 2969
2970 2971 2972 2973 2974 2975 2976 2977 2978 2979 2980 2981 2982 2983 2984
2985 2986 2987 2988 2989 2990 2991 2992 2993 2994 2995 2996 2997 2998 2999
3000 3001 3002 3003 3004 3005 3006 3007 3008 3009 3010 3011 3012 3013 3014
3015 3016 3017 3018 3019 3020 3021 3022 3023 3024 3025 3026 3027 3028 3029
3030 3031 3032 3033 3034 3035 3036 3037 3038 3039 3040 3041 3042 3043 3044
3045 3046 3047 3048 3049 3050 3051 3052 3053 3054 3055 3056 3057 3058 3059
3060 3061 3062 3063 3064 3065 3066 3067 3068 3069 3070 3071 3072 3073 3074
3075 3076 3077 3078 3079 3080 3081 3082 3083 3084 3085 3086 3087 3088 3089
3090 3091 3092 3093 3094 3095 3096 3097 3098 3099 3100 3101 3102 3103 3104
3105 3106 3107 3108 3109 3110 3111 3112 3113 3114 3115 3116 3117 3118 3119
3120 3121 3122 3123 3124 3125 3126 3127 3128 3129 3130 3131 3132 3133 3134
3135 3136 3137 3138 3139 3140 3141 3142 3143 3144 3145 3146 3147 3148 3149
3150 3151 3152 3153 3154 3155 3156 3157 3158 3159 3160 3161 3162 3163 3164
3165 3166 3167 3168 3169 3170 3171 3172 3173 3174 3175 3176 3177 3178 3179
3180 3181 3182 3183 3184 3185 3186 3187 3188 3189 3190 3191 3192 3193 3194
3195 3196 3197 3198 3199 3200 3201 3202 3203 3204 3205 3206 3207 3208 3209
3210 3211 3212 3213 3214 3215 3216 3217 3218 3219 3220 3221 3222 3223 3224
3225 3226 3227 3228 3229 3230 3231 3232 3233 3234 3235 3236 3237 3238 3239
3240 3241 3242 3243 3244 3245 3246 3247 3248 3249 3250 3251 3252 3253 3254
3255 3256 3257 3258 3259 3260 3261 3262 3263 3264 3265 3266 3267 3268 3269
3270 3271 3272 3273 3274 3275 3276 3277 3278 3279 3280 3281 3282 3283 3284
3285 3286 3287 3288 3289 3290 3291 3292 3293 3294 3295 3296 3297 3298 3299
3300 3301 3302 3303 3304 3305 3306 3307 3308 3309 3310 3311 3312 3313 3314
3315 3316 3317 3318 3319 3320 3321 3322 3323 3324 3325 3326 3327 3328 3329
3330 3331 3332 3333 3334 3335 3336 3337 3338 3339 3340 3341 3342 3343 3344
3345 3346 3347 3348 3349 3350 3351 3352 3353 3354 3355 3356 3357 3358 3359
3360 3361 3362 3363 3364 3365 3366 3367 3368 3369 3370 3371 3372 3373 3374
3375 3376 3377 3378 3379 3380 3381 3382 3383 3384 3385 3386 3387 3388 3389
3390 3391 3392 3393 3394 3395 3396 3397 3398 3399 3400 3401 3402 3403 3404
3405 3406 3407 3408 3409 3410 3411 3412 3413 3414 3415 3416 3417 3418 3419
3420 3421 3422 3423 3424 3425 3426 3427 3428 3429 3430 3431 3432 3433 3434
3435 3436 3437 3438 3439 3440 3441 3442 3443 3444 3445 3446 3447 3448 3449
3450 3451 3452 3453 3454 3455 3456 3457 3458 3459 3460 3461 3462 3463 3464
3465 3466 3467 3468 3469 3470 3471 3472 3473 3474 3475 3476 3477 3478 3479
3480 3481 3482 3483 3484 3485 3486 3487 3488 3489 3490 3491 3492 3493 3494
3495 3496 3497 3498 3499 3500 3501 3502 3503 3504 3505 3506 3507 3508 3509
3510 3511 3512 3513 3514 3515 3516 3517 3518 3519 3520 3521 3522 3523 3524
3525 3526 3527 3528 3529 3530 3531 3532 3533 3534 3535 3536 3537 3538 3539
3540 3541 3542 3543 3544 3545 3546 3547 3548 3549 3550 3551 3552 3553 3554
3555 3556 3557 3558 3559 3560 3561 3562 3563 3564 3565 3566 3567 3568 3569
3570 3571 3572 3573 3574 3575 3576 3577 3578 3579 3580 3581 3582 3583 3584
3585 3586 3587 3588 3589 3590 3591 3592 3593 3594 3595 3596 3597 3598 3599
3600 3601 3602 3603 3604 3605 3606 3607 3608 3609 3610 3611 3612 3613 3614
3615 3616 3617 3618 3619 3620 3621 3622 3623 3624 3625 3626 3627 3628 3629
3630 3631 3632 3633 3634 3635 3636 3637 3638 3639 3640 3641 3642 3643 3644
3645 3646 3647 3648 3649 3650 3651 3652 3653 3654 3655 3656 3657 3658 3659
3660 3661 3662 3663 3664 3665 3666 3667 3668 3669 3670 3671 3672 3673 3674
3675 3676 3677 3678 3679 3680 3681 3682 3683 3684 3685 3686 3687 3688 3689
3690 3691 3692 3693 3694 3695 3696 3697 3698 3699 3700 3701 3702 3703 3704
3705 3706 3707 3708 3709 3710 3711 3712 3713 3714 3715 3716 3717 3718 3719
3720 3721 3722 3723 3724 3725 3726 3727 3728 3729 3730 3731 3732 3733 3734
3735 3736 3737 3738 3739 3740 3741 3742 3743 3744 3745 3746 3747 3748 3749
3750 3751 3752 3753 3754 3755 3756 3757 3758 3759 3760 3761 3762 3763 3764
3765 3766 3767 3768 3769 3770 3771 3772 3773 3774 3775 3776 3777 3778 3779
3780 3781 3782 3783 3784 3785 3786 3787 3788 3789 3790 3791 3792 3793 3794
3795 3796 3797 3798 3799 3800 3801 3802 3803 3804 3805 3806 3807 3808 3809
3810 3811 3812 3813 3814 3815 3816 3817 3818 3819 3820 3821 3822 3823 3824
3825 3826 3827 3828 3829 3830 3831 3832 3833 3834 3835 3836 3837 3838 3839
3840 3841 3842 3843 3844 3845 3846 3847 3848 3849 3850 3851 3852 3853 3854
3855 3856 3857 3858 3859 3860 3861 3862 3863 3864 3865 3866 3867 3868 3869
3870 3871 3872 3873 3874 3875 3876 3877 3878 3879 3880 3881 3882 3883 3884
3885 3886 3887 3888 3889 3890 3891 3892 3893 3894 3895 3896 3897 3898 3899
3900 3901 3902 3903 3904 3905 3906 3907 3908 3909 3910 3911 3912 3913 3914
3915 3916 3917 3918 3919 3920 3921 3922 3923 3924 3925 3926 3927 3928 3929
3930 3931 3932 3933 3934 3935 3936 3937 3938 3939 3940 3941 3942 3943 3944
3945 3946 3947 3948 3949 3950 3951 3952 3953 3954 3955 3956 3957 3958 3959
3960 3961 3962 3963 3964 3965 3966 3967 3968 3969 3970 3971 3972 3973 3974
3975 3976 3977 3978 3979 3980 3981 3982 3983 3984 3985 3986 3987 3988 3989
3990 3991 3992 3993 3994 3995 3996 3997 3998 3999 4000 4001 4002 4003 4004
4005 4006 4007 4008 4009 4010 4011 4012 4013 4014 4015 4016 4017 4018 4019
4020 4021 4022 4023 4024 4025 4026 4027 4028 4029 4030 4031 4032 4033 4034
4035 4036 4037 4038 4039 4040 4041 4042 4043 4044 4045 4046 4047 4048 4049
4050 4051 4052 4053 4054 4055 4056 4057 4058 4059 4060 4061 4062 4063 4064
4065 4066 4067 4068 4069 4070 4071 4072 4073 4074 4075 4076 4077 4078 4079
4080 4081 4082 4083 4084 4085 4086 4087 4088 4089 4090 4091 4092 4093 4094
4095 4096 4097 4098 4099 4100 4101 4102 4103 4104 4105 4106 4107 4108 4109
4110 4111 4112 4113 4114 4115 4116 4117 4118 4119 4120 4121 4122 4123 4124
4125 4126 4127 4128 4129 4130 4131 4132 4133 4134 4135 4136 4137 4138 4139
4140 4141 4142 4143 4144 4145 4146 4147 4148 4149 4150 4151 4152 4153 4154
4155 4156 4157 4158 4159 4160 4161 4162 4163 4164 4165 4166 4167 4168 4169
4170 4171 4172 4173 4174 4175 4176 4177 4178 4179 4180 4181 4182 4183 4184
4185 4186 4187 4188 4189 4190 4191 4192 4193 4194 4195 4196 4197 4198 4199
4200 4201 4202 4203 4204 4205 4206 4207 4208 4209 4210 4211 4212 4213 4214
4215 4216 4217 4218 4219 4220 4221 4222 4223 4224 4225 4226 4227 4228 4229
4230 4231 4232 4233 4234 4235 4236 4237 4238 4239 4240 4241 4242 4243 4244
4245 4246 4247 4248 4249 4250 4251 4252 4253 4254 4255 4256 4257 4258 4259
4260 4261 4262 4263 4264 4265 4266 4267 4268 4269 4270 4271 4272 4273 4274
4275 4276 4277 4278 4279 4280 4281 4282 4283 4284 4285 4286 4287 4288 4289
4290 4291 4292 4293 4294 4295 4296 4297 4298 4299 4300 4301 4302 4303 4304
4305 4306 4307 4308 4309 4310 4311 4312 4313 4314 4315 4316 4317 4318 4319
4320 4321 4322 4323 4324 4325 4326 4327 4328 4329 4330 4331 4332 4333 4334
4335 4336 4337 4338 4339 4340 4341 4342 4343 4344 4345 4346 4347 4348 4349
4350 4351 4352 4353 4354 4355 4356 4357 4358 4359 4360 4361 4362 4363 4364
4365 4366 4367 4368 4369 4370 4371 4372 4373 4374 4375 4376 4377 4378 4379
4380 4381 4382 4383 4384 4385 4386 4387 4388 4389 4390 4391 4392 4393 4394
4395 4396 4397 4398 4399 4400 4401 4402 4403 4404 4405 4406 4407 4408 4409
4410 4411 4412 4413 4414 4415 4416 4417 4418 4419 4420 4421 4422 4423 4424
4425 4426 4427 4428 4429 4430 4431 4432 4433 4434 4435 4436 4437 4438 4439
4440 4441 4442 4443 4444 4445 4446 4447 4448 4449 4450 4451 4452 4453 4454
4455 4456 4457 4458 4459 4460 4461 4462 4463 4464 4465 4466 4467 4468 4469
4470 4471 4472 4473 4474 4475 4476 4477 4478 4479 4480 4481 4482 4483 4484
4485 4486 4487 4488 4489 4490 4491 4492 4493 4494 4495 4496 4497 4498 4499
4500 4501 4502 4503 4504 4505 4506 4507 4508 4509 4510 4511 4512 4513 4514
4515 4516 4517 4518 4519 4520 4521 4522 4523 4524 4525 4526 4527 4528 4529
4530 4531 4532 4533 4534 4535 4536 4537 4538 4539 4540 4541 4542 4543 4544
4545 4546 4547 4548 4549 4550 4551 4552 4553 4554 4555 4556 4557 4558 4559
4560 4561 4562 4563 4564 4565 4566 4567 4568 4569 4570 4571 4572 4573 4574
4575 4576 4577 4578 4579 4580 4581 4582 4583 4584 4585 4586 4587 4588 4589
4590 4591 4592 4593 4594 4595 4596 4597 4598 4599 4600 4601 4602 4603 4604
4605 4606 4607 4608 4609 4610 4611 4612 4613 4614 4615 4616 4617 4618 4619
4620 4621 4622 4623 4624 4625 4626 4627 4628 4629 4630 4631 4632 4633 4634
4635 4636 4637 4638 4639 4640 4641 4642 4643 4644 4645 4646 4647 4648 4649
4650 4651 4652 4653 4654 4655 4656 4657 4658 4659 4660 4661 4662 4663 4664
4665 4666 4667 4668 4669 4670 4671 4672 4673 4674 4675 4676 4677 4678 4679
4680 4681 4682 4683 4684 4685 4686 4687 4688 4689 4690 4691 4692 4693 4694
4695 4696 4697 4698 4699 4700 4701 4702 4703 4704 4705 4706 4707 4708 4709
4710 4711 4712 4713 4714 4715 4716 4717 4718 4719 4720 4721 4722 4723 4724
4725 4726 4727 4728 4729 4730 4731 4732 4733 4734 4735 4736 4737 4738 4739
4740 4741 4742 4743 4744 4745 4746 4747 4748 4749 4750 4751 4752
[ non-Protein ]
   1    2    3    4    5    6    7    8    9   10   11   12   13   14   15
  16   17   18   19   20   21   22   23   24   25   26   27   28   29   30
  31   32   33   34   35   36   37   38   39   40   41   42   43   44   45
  46   47   48   49   50   51   52   53   54   55   56   57   58   59
[ RECEPTOR ]
  60   61   62   63   64   65   66   67   68   69   70   71   72   73   74
  75   76   77   78   79   80   81   82   83   84   85   86   87   88   89
  90   91   92   93   94   95   96   97   98   99  100  101  102  103  104
 105  106  107  108  109  110  111  112  113  114  115  116  117  118  119
 120  121  122  123  124  125  126  127  128  129  130  131  132  133  134
 135  136  137  138  139  140  141  142  143  144  145  146  147  148  149
 150  151  152  153  154  155  156  157  158  159  160  161  162  163  164
 165  166  167  168  169  170  171  172  173  174  175  176  177  178  179
 180  181  182  183  184  185  186  187  188  189  190  191  192  193  194
 195  196  197  198  199  200  201  202  203  204  205  206  207  208  209
 210  211  212  213  214  215  216  217  218  219  220  221  222  223  224
 225  226  227  228  229  230  231  232  233  234  235  236  237  238  239
 240  241  242  243  244  245  246  247  248  249  250  251  252  253  254
 255  256  257  258  259  260  261  262  263  264  265  266  267  268  269
 270  271  272  273  274  275  276  277  278  279  280  281  282  283  284
 285  286  287  288  289  290  291  292  293  294  295  296  297  298  299
 300  301  302  303  304  305  306  307  308  309  310  311  312  313  314
 315  316  317  318  319  320  321  322  323  324  325  326  327  328  329
 330  331  332  333  334  335  336  337  338  339  340  341  342  343  344
 345  346  347  348  349  350  351  352  353  354  355  356  357  358  359
 360  361  362  363  364  365  366  367  368  369  370  371  372  373  374
 375  376  377  378  379  380  381  382  383  384  385  386  387  388  389
 390  391  392  393  394  395  396  397  398  399  400  401  402  403  404
 405  406  407  408  409  410  411  412  413  414  415  416  417  418  419
 420  421  422  423  424  425  426  427  428  429  430  431  432  433  434
 435  436  437  438  439  440  441  442  443  444  445  446  447  448  449
 450  451  452  453  454  455  456  457  458  459  460  461  462  463  464
 465  466  467  468  469  470  471  472  473  474  475  476  477  478  479
 480  481  482  483  484  485  486  487  488  489  490  491  492  493  494
 495  496  497  498  499  500  501  502  503  504  505  506  507  508  509
 510  511  512  513  514  515  516  517  518  519  520  521  522  523  524
 525  526  527  528  529  530  531  532  533  534  535  536  537  538  539
 540  541  542  543  544  545  546  547  548  549  550  551  552  553  554
 555  556  557  558  559  560  561  562  563  564  565  566  567  568  569
 570  571  572  573  574  575  576  577  578  579  580  581  582  583  584
 585  586  587  588  589  590  591  592  593  594  595  596  597  598  599
 600  601  602  603  604  605  606  607  608  609  610  611  612  613  614
 615  616  617  618  619  620  621  622  623  624  625  626  627  628  629
 630  631  632  633  634  635  636  637  638  639  640  641  642  643  644
 645  646  647  648  649  650  651  652  653  654  655  656  657  658  659
 660  661  662  663  664  665  666  667  668  669  670  671  672  673  674
 675  676  677  678  679  680  681  682  683  684  685  686  687  688  689
 690  691  692  693  694  695  696  697  698  699  700  701  702  703  704
 705  706  707  708  709  710  711  712  713  714  715  716  717  718  719
 720  721  722  723  724  725  726  727  728  729  730  731  732  733  734
 735  736  737  738  739  740  741  742  743  744  745  746  747  748  749
 750  751  752  753  754  755  756  757  758  759  760  761  762  763  764
 765  766  767  768  769  770  771  772  773  774  775  776  777  778  779
 780  781  782  783  784  785  786  787  788  789  790  791  792  793  794
 795  796  797  798  799  800  801  802  803  804  805  806  807  808  809
 810  811  812  813  814  815  816  817  818  819  820  821  822  823  824
 825  826  827  828  829  830  831  832  833  834  835  836  837  838  839
 840  841  842  843  844  845  846  847  848  849  850  851  852  853  854
 855  856  857  858  859  860  861  862  863  864  865  866  867  868  869
 870  871  872  873  874  875  876  877  878  879  880  881  882  883  884
 885  886  887  888  889  890  891  892  893  894  895  896  897  898  899
 900  901  902  903  904  905  906  907  908  909  910  911  912  913  914
 915  916  917  918  919  920  921  922  923  924  925  926  927  928  929
 930  931  932  933  934  935  936  937  938  939  940  941  942  943  944
 945  946  947  948  949  950  951  952  953  954  955  956  957  958  959
 960  961  962  963  964  965  966  967  968  969  970  971  972  973  974
 975  976  977  978  979  980  981  982  983  984  985  986  987  988  989
 990  991  992  993  994  995  996  997  998  999 1000 1001 1002 1003 1004
1005 1006 1007 1008 1009 1010 1011 1012 1013 1014 1015 1016 1017 1018 1019
1020 1021 1022 1023 1024 1025 1026 1027 1028 1029 1030 1031 1032 1033 1034
1035 1036 1037 1038 1039 1040 1041 1042 1043 1044 1045 1046 1047 1048 1049
1050 1051 1052 1053 1054 1055 1056 1057 1058 1059 1060 1061 1062 1063 1064
1065 1066 1067 1068 1069 1070 1071 1072 1073 1074 1075 1076 1077 1078 1079
1080 1081 1082 1083 1084 1085 1086 1087 1088 1089 1090 1091 1092 1093 1094
1095 1096 1097 1098 1099 1100 1101 1102 1103 1104 1105 1106 1107 1108 1109
1110 1111 1112 1113 1114 1115 1116 1117 1118 1119 1120 1121 1122 1123 1124
1125 1126 1127 1128 1129 1130 1131 1132 1133 1134 1135 1136 1137 1138 1139
1140 1141 1142 1143 1144 1145 1146 1147 1148 1149 1150 1151 1152 1153 1154
1155 1156 1157 1158 1159 1160 1161 1162 1163 1164 1165 1166 1167 1168 1169
1170 1171 1172 1173 1174 1175 1176 1177 1178 1179 1180 1181 1182 1183 1184
1185 1186 1187 1188 1189 1190 1191 1192 1193 1194 1195 1196 1197 1198 1199
1200 1201 1202 1203 1204 1205 1206 1207 1208 1209 1210 1211 1212 1213 1214
1215 1216 1217 1218 1219 1220 1221 1222 1223 1224 1225 1226 1227 1228 1229
1230 1231 1232 1233 1234 1235 1236 1237 1238 1239 1240 1241 1242 1243 1244
1245 1246 1247 1248 1249 1250 1251 1252 1253 1254 1255 1256 1257 1258 1259
1260 1261 1262 1263 1264 1265 1266 1267 1268 1269 1270 1271 1272 1273 1274
1275 1276 1277 1278 1279 1280 1281 1282 1283 1284 1285 1286 1287 1288 1289
1290 1291 1292 1293 1294 1295 1296 1297 1298 1299 1300 1301 1302 1303 1304
1305 1306 1307 1308 1309 1310 1311 1312 1313 1314 1315 1316 1317 1318 1319
1320 1321 1322 1323 1324 1325 1326 1327 1328 1329 1330 1331 1332 1333 1334
1335 1336 1337 1338 1339 1340 1341 1342 1343 1344 1345 1346 1347 1348 1349
1350 1351 1352 1353 1354 1355 1356 1357 1358 1359 1360 1361 1362 1363 1364
1365 1366 1367 1368 1369 1370 1371 1372 1373 1374 1375 1376 1377 1378 1379
1380 1381 1382 1383 1384 1385 1386 1387 1388 1389 1390 1391 1392 1393 1394
1395 1396 1397 1398 1399 1400 1401 1402 1403 1404 1405 1406 1407 1408 1409
1410 1411 1412 1413 1414 1415 1416 1417 1418 1419 1420 1421 1422 1423 1424
1425 1426 1427 1428 1429 1430 1431 1432 1433 1434 1435 1436 1437 1438 1439
1440 1441 1442 1443 1444 1445 1446 1447 1448 1449 1450 1451 1452 1453 1454
1455 1456 1457 1458 1459 1460 1461 1462 1463 1464 1465 1466 1467 1468 1469
1470 1471 1472 1473 1474 1475 1476 1477 1478 1479 1480 1481 1482 1483 1484
1485 1486 1487 1488 1489 1490 1491 1492 1493 1494 1495 1496 1497 1498 1499
1500 1501 1502 1503 1504 1505 1506 1507 1508 1509 1510 1511 1512 1513 1514
1515 1516 1517 1518 1519 1520 1521 1522 1523 1524 1525 1526 1527 1528 1529
1530 1531 1532 1533 1534 1535 1536 1537 1538 1539 1540 1541 1542 1543 1544
1545 1546 1547 1548 1549 1550 1551 1552 1553 1554 1555 1556 1557 1558 1559
1560 1561 1562 1563 1564 1565 1566 1567 1568 1569 1570 1571 1572 1573 1574
1575 1576 1577 1578 1579 1580 1581 1582 1583 1584 1585 1586 1587 1588 1589
1590 1591 1592 1593 1594 1595 1596 1597 1598 1599 1600 1601 1602 1603 1604
1605 1606 1607 1608 1609 1610 1611 1612 1613 1614 1615 1616 1617 1618 1619
1620 1621 1622 1623 1624 1625 1626 1627 1628 1629 1630 1631 1632 1633 1634
1635 1636 1637 1638 1639 1640 1641 1642 1643 1644 1645 1646 1647 1648 1649
1650 1651 1652 1653 1654 1655 1656 1657 1658 1659 1660 1661 1662 1663 1664
1665 1666 1667 1668 1669 1670 1671 1672 1673 1674 1675 1676 1677 1678 1679
1680 1681 1682 1683 1684 1685 1686 1687 1688 1689 1690 1691 1692 1693 1694
1695 1696 1697 1698 1699 1700 1701 1702 1703 1704 1705 1706 1707 1708 1709
1710 1711 1712 1713 1714 1715 1716 1717 1718 1719 1720 1721 1722 1723 1724
1725 1726 1727 1728 1729 1730 1731 1732 1733 1734 1735 1736 1737 1738 1739
1740 1741 1742 1743 1744 1745 1746 1747 1748 1749 1750 1751 1752 1753 1754
1755 1756 1757 1758 1759 1760 1761 1762 1763 1764 1765 1766 1767 1768 1769
1770 1771 1772 1773 1774 1775 1776 1777 1778 1779 1780 1781 1782 1783 1784
1785 1786 1787 1788 1789 1790 1791 1792 1793 1794 1795 1796 1797 1798 1799
1800 1801 1802 1803 1804 1805 1806 1807 1808 1809 1810 1811 1812 1813 1814
1815 1816 1817 1818 1819 1820 1821 1822 1823 1824 1825 1826 1827 1828 1829
1830 1831 1832 1833 1834 1835 1836 1837 1838 1839 1840 1841 1842 1843 1844
1845 1846 1847 1848 1849 1850 1851 1852 1853 1854 1855 1856 1857 1858 1859
1860 1861 1862 1863 1864 1865 1866 1867 1868 1869 1870 1871 1872 1873 1874
1875 1876 1877 1878 1879 1880 1881 1882 1883 1884 1885 1886 1887 1888 1889
1890 1891 1892 1893 1894 1895 1896 1897 1898 1899 1900 1901 1902 1903 1904
1905 1906 1907 1908 1909 1910 1911 1912 1913 1914 1915 1916 1917 1918 1919
1920 1921 1922 1923 1924 1925 1926 1927 1928 1929 1930 1931 1932 1933 1934
1935 1936 1937 1938 1939 1940 1941 1942 1943 1944 1945 1946 1947 1948 1949
1950 1951 1952 1953 1954 1955 1956 1957 1958 1959 1960 1961 1962 1963 1964
1965 1966 1967 1968 1969 1970 1971 1972 1973 1974 1975 1976 1977 1978 1979
1980 1981 1982 1983 1984 1985 1986 1987 1988 1989 1990 1991 1992 1993 1994
1995 1996 1997 1998 1999 2000 2001 2002 2003 2004 2005 2006 2007 2008 2009
2010 2011 2012 2013 2014 2015 2016 2017 2018 2019 2020 2021 2022 2023 2024
2025 2026 2027 2028 2029 2030 2031 2032 2033 2034 2035 2036 2037 2038 2039
2040 2041 2042 2043 2044 2045 2046 2047 2048 2049 2050 2051 2052 2053 2054
2055 2056 2057 2058 2059 2060 2061 2062 2063 2064 2065 2066 2067 2068 2069
2070 2071 2072 2073 2074 2075 2076 2077 2078 2079 2080 2081 2082 2083 2084
2085 2086 2087 2088 2089 2090 2091 2092 2093 2094 2095 2096 2097 2098 2099
2100 2101 2102 2103 2104 2105 2106 2107 2108 2109 2110 2111 2112 2113 2114
2115 2116 2117 2118 2119 2120 2121 2122 2123 2124 2125 2126 2127 2128 2129
2130 2131 2132 2133 2134 2135 2136 2137 2138 2139 2140 2141 2142 2143 2144
2145 2146 2147 2148 2149 2150 2151 2152 2153 2154 2155 2156 2157 2158 2159
2160 2161 2162 2163 2164 2165 2166 2167 2168 2169 2170 2171 2172 2173 2174
2175 2176 2177 2178 2179 2180 2181 2182 2183 2184 2185 2186 2187 2188 2189
2190 2191 2192 2193 2194 2195 2196 2197 2198 2199 2200 2201 2202 2203 2204
2205 2206 2207 2208 2209 2210 2211 2212 2213 2214 2215 2216 2217 2218 2219
2220 2221 2222 2223 2224 2225 2226 2227 2228 2229 2230 2231 2232 2233 2234
2235 2236 2237 2238 2239 2240 2241 2242 2243 2244 2245 2246 2247 2248 2249
2250 2251 2252 2253 2254 2255 2256 2257 2258 2259 2260 2261 2262 2263 2264
2265 2266 2267 2268 2269 2270 2271 2272 2273 2274 2275 2276 2277 2278 2279
2280 2281 2282 2283 2284 2285 2286 2287 2288 2289 2290 2291 2292 2293 2294
2295 2296 2297 2298 2299 2300 2301 2302 2303 2304 2305 2306 2307 2308 2309
2310 2311 2312 2313 2314 2315 2316 2317 2318 2319 2320 2321 2322 2323 2324
2325 2326 2327 2328 2329 2330 2331 2332 2333 2334 2335 2336 2337 2338 2339
2340 2341 2342 2343 2344 2345 2346 2347 2348 2349 2350 2351 2352 2353 2354
2355 2356 2357 2358 2359 2360 2361 2362 2363 2364 2365 2366 2367 2368 2369
2370 2371 2372 2373 2374 2375 2376 2377 2378 2379 2380 2381 2382 2383 2384
2385 2386 2387 2388 2389 2390 2391 2392 2393 2394 2395 2396 2397 2398 2399
2400 2401 2402 2403 2404 2405 2406 2407 2408 2409 2410 2411 2412 2413 2414
2415 2416 2417 2418 2419 2420 2421 2422 2423 2424 2425 2426 2427 2428 2429
2430 2431 2432 2433 2434 2435 2436 2437 2438 2439 2440 2441 2442 2443 2444
2445 2446 2447 2448 2449 2450 2451 2452 2453 2454 2455 2456 2457 2458 2459
2460 2461 2462 2463 2464 2465 2466 2467 2468 2469 2470 2471 2472 2473 2474
2475 2476 2477 2478 2479 2480 2481 2482 2483 2484 2485 2486 2487 2488 2489
2490 2491 2492 2493 2494 2495 2496 2497 2498 2499 2500 2501 2502 2503 2504
2505 2506 2507 2508 2509 2510 2511 2512 2513 2514 2515 2516 2517 2518 2519
2520 2521 2522 2523 2524 2525 2526 2527 2528 2529 2530 2531 2532 2533 2534
2535 2536 2537 2538 2539 2540 2541 2542 2543 2544 2545 2546 2547 2548 2549
2550 2551 2552 2553 2554 2555 2556 2557 2558 2559 2560 2561 2562 2563 2564
2565 2566 2567 2568 2569 2570 2571 2572 2573 2574 2575 2576 2577 2578 2579
2580 2581 2582 2583 2584 2585 2586 2587 2588 2589 2590 2591 2592 2593 2594
2595 2596 2597 2598 2599 2600 2601 2602 2603 2604 2605 2606 2607 2608 2609
2610 2611 2612 2613 2614 2615 2616 2617 2618 2619 2620 2621 2622 2623 2624
2625 2626 2627 2628 2629 2630 2631 2632 2633 2634 2635 2636 2637 2638 2639
2640 2641 2642 2643 2644 2645 2646 2647 2648 2649 2650 2651 2652 2653 2654
2655 2656 2657 2658 2659 2660 2661 2662 2663 2664 2665 2666 2667 2668 2669
2670 2671 2672 2673 2674 2675 2676 2677 2678 2679 2680 2681 2682 2683 2684
2685 2686 2687 2688 2689 2690 2691 2692 2693 2694 2695 2696 2697 2698 2699
2700 2701 2702 2703 2704 2705 2706 2707 2708 2709 2710 2711 2712 2713 2714
2715 2716 2717 2718 2719 2720 2721 2722 2723 2724 2725 2726 2727 2728 2729
2730 2731 2732 2733 2734 2735 2736 2737 2738 2739 2740 2741 2742 2743 2744
2745 2746 2747 2748 2749 2750 2751 2752 2753 2754 2755 2756 2757 2758 2759
2760 2761 2762 2763 2764 2765 2766 2767 2768 2769 2770 2771 2772 2773 2774
2775 2776 2777 2778 2779 2780 2781 2782 2783 2784 2785 2786 2787 2788 2789
2790 2791 2792 2793 2794 2795 2796 2797 2798 2799 2800 2801 2802 2803 2804
2805 2806 2807 2808 2809 2810 2811 2812 2813 2814 2815 2816 2817 2818 2819
2820 2821 2822 2823 2824 2825 2826 2827 2828 2829 2830 2831 2832 2833 2834
2835 2836 2837 2838 2839 2840 2841 2842 2843 2844 2845 2846 2847 2848 2849
2850 2851 2852 2853 2854 2855 2856 2857 2858 2859 2860 2861 2862 2863 2864
2865 2866 2867 2868 2869 2870 2871 2872 2873 2874 2875 2876 2877 2878 2879
2880 2881 2882 2883 2884 2885 2886 2887 2888 2889 2890 2891 2892 2893 2894
2895 2896 2897 2898 2899 2900 2901 2902 2903 2904 2905 2906 2907 2908 2909
2910 2911 2912 2913 2914 2915 2916 2917 2918 2919 2920 2921 2922 2923 2924
2925 2926 2927 2928 2929 2930 2931 2932 2933 2934 2935 2936 2937 2938 2939
2940 2941 2942 2943 2944 2945 2946 2947 2948 2949 2950 2951 2952 2953 2954
2955 2956 2957 2958 2959 2960 2961 2962 2963 2964 2965 2966 2967 2968 2969
2970 2971 2972 2973 2974 2975 2976 2977 2978 2979 2980 2981 2982 2983 2984
2985 2986 2987 2988 2989 2990 2991 2992 2993 2994 2995 2996 2997 2998 2999
3000 3001 3002 3003 3004 3005 3006 3007 3008 3009 3010 3011 3012 3013 3014
3015 3016 3017 3018 3019 3020 3021 3022 3023 3024 3025 3026 3027 3028 3029
3030 3031 3032 3033 3034 3035 3036 3037 3038 3039 3040 3041 3042 3043 3044
3045 3046 3047 3048 3049 3050 3051 3052 3053 3054 3055 3056 3057 3058 3059
3060 3061 3062 3063 3064 3065 3066 3067 3068 3069 3070 3071 3072 3073 3074
3075 3076 3077 3078 3079 3080 3081 3082 3083 3084 3085 3086 3087 3088 3089
3090 3091 3092 3093 3094 3095 3096 3097 3098 3099 3100 3101 3102 3103 3104
3105 3106 3107 3108 3109 3110 3111 3112 3113 3114 3115 3116 3117 3118 3119
3120 3121 3122 3123 3124 3125 3126 3127 3128 3129 3130 3131 3132 3133 3134
3135 3136 3137 3138 3139 3140 3141 3142 3143 3144 3145 3146 3147 3148 3149
3150 3151 3152 3153 3154 3155 3156 3157 3158 3159 3160 3161 3162 3163 3164
3165 3166 3167 3168 3169 3170 3171 3172 3173 3174 3175 3176 3177 3178 3179
3180 3181 3182 3183 3184 3185 3186 3187 3188 3189 3190 3191 3192 3193 3194
3195 3196 3197 3198 3199 3200 3201 3202 3203 3204 3205 3206 3207 3208 3209
3210 3211 3212 3213 3214 3215 3216 3217 3218 3219 3220 3221 3222 3223 3224
3225 3226 3227 3228 3229 3230 3231 3232 3233 3234 3235 3236 3237 3238 3239
3240 3241 3242 3243 3244 3245 3246 3247 3248 3249 3250 3251 3252 3253 3254
3255 3256 3257 3258 3259 3260 3261 3262 3263 3264 3265 3266 3267 3268 3269
3270 3271 3272 3273 3274 3275 3276 3277 3278 3279 3280 3281 3282 3283 3284
3285 3286 3287 3288 3289 3290 3291 3292 3293 3294 3295 3296 3297 3298 3299
3300 3301 3302 3303 3304 3305 3306 3307 3308 3309 3310 3311 3312 3313 3314
3315 3316 3317 3318 3319 3320 3321 3322 3323 3324 3325 3326 3327 3328 3329
3330 3331 3332 3333 3334 3335 3336 3337 3338 3339 3340 3341 3342 3343 3344
3345 3346 3347 3348 3349 3350 3351 3352 3353 3354 3355 3356 3357 3358 3359
3360 3361 3362 3363 3364 3365 3366 3367 3368 3369 3370 3371 3372 3373 3374
3375 3376 3377 3378 3379 3380 3381 3382 3383 3384 3385 3386 3387 3388 3389
3390 3391 3392 3393 3394 3395 3396 3397 3398 3399 3400 3401 3402 3403 3404
3405 3406 3407 3408 3409 3410 3411 3412 3413 3414 3415 3416 3417 3418 3419
3420 3421 3422 3423 3424 3425 3426 3427 3428 3429 3430 3431 3432 3433 3434
3435 3436 3437 3438 3439 3440 3441 3442 3443 3444 3445 3446 3447 3448 3449
3450 3451 3452 3453 3454 3455 3456 3457 3458 3459 3460 3461 3462 3463 3464
3465 3466 3467 3468 3469 3470 3471 3472 3473 3474 3475 3476 3477 3478 3479
3480 3481 3482 3483 3484 3485 3486 3487 3488 3489 3490 3491 3492 3493 3494
3495 3496 3497 3498 3499 3500 3501 3502 3503 3504 3505 3506 3507 3508 3509
3510 3511 3512 3513 3514 3515 3516 3517 3518 3519 3520 3521 3522 3523 3524
3525 3526 3527 3528 3529 3530 3531 3532 3533 3534 3535 3536 3537 3538 3539
3540 3541 3542 3543 3544 3545 3546 3547 3548 3549 3550 3551 3552 3553 3554
3555 3556 3557 3558 3559 3560 3561 3562 3563 3564 3565 3566 3567 3568 3569
3570 3571 3572 3573 3574 3575 3576 3577 3578 3579 3580 3581 3582 3583 3584
3585 3586 3587 3588 3589 3590 3591 3592 3593 3594 3595 3596 3597 3598 3599
3600 3601 3602 3603 3604 3605 3606 3607 3608 3609 3610 3611 3612 3613 3614
3615 3616 3617 3618 3619 3620 3621 3622 3623 3624 3625 3626 3627 3628 3629
3630 3631 3632 3633 3634 3635 3636 3637 3638 3639 3640 3641 3642 3643 3644
3645 3646 3647 3648 3649 3650 3651 3652 3653 3654 3655 3656 3657 3658 3659
3660 3661 3662 3663 3664 3665 3666 3667 3668 3669 3670 3671 3672 3673 3674
3675 3676 3677 3678 3679 3680 3681 3682 3683 3684 3685 3686 3687 3688 3689
3690 3691 3692 3693 3694 3695 3696 3697 3698 3699 3700 3701 3702 3703 3704
3705 3706 3707 3708 3709 3710 3711 3712 3713 3714 3715 3716 3717 3718 3719
3720 3721 3722 3723 3724 3725 3726 3727 3728 3729 3730 3731 3732 3733 3734
3735 3736 3737 3738 3739 3740 3741 3742 3743 3744 3745 3746 3747 3748 3749
3750 3751 3752 3753 3754 3755 3756 3757 3758 3759 3760 3761 3762 3763 3764
3765 3766 3767 3768 3769 3770 3771 3772 3773 3774 3775 3776 3777 3778 3779
3780 3781 3782 3783 3784 3785 3786 3787 3788 3789 3790 3791 3792 3793 3794
3795 3796 3797 3798 3799 3800 3801 3802 3803 3804 3805 3806 3807 3808 3809
3810 3811 3812 3813 3814 3815 3816 3817 3818 3819 3820 3821 3822 3823 3824
3825 3826 3827 3828 3829 3830 3831 3832 3833 3834 3835 3836 3837 3838 3839
3840 3841 3842 3843 3844 3845 3846 3847 3848 3849 3850 3851 3852 3853 3854
3855 3856 3857 3858 3859 3860 3861 3862 3863 3864 3865 3866 3867 3868 3869
3870 3871 3872 3873 3874 3875 3876 3877 3878 3879 3880 3881 3882 3883 3884
3885 3886 3887 3888 3889 3890 3891 3892 3893 3894 3895 3896 3897 3898 3899
3900 3901 3902 3903 3904 3905 3906 3907 3908 3909 3910 3911 3912 3913 3914
3915 3916 3917 3918 3919 3920 3921 3922 3923 3924 3925 3926 3927 3928 3929
3930 3931 3932 3933 3934 3935 3936 3937 3938 3939 3940 3941 3942 3943 3944
3945 3946 3947 3948 3949 3950 3951 3952 3953 3954 3955 3956 3957 3958 3959
3960 3961 3962 3963 3964 3965 3966 3967 3968 3969 3970 3971 3972 3973 3974
3975 3976 3977 3978 3979 3980 3981 3982 3983 3984 3985 3986 3987 3988 3989
3990 3991 3992 3993 3994 3995 3996 3997 3998 3999 4000 4001 4002 4003 4004
4005 4006 4007 4008 4009 4010 4011 4012 4013 4014 4015 4016 4017 4018 4019
4020 4021 4022 4023 4024 4025 4026 4027 4028 4029 4030 4031 4032 4033 4034
4035 4036 4037 4038 4039 4040 4041 4042 4043 4044 4045 4046 4047 4048 4049
4050 4051 4052 4053 4054 4055 4056 4057 4058 4059 4060 4061 4062 4063 4064
4065 4066 4067 4068 4069 4070 4071 4072 4073 4074 4075 4076 4077 4078 4079
4080 4081 4082 4083 4084 4085 4086 4087 4088 4089 4090 4091 4092 4093 4094
4095 4096 4097 4098 4099 4100 4101 4102 4103 4104 4105 4106 4107 4108 4109
4110 4111 4112 4113 4114 4115 4116 4117 4118 4119 4120 4121 4122 4123 4124
4125 4126 4127 4128 4129 4130 4131 4132 4133 4134 4135 4136 4137 4138 4139
4140 4141 4142 4143 4144 4145 4146 4147 4148 4149 4150 4151 4152 4153 4154
4155 4156 4157 4158 4159 4160 4161 4162 4163 4164 4165 4166 4167 4168 4169
4170 4171 4172 4173 4174 4175 4176 4177 4178 4179 4180 4181 4182 4183 4184
4185 4186 4187 4188 4189 4190 4191 4192 4193 4194 4195 4196 4197 4198 4199
4200 4201 4202 4203 4204 4205 4206 4207 4208 4209 4210 4211 4212 4213 4214
4215 4216 4217 4218 4219 4220 4221 4222 4223 4224 4225 4226 4227 4228 4229
4230 4231 4232 4233 4234 4235 4236 4237 4238 4239 4240 4241 4242 4243 4244
4245 4246 4247 4248 4249 4250 4251 4252 4253 4254 4255 4256 4257 4258 4259
4260 4261 4262 4263 4264 4265 4266 4267 4268 4269 4270 4271 4272 4273 4274
4275 4276 4277 4278 4279 4280 4281 4282 4283 4284 4285 4286 4287 4288 4289
4290 4291 4292 4293 4294 4295 4296 4297 4298 4299 4300 4301 4302 4303 4304
4305 4306 4307 4308 4309 4310 4311 4312 4313 4314 4315 4316 4317 4318 4319
4320 4321 4322 4323 4324 4325 4326 4327 4328 4329 4330 4331 4332 4333 4334
4335 4336 4337 4338 4339 4340 4341 4342 4343 4344 4345 4346 4347 4348 4349
4350 4351 4352 4353 4354 4355 4356 4357 4358 4359 4360 4361 4362 4363 4364
4365 4366 4367 4368 4369 4370 4371 4372 4373 4374 4375 4376 4377 4378 4379
4380 4381 4382 4383 4384 4385 4386 4387 4388 4389 4390 4391 4392 4393 4394
4395 4396 4397 4398 4399 4400 4401 4402 4403 4404 4405 4406 4407 4408 4409
4410 4411 4412 4413 4414 4415 4416 4417 4418 4419 4420 4421 4422 4423 4424
4425 4426 4427 4428 4429 4430 4431 4432 4433 4434 4435 4436 4437 4438 4439
4440 4441 4442 4443 4444 4445 4446 4447 4448 4449 4450 4451 4452 4453 4454
4455 4456 4457 4458 4459 4460 4461 4462 4463 4464 4465 4466 4467 4468 4469
4470 4471 4472 4473 4474 4475 4476 4477 4478 4479 4480 4481 4482 4483 4484
4485 4486 4487 4488 4489 4490 4491 4492 4493 4494 4495 4496 4497 4498 4499
4500 4501 4502 4503 4504 4505 4506 4507 4508 4509 4510 4511 4512 4513 4514
4515 4516 4517 4518 4519 4520 4521 4522 4523 4524 4525 4526 4527 4528 4529
4530 4531 4532 4533 4534 4535 4536 4537 4538 4539 4540 4541 4542 4543 4544
4545 4546 4547 4548 4549 4550 4551 4552 4553 4554 4555 4556 4557 4558 4559
4560 4561 4562 4563 4564 4565 4566 4567 4568 4569 4570 4571 4572 4573 4574
4575 4576 4577 4578 4579 4580 4581 4582 4583 4584 4585 4586 4587 4588 4589
4590 4591 4592 4593 4594 4595 4596 4597 4598 4599 4600 4601 4602 4603 4604
4605 4606 4607 4608 4609 4610 4611 4612 4613 4614 4615 4616 4617 4618 4619
4620 4621 4622 4623 4624 4625 4626 4627 4628 4629 4630 4631 4632 4633 4634
4635 4636 4637 4638 4639 4640 4641 4642 4643 4644 4645 4646 4647 4648 4649
4650 4651 4652 4653 4654 4655 4656 4657 4658 4659 4660 4661 4662 4663 4664
4665 4666 4667 4668 4669 4670 4671 4672 4673 4674 4675 4676 4677 4678 4679
4680 4681 4682 4683 4684 4685 4686 4687 4688 4689 4690 4691 4692 4693 4694
4695 4696 4697 4698 4699 4700 4701 4702 4703 4704 4705 4706 4707 4708 4709
4710 4711 4712 4713 4714 4715 4716 4717 4718 4719 4720 4721 4722 4723 4724
4725 4726 4727 4728 4729 4730 4731 4732 4733 4734 4735 4736 4737 4738 4739
4740 4741 4742 4743 4744 4745 4746 4747 4748 4749 4750 4751 4752
